Control file title. For DL_FIELD 4.10
49678
    1MOL     C1    1   5.687   3.725   4.507 -0.9269  0.3758  0.1210
    1MOL     C2    2   5.677   3.881   4.512  0.2134 -0.2087 -0.3200
    1MOL     C3    3   5.789   3.940   4.608  0.3929 -0.0680  0.2908
    1MOL     C4    4   5.835   3.865   4.735  0.0895  0.4286  0.6275
    1MOL     C5    5   5.925   3.947   4.825  0.2391 -0.5467  0.2554
    1MOL     C6    6   5.943   3.889   4.968  0.5939 -0.1905  0.4238
    1MOL     C7    7   6.034   3.973   5.054 -1.3970  0.4518  0.1044
    1MOL     C8    8   6.084   3.899   5.175 -0.2370  0.1745 -0.1241
    1MOL     C9    9   5.976   3.876   5.276 -0.3544  0.2784 -0.2764
    1MOL    C10   10   6.027   3.775   5.387  0.2554  0.5327  0.4553
    1MOL    C11   11   6.012   3.626   5.351  0.7945 -0.1470 -0.1798
    1MOL    C12   12   6.080   3.550   5.469  0.3362  0.2823  0.3455
    1MOL    C13   13   6.030   3.403   5.457  0.1382  0.2974 -0.2097
    1MOL    C14   14   6.108   3.312   5.548  0.2126  0.7925 -0.0316
    1MOL    H15   15   5.786   3.693   4.475 -1.7978 -1.2924 -1.0243
    1MOL    H16   16   5.612   3.693   4.434 -1.3895 -0.4518  0.9468
    1MOL    H17   17   5.578   3.898   4.554  1.1487  0.5206  1.6501
    1MOL    H18   18   5.883   3.968   4.561  1.2616  1.4626  2.8711
    1MOL    H19   19   5.747   4.036   4.639  0.9099  0.7950 -1.5430
    1MOL    H20   20   5.899   3.783   4.703  2.4861  2.0025  1.3083
    1MOL    H21   21   5.743   3.824   4.778  0.1083 -1.9055 -1.4344
    1MOL    H22   22   5.879   4.045   4.833  0.2099 -0.4780 -0.7264
    1MOL    H23   23   6.021   3.961   4.776  0.2067 -1.3061 -0.0383
    1MOL    H24   24   5.982   3.789   4.950  1.5222  0.3228 -0.4804
    1MOL    H25   25   5.840   3.885   5.005  0.8580 -0.1146  1.1724
    1MOL    H26   26   6.117   4.000   4.988 -2.1836  0.4162 -0.9088
    1MOL    H27   27   5.987   4.069   5.079  2.2076  2.0238  1.1142
    1MOL    H28   28   6.171   3.957   5.205  0.8353 -0.1674 -2.3997
    1MOL    H29   29   6.120   3.802   5.141 -1.1185  0.1208 -0.9538
    1MOL    H30   30   5.957   3.971   5.325  2.4088 -0.1795  1.7853
    1MOL    H31   31   5.879   3.847   5.236 -0.0119  0.3319 -1.1574
    1MOL    H32   32   6.131   3.795   5.414  0.4907  0.3673 -0.3110
    1MOL    H33   33   5.962   3.791   5.472 -2.7990 -0.9572 -1.4897
    1MOL    H34   34   5.903   3.612   5.351  0.5673  1.3631  0.9064
    1MOL    H35   35   6.052   3.604   5.253  2.3440  1.7762 -0.0168
    1MOL    H36   36   6.056   3.588   5.569 -0.2114 -0.1489  0.3811
    1MOL    H37   37   6.189   3.550   5.463  0.2505 -0.3551 -1.5623
    1MOL    H38   38   5.922   3.391   5.468  0.4339 -2.4877  0.0887
    1MOL    H39   39   6.027   3.356   5.359 -0.6014  1.7089 -0.8694
    1MOL    H40   40   6.092   3.347   5.650 -2.2614  0.4866 -0.2749
    1MOL    H41   41   6.059   3.215   5.544  0.0037  0.8498  0.8707
    1MOL    H42   42   6.214   3.294   5.531  0.4396  1.1435  0.9450
    1MOL    H43   43   5.656   3.674   4.599  1.9615 -2.1771 -0.2348
    1MOL    C44   44   5.688   3.941   4.364  0.0045 -0.0813 -0.4627
    1MOL    C45   45   5.602   4.065   4.326 -0.2431  0.6484  0.9864
    1MOL    C46   46   5.638   4.188   4.413 -0.1093 -0.3601  0.2989
    1MOL    C47   47   5.587   4.333   4.367 -0.8899  0.7964 -0.0971
    1MOL    C48   48   5.571   4.429   4.491 -0.0759  0.1461 -0.4771
    1MOL    C49   49   5.615   4.573   4.464 -0.0120 -0.2921  0.1871
    1MOL    C50   50   5.585   4.665   4.580  0.3916  0.6512 -0.5295
    1MOL    C51   51   5.651   4.626   4.718 -0.2347 -0.4280  0.2002
    1MOL    C52   52   5.665   4.753   4.804  0.7508  0.4463  0.7410
    1MOL    C53   53   5.740   4.731   4.927  0.0925  0.0381 -0.0082
    1MOL    C54   54   5.790   4.861   5.001  0.4953  0.1140 -0.0539
    1MOL    C55   55   5.726   4.885   5.143 -0.8022 -0.2895  0.0960
    1MOL    C56   56   5.581   4.935   5.148 -0.7992 -0.5475  0.1662
    1MOL    C57   57   5.532   4.981   5.285 -0.6954  0.1375 -0.3568
    1MOL    H58   58   5.791   3.968   4.342 -0.5438  2.1108 -0.4175
    1MOL    H59   59   5.668   3.863   4.290  0.3406  0.8024 -1.4944
    1MOL    H60   60   5.631   4.093   4.225 -0.5959  2.2705  1.3208
    1MOL    H61   61   5.604   4.168   4.514 -1.0243  1.7244  0.4150
    1MOL    H62   62   5.747   4.196   4.414 -0.0044 -1.5220 -0.5247
    1MOL    H63   63   5.490   4.328   4.318 -1.1799  0.6617  0.4842
    1MOL    H64   64   5.650   4.373   4.288 -0.7457  0.0731 -0.3513
    1MOL    H65   65   5.629   4.381   4.570 -3.0215 -0.3833  1.4552
    1MOL    H66   66   5.468   4.426   4.527 -0.8901 -1.4026 -2.8397
    1MOL    H67   67   5.717   4.572   4.426 -0.1004  1.4312 -0.1209
    1MOL    H68   68   5.558   4.608   4.378 -1.4948  2.5067  2.2362
    1MOL    H69   69   5.627   4.761   4.552 -0.8856  1.4400  0.1988
    1MOL    H70   70   5.476   4.672   4.589  0.2071 -1.5042 -0.9543
    1MOL    H71   71   5.752   4.591   4.696 -0.2100 -0.7935  0.8583
    1MOL    H72   72   5.601   4.549   4.778 -0.9632 -0.0944  0.0342
    1MOL    H73   73   5.711   4.829   4.742  0.1813 -1.4681 -2.1197
    1MOL    H74   74   5.568   4.799   4.828  0.6260  0.8381 -0.4719
    1MOL    H75   75   5.823   4.663   4.908  0.8460  0.8454  0.3492
    1MOL    H76   76   5.679   4.663   4.987 -0.4247 -1.8807 -2.6161
    1MOL    H77   77   5.784   4.950   4.939  0.5358 -0.0945 -0.3571
    1MOL    H78   78   5.899   4.854   5.005  0.5766  0.8813 -1.0110
    1MOL    H79   79   5.751   4.800   5.207 -0.7971  0.7050  1.4477
    1MOL    H80   80   5.780   4.973   5.179  0.5701 -0.1265 -2.2685
    1MOL    H81   81   5.524   4.843   5.130  0.5693 -1.5286  0.8002
    1MOL    H82   82   5.556   5.002   5.065 -1.2695  0.7258  1.3181
    1MOL    H83   83   5.523   4.900   5.357  0.5414 -0.1492 -0.5088
    1MOL    H84   84   5.436   5.033   5.279 -1.8227 -1.8153  0.4865
    1MOL    H85   85   5.610   5.048   5.323 -0.5955  0.5984 -1.3516
    1MOL    C86   86   5.446   4.025   4.321 -0.0376 -0.8560 -0.2492
    1MOL    C87   87   5.404   3.921   4.211 -0.5878 -0.4443 -0.3569
    1MOL    C88   88   5.406   3.993   4.073 -1.0769  0.7250 -0.3192
    1MOL    C89   89   5.379   3.909   3.951 -0.4325 -0.3841  0.5256
    1MOL    C90   90   5.429   3.966   3.815  0.0923 -0.4179  0.4356
    1MOL    C91   91   5.352   4.092   3.778 -0.3684 -0.9990  0.1028
    1MOL    C92   92   5.409   4.151   3.648  0.7720  0.6749 -0.5820
    1MOL    C93   93   5.321   4.263   3.587  0.6684 -0.3017 -0.2429
    1MOL    C94   94   5.346   4.399   3.648  0.0564 -0.3425  0.1436
    1MOL    C95   95   5.292   4.524   3.577  1.4670 -0.3577 -0.2782
    1MOL    C96   96   5.323   4.661   3.647 -0.0287  0.3502  0.0565
    1MOL    C97   97   5.278   4.789   3.572 -0.1963  0.4403 -0.0389
    1MOL    C98   98   5.288   4.919   3.657 -0.5145  0.5426  0.2287
    1MOL    C99   99   5.433   4.953   3.673 -0.5877  0.3065  0.0590
    1MOL   H100  100   5.406   4.007   4.421 -1.8583 -0.6899 -0.9258
    1MOL   H101  101   5.404   4.121   4.294  0.6169 -0.8972 -1.4609
    1MOL   H102  102   5.476   3.840   4.215  0.9751  0.8899 -0.9968
    1MOL   H103  103   5.335   4.076   4.075 -0.0537  1.6254 -0.4763
    1MOL   H104  104   5.506   4.038   4.070 -0.9679  0.7720  2.4172
    1MOL   H105  105   5.427   3.812   3.964  1.8064  0.7032  0.6634
    1MOL   H106  106   5.276   3.879   3.933 -0.4813  0.1522 -0.0902
    1MOL   H107  107   5.446   3.892   3.737  0.7468  1.5781 -1.3790
    1MOL   H108  108   5.530   4.002   3.839 -0.1055  0.2957  0.2287
    1MOL   H109  109   5.346   4.155   3.867 -2.4457  1.4925 -1.7400
    1MOL   H110  110   5.252   4.052   3.759  0.0145 -2.4525  1.0717
    1MOL   H111  111   5.515   4.169   3.668  0.3775  2.8106 -0.2510
    1MOL   H112  112   5.421   4.075   3.571  0.5591 -0.7869  0.8245
    1MOL   H113  113   5.214   4.249   3.570  0.6906  0.7554 -1.3326
    1MOL   H114  114   5.366   4.264   3.488  4.5048  3.4343  1.3822
    1MOL   H115  115   5.307   4.401   3.750  0.3860  1.0830  0.2540
    1MOL   H116  116   5.453   4.413   3.666  0.6210 -0.3227 -2.9987
    1MOL   H117  117   5.183   4.527   3.577  1.4413 -0.8856 -1.0567
    1MOL   H118  118   5.324   4.517   3.473  1.5373 -0.6637 -0.2368
    1MOL   H119  119   5.277   4.663   3.745  0.9540  0.6963  0.5124
    1MOL   H120  120   5.429   4.668   3.670  0.2514 -2.1172 -0.2792
    1MOL   H121  121   5.322   4.807   3.475  1.5143 -0.4961  0.5392
    1MOL   H122  122   5.178   4.768   3.532  0.5492  0.3794 -1.9028
    1MOL   H123  123   5.243   4.899   3.754 -0.2861  0.0096  0.2260
    1MOL   H124  124   5.241   4.999   3.600 -0.5166 -0.6150 -1.4446
    1MOL   H125  125   5.480   4.956   3.575  0.7301 -0.0148  0.6672
    1MOL   H126  126   5.452   5.049   3.721  0.7275 -0.6667  1.5193
    1MOL   H127  127   5.483   4.877   3.733 -1.5298  0.2126  0.7341
    1MOL   C128  128   5.264   3.863   4.233  0.6762 -0.4875 -0.3292
    1MOL   C129  129   5.249   3.744   4.334 -0.2953 -0.1434  0.4661
    1MOL   C130  130   5.331   3.614   4.294  0.6460 -1.2271  0.1882
    1MOL   C131  131   5.334   3.580   4.146 -0.0734  0.6423 -0.1143
    1MOL   C132  132   5.404   3.452   4.116  0.5235 -0.7855 -0.3238
    1MOL   C133  133   5.454   3.432   3.973  0.4839  0.6656 -0.5504
    1MOL   C134  134   5.555   3.317   3.960  0.1149 -0.1792 -0.3697
    1MOL   C135  135   5.505   3.177   3.996  0.6700 -0.1192  0.8897
    1MOL   C136  136   5.598   3.062   3.961 -0.0244  0.4183 -0.2628
    1MOL   C137  137   5.617   3.052   3.807 -0.4214  0.0906 -0.5251
    1MOL   C138  138   5.673   2.919   3.748  0.0831  0.8843  0.6495
    1MOL   C139  139   5.667   2.903   3.598 -0.7066 -0.0248  0.4249
    1MOL   C140  140   5.729   2.775   3.549  0.0824  0.0229 -0.0257
    1MOL   C141  141   5.655   2.725   3.413 -0.3625 -0.9669 -0.3619
    1MOL   H142  142   5.196   3.940   4.269  1.4885  1.2886 -2.5293
    1MOL   H143  143   5.212   3.831   4.143 -2.5600 -2.0106  1.9840
    1MOL   H144  144   5.145   3.716   4.318 -0.0482  0.1170 -1.7079
    1MOL   H145  145   5.436   3.629   4.321  0.0690 -2.2840  3.2031
    1MOL   H146  146   5.285   3.532   4.347 -0.7008 -0.6603 -0.0887
    1MOL   H147  147   5.238   3.591   4.094 -1.3917  2.0827  2.5027
    1MOL   H148  148   5.401   3.653   4.100 -0.0250  0.8566  0.2907
    1MOL   H149  149   5.488   3.445   4.184 -0.3414 -0.7161  0.7771
    1MOL   H150  150   5.333   3.373   4.142 -0.1488 -0.7305 -1.9288
    1MOL   H151  151   5.361   3.417   3.917  1.3815  3.3744 -2.8843
    1MOL   H152  152   5.499   3.519   3.926  2.4378 -1.7009 -3.2394
    1MOL   H153  153   5.585   3.318   3.855  0.7933 -0.8046 -0.1877
    1MOL   H154  154   5.647   3.329   4.017 -1.8046  0.8927  2.5746
    1MOL   H155  155   5.504   3.176   4.105 -1.5883  0.6723  0.8942
    1MOL   H156  156   5.404   3.160   3.960  1.2302  1.6300 -1.6883
    1MOL   H157  157   5.689   3.073   4.020 -0.6292 -3.5258  1.5818
    1MOL   H158  158   5.546   2.974   3.997 -0.9379  0.9578 -0.2475
    1MOL   H159  159   5.696   3.121   3.776 -1.6704  2.9579  2.4508
    1MOL   H160  160   5.515   3.067   3.770  0.1191  1.2048 -1.6133
    1MOL   H161  161   5.770   2.899   3.794  0.3078 -0.8280 -0.5067
    1MOL   H162  162   5.602   2.843   3.782  0.6714 -0.9352 -2.0482
    1MOL   H163  163   5.562   2.911   3.570 -0.4581 -1.6114 -1.0200
    1MOL   H164  164   5.717   2.996   3.570  0.6950 -0.1524  2.3787
    1MOL   H165  165   5.836   2.793   3.537  0.1869 -0.3894  0.2793
    1MOL   H166  166   5.724   2.706   3.633 -0.7122  0.4256  0.2633
    1MOL   H167  167   5.603   2.806   3.363  0.1876 -1.1811 -1.2923
    1MOL   H168  168   5.720   2.678   3.340  2.6623 -0.1499  1.7197
    1MOL   H169  169   5.582   2.648   3.438 -1.5319  0.4270  0.6043
    1MOL   C170  170   5.273   3.786   4.484 -0.8781  0.4486 -0.3796
    1MOL   C171  171   5.220   3.688   4.592  0.6061 -0.2251 -1.0423
    1MOL   C172  172   5.267   3.725   4.736 -0.3153 -0.2159  0.7477
    1MOL   C173  173   5.195   3.849   4.801  0.0292 -0.1555  1.1356
    1MOL   C174  174   5.256   3.888   4.933 -1.1110 -0.1407  0.0421
    1MOL   C175  175   5.189   4.012   4.989  0.8481  0.0721 -0.0417
    1MOL   C176  176   5.212   4.028   5.137 -0.2225 -0.2135  0.6403
    1MOL   C177  177   5.155   4.159   5.190  0.1871  0.3271 -0.0172
    1MOL   C178  178   5.210   4.191   5.328 -0.6495 -0.4410  0.0244
    1MOL   C179  179   5.186   4.335   5.377 -0.4255  0.7408  0.3061
    1MOL   C180  180   5.225   4.363   5.529 -0.9700  0.0739  0.1370
    1MOL   C181  181   5.252   4.501   5.588  0.7091 -0.3138 -0.1793
    1MOL   C182  182   5.292   4.482   5.736  0.1773  0.2654 -0.1414
    1MOL   C183  183   5.439   4.456   5.745 -0.1384  0.3171  0.0763
    1MOL   H184  184   5.233   3.887   4.493 -2.4613 -0.1805 -0.2049
    1MOL   H185  185   5.380   3.805   4.486 -0.6764 -0.4510 -1.3906
    1MOL   H186  186   5.277   3.598   4.567  0.6171 -0.9852  1.5322
    1MOL   H187  187   5.259   3.637   4.800 -0.5157  0.4621  1.6781
    1MOL   H188  188   5.372   3.756   4.741 -0.2908 -0.4880  2.0848
    1MOL   H189  189   5.191   3.932   4.731 -1.5098 -1.0807  0.1049
    1MOL   H190  190   5.091   3.824   4.820  0.5535 -2.2217  1.4548
    1MOL   H191  191   5.257   3.810   5.009  0.8716  0.9744  1.2081
    1MOL   H192  192   5.362   3.908   4.919 -1.0590 -0.1476  0.4131
    1MOL   H193  193   5.084   4.000   4.963  1.4805  2.3127 -3.9224
    1MOL   H194  194   5.213   4.109   4.945  0.8918 -0.1606 -0.5321
    1MOL   H195  195   5.320   4.020   5.156  0.0753 -0.1219 -0.9717
    1MOL   H196  196   5.166   3.947   5.193 -1.2614  0.0736  0.2029
    1MOL   H197  197   5.046   4.161   5.193  0.1398 -0.6870 -0.7616
    1MOL   H198  198   5.197   4.234   5.123 -1.8885  2.3463  0.8744
    1MOL   H199  199   5.318   4.184   5.324 -0.6410 -0.4886  0.3046
    1MOL   H200  200   5.174   4.116   5.398  0.3443 -1.4678 -0.5616
    1MOL   H201  201   5.079   4.349   5.366 -0.9030 -0.8860  2.6064
    1MOL   H202  202   5.235   4.398   5.302 -0.2148  1.5463  1.1134
    1MOL   H203  203   5.322   4.315   5.533  0.3899  2.1719 -4.3875
    1MOL   H204  204   5.171   4.296   5.597  1.5761 -1.6516  0.5203
    1MOL   H205  205   5.334   4.540   5.527 -0.9162 -2.3732 -3.9016
    1MOL   H206  206   5.164   4.561   5.566  0.8085 -0.5233 -1.1753
    1MOL   H207  207   5.273   4.571   5.795 -2.8756 -1.9240  2.3041
    1MOL   H208  208   5.231   4.404   5.781  0.3944  0.1122 -0.1119
    1MOL   H209  209   5.492   4.542   5.704  1.8515 -0.7221  0.3820
    1MOL   H210  210   5.456   4.363   5.691 -0.9762  0.7758 -1.0008
    1MOL   H211  211   5.471   4.448   5.849 -1.4099  1.1066  0.5373
    1MOL   C212  212   5.064   3.661   4.589 -0.2266 -0.0661 -0.0217
    1MOL   C213  213   5.008   3.545   4.671 -0.1322 -0.6128  1.2881
    1MOL   C214  214   4.851   3.555   4.693  0.1724 -0.8350  0.0434
    1MOL   C215  215   4.770   3.540   4.564 -0.6614 -0.1133  0.2968
    1MOL   C216  216   4.622   3.564   4.586 -0.3751  0.3529  1.1793
    1MOL   C217  217   4.554   3.446   4.664  0.4781 -0.0106 -0.4447
    1MOL   C218  218   4.403   3.451   4.679 -0.0758 -0.3914 -0.6966
    1MOL   C219  219   4.354   3.340   4.774  0.3553  0.0729 -0.0715
    1MOL   C220  220   4.203   3.363   4.813  0.7629  0.5338  0.0882
    1MOL   C221  221   4.132   3.231   4.860 -0.3914 -0.0110  0.4034
    1MOL   C222  222   4.160   3.179   5.003 -0.9053 -0.2694 -0.5672
    1MOL   C223  223   4.102   3.040   5.032 -0.2807 -0.0199  0.6221
    1MOL   C224  224   4.114   2.991   5.174  0.4564 -0.0863  0.0957
    1MOL   C225  225   4.034   3.062   5.277  0.1139  0.3058  0.3365
    1MOL   H226  226   5.029   3.650   4.486 -0.6774  4.1189 -0.4170
    1MOL   H227  227   5.011   3.755   4.608 -0.3914 -0.1224 -0.2029
    1MOL   H228  228   5.051   3.567   4.768  1.7242  1.9616 -0.0664
    1MOL   H229  229   4.816   3.485   4.768  0.4805 -1.1013 -0.0608
    1MOL   H230  230   4.826   3.651   4.739  1.7304  0.8259 -2.4351
    1MOL   H231  231   4.800   3.452   4.507  1.6634  1.1602 -0.5209
    1MOL   H232  232   4.805   3.622   4.501  0.3682 -1.9770 -1.5799
    1MOL   H233  233   4.580   3.582   4.487 -0.6053 -0.8718  1.0405
    1MOL   H234  234   4.606   3.659   4.636 -3.4047  0.4831  0.0904
    1MOL   H235  235   4.596   3.432   4.764  0.9478  1.3395 -0.4477
    1MOL   H236  236   4.574   3.357   4.605  0.2858  0.4006 -1.1312
    1MOL   H237  237   4.384   3.547   4.727  0.6090 -1.0923  1.0456
    1MOL   H238  238   4.347   3.455   4.587 -2.6750  0.4966  0.8826
    1MOL   H239  239   4.373   3.245   4.725  0.4714 -0.7732  1.5958
    1MOL   H240  240   4.418   3.341   4.862  0.3440  0.7807 -0.0643
    1MOL   H241  241   4.155   3.405   4.725 -1.8503 -1.8637  0.2986
    1MOL   H242  242   4.192   3.446   4.882  0.6392  1.2305 -0.7704
    1MOL   H243  243   4.026   3.256   4.865 -0.4468  0.5898 -2.8424
    1MOL   H244  244   4.153   3.152   4.787  0.3741  1.9991 -1.5899
    1MOL   H245  245   4.129   3.256   5.073 -0.0754  0.4393 -0.9867
    1MOL   H246  246   4.268   3.168   5.011 -0.8967  0.0640 -0.2482
    1MOL   H247  247   4.160   2.965   4.978 -2.0343 -1.3996  0.5942
    1MOL   H248  248   4.003   3.026   4.988  0.1731 -0.8711 -0.1371
    1MOL   H249  249   4.217   2.997   5.207  0.0832 -2.4589  1.7407
    1MOL   H250  250   4.086   2.886   5.176 -0.8762  0.2869  1.8957
    1MOL   H251  251   4.062   3.042   5.381  0.7231 -0.4157  0.0410
    1MOL   H252  252   4.050   3.169   5.265  0.4702  0.3364  1.0308
    1MOL   H253  253   3.928   3.036   5.272  0.6379 -1.8784  0.2658
    1MOL   C254  254   5.058   3.399   4.634 -0.4993 -0.2051 -0.1096
    1MOL   C255  255   5.068   3.299   4.754  0.7764 -0.0011  0.1662
    1MOL   C256  256   5.052   3.152   4.707  0.5081 -0.0702 -0.4952
    1MOL   C257  257   4.913   3.120   4.652  0.0767  0.2347  0.2653
    1MOL   C258  258   4.891   2.977   4.608 -0.3880 -0.3128 -0.4273
    1MOL   C259  259   4.895   2.972   4.455 -0.1672  0.0637 -0.0421
    1MOL   C260  260   4.843   2.834   4.406 -0.9896 -0.3533 -0.3357
    1MOL   C261  261   4.811   2.847   4.260 -0.2327 -0.4409  0.1056
    1MOL   C262  262   4.814   2.714   4.195  0.2605 -0.4040  0.7196
    1MOL   C263  263   4.746   2.710   4.054 -0.4747 -1.1018 -0.2534
    1MOL   C264  264   4.597   2.675   4.053  0.3928 -0.4585  0.6338
    1MOL   C265  265   4.549   2.537   4.110 -0.8163 -0.3644 -0.3068
    1MOL   C266  266   4.401   2.529   4.140 -0.1132  1.0048  0.0589
    1MOL   C267  267   4.341   2.386   4.150  0.4606  0.6060  0.0801
    1MOL   H268  268   5.146   3.393   4.571 -1.6044  1.9813 -1.9453
    1MOL   H269  269   4.979   3.362   4.569  0.1153 -0.4132 -0.7359
    1MOL   H270  270   4.997   3.325   4.832  1.2038  1.9219 -0.0519
    1MOL   H271  271   5.067   3.095   4.798 -0.4716 -0.8726 -0.8255
    1MOL   H272  272   5.128   3.120   4.635  1.3242  1.5508 -0.3779
    1MOL   H273  273   4.886   3.186   4.570  0.7773 -3.3811 -2.9858
    1MOL   H274  274   4.843   3.142   4.733  3.1144  1.1919  2.7233
    1MOL   H275  275   4.801   2.933   4.650 -1.1367  0.7455 -0.8860
    1MOL   H276  276   4.969   2.913   4.650 -0.3591 -1.8887 -2.8295
    1MOL   H277  277   4.996   2.987   4.415 -0.7264  1.5199 -0.9406
    1MOL   H278  278   4.835   3.052   4.413  0.4052 -0.0894 -1.1744
    1MOL   H279  279   4.917   2.760   4.434 -0.2268  0.4813 -0.1263
    1MOL   H280  280   4.755   2.796   4.458  0.6065 -1.0085  1.9298
    1MOL   H281  281   4.883   2.914   4.213 -1.2176 -0.6809 -1.7941
    1MOL   H282  282   4.710   2.887   4.247  0.4047  1.3159  0.5070
    1MOL   H283  283   4.911   2.665   4.185  1.6281  2.2327  0.6448
    1MOL   H284  284   4.757   2.647   4.258 -0.5547 -2.0959 -1.7312
    1MOL   H285  285   4.794   2.636   3.990 -2.8388 -1.4258 -1.7218
    1MOL   H286  286   4.766   2.807   4.007  1.6893 -2.3189 -1.9292
    1MOL   H287  287   4.564   2.676   3.950 -0.3625 -0.7413  0.8701
    1MOL   H288  288   4.542   2.759   4.096 -0.7327  0.6040 -2.7647
    1MOL   H289  289   4.583   2.457   4.044  0.1818  0.3968 -0.7468
    1MOL   H290  290   4.605   2.510   4.200  0.1734  1.2815 -0.4019
    1MOL   H291  291   4.381   2.583   4.232 -0.8008  0.6960  0.0951
    1MOL   H292  292   4.346   2.576   4.058 -1.1277 -1.2326 -0.5721
    1MOL   H293  293   4.238   2.390   4.115 -0.2251 -1.1801  1.7707
    1MOL   H294  294   4.360   2.341   4.247  0.5260 -0.7559 -0.5573
    1MOL   H295  295   4.403   2.323   4.087  1.8594  0.3541  1.6837
    1MOL   C296  296   5.213   3.325   4.815 -0.0544 -0.2270  1.1139
    1MOL   C297  297   5.229   3.250   4.951 -0.3736 -0.0834 -0.3898
    1MOL   C298  298   5.378   3.238   4.997 -0.7023  0.0615 -0.8258
    1MOL   C299  299   5.456   3.148   4.903 -0.5698  0.0975  0.2386
    1MOL   C300  300   5.581   3.089   4.965  0.2942 -0.3711 -0.2891
    1MOL   C301  301   5.676   3.018   4.871  0.4450 -0.4534 -0.1770
    1MOL   C302  302   5.619   2.885   4.803 -0.7338  0.2430 -0.0078
    1MOL   C303  303   5.726   2.848   4.693 -0.5844  0.2888  0.2241
    1MOL   C304  304   5.699   2.716   4.618 -1.0120  0.5746 -0.2718
    1MOL   C305  305   5.732   2.594   4.707  0.1138 -0.2627  0.1222
    1MOL   C306  306   5.771   2.473   4.624 -0.4865 -0.4862  0.2448
    1MOL   C307  307   5.906   2.472   4.552 -0.1100  0.3379 -0.4083
    1MOL   C308  308   5.942   2.332   4.499 -0.0372  0.4963  0.2251
    1MOL   C309  309   6.043   2.333   4.380 -0.1743  0.6177  0.3898
    1MOL   H310  310   5.227   3.432   4.829 -1.2403 -0.0467  0.9692
    1MOL   H311  311   5.286   3.304   4.736 -3.2128 -0.1986 -1.9365
    1MOL   H312  312   5.202   3.148   4.921  4.1997 -1.6246  0.3673
    1MOL   H313  313   5.379   3.189   5.095  2.2487  0.0725 -0.7980
    1MOL   H314  314   5.423   3.335   5.018 -0.1459  0.1142 -2.2219
    1MOL   H315  315   5.484   3.204   4.813 -0.5095 -0.7099 -0.2531
    1MOL   H316  316   5.386   3.071   4.871 -1.0933 -2.1032  6.0365
    1MOL   H317  317   5.646   3.161   5.013 -0.9789  0.9857 -0.5562
    1MOL   H318  318   5.552   3.025   5.049 -2.0916  0.0014 -0.8014
    1MOL   H319  319   5.769   2.994   4.923 -0.1981 -2.0042  0.2771
    1MOL   H320  320   5.703   3.091   4.795  0.3547 -1.2475 -0.9809
    1MOL   H321  321   5.613   2.806   4.878 -0.5763  1.4083  1.2602
    1MOL   H322  322   5.524   2.897   4.752 -0.2909 -0.7049 -1.0831
    1MOL   H323  323   5.821   2.836   4.746 -0.7755 -3.6395 -0.1616
    1MOL   H324  324   5.732   2.932   4.623 -2.6849  3.0443  3.2270
    1MOL   H325  325   5.595   2.714   4.584 -0.7663  0.2999 -1.0024
    1MOL   H326  326   5.758   2.711   4.526 -0.2770 -0.9484  0.2572
    1MOL   H327  327   5.648   2.559   4.766 -0.5744  1.9108  0.4602
    1MOL   H328  328   5.808   2.615   4.782  0.9061  0.7621 -0.9349
    1MOL   H329  329   5.683   2.451   4.563 -0.0036 -0.1220 -0.5882
    1MOL   H330  330   5.789   2.394   4.697  2.5830  0.7134  0.8390
    1MOL   H331  331   5.975   2.515   4.625 -0.4131  1.6930 -0.9046
    1MOL   H332  332   5.908   2.546   4.471 -1.3990 -0.4573 -1.1749
    1MOL   H333  333   5.845   2.295   4.466  0.8975  0.1910 -2.2777
    1MOL   H334  334   5.970   2.269   4.583 -1.6062 -1.5863 -0.7562
    1MOL   H335  335   5.986   2.366   4.293  0.9914 -1.2864 -1.1129
    1MOL   H336  336   6.120   2.409   4.389  0.1740  0.2893  0.1759
    1MOL   H337  337   6.086   2.234   4.365  1.4241  1.1627  1.2405
    1MOL   C338  338   5.122   3.289   5.059 -0.3088 -0.0284 -0.4050
    1MOL   C339  339   5.003   3.197   5.079  0.0519 -0.5069  0.1936
    1MOL   C340  340   5.059   3.073   5.164 -0.2972 -0.6665 -0.5545
    1MOL   C341  341   4.979   2.938   5.145  0.0400 -0.4502  0.7918
    1MOL   C342  342   5.009   2.868   5.017 -0.2605 -0.0430 -0.3766
    1MOL   C343  343   5.153   2.808   5.007 -0.9093 -0.6910  0.1751
    1MOL   C344  344   5.185   2.753   4.866 -0.6648  0.1892 -0.4064
    1MOL   C345  345   5.297   2.652   4.853  0.3432  0.4498  0.4849
    1MOL   C346  346   5.284   2.528   4.940 -0.0055  0.1074  0.5146
    1MOL   C347  347   5.387   2.416   4.912 -0.6862  0.6004  0.0215
    1MOL   C348  348   5.382   2.346   4.774 -0.3806  0.8631  0.0719
    1MOL   C349  349   5.492   2.244   4.753  0.6975 -0.4316  0.0227
    1MOL   C350  350   5.489   2.182   4.614 -0.2562  0.3535  0.8291
    1MOL   C351  351   5.600   2.080   4.580  0.2987 -0.3979  0.2175
    1MOL   H352  352   5.169   3.315   5.154 -0.9294  0.0161 -0.1058
    1MOL   H353  353   5.096   3.389   5.024  0.5367  1.2282  2.3890
    1MOL   H354  354   4.954   3.171   4.985  1.4054  1.0473 -0.9563
    1MOL   H355  355   5.165   3.064   5.139  0.0824 -1.2956  1.2252
    1MOL   H356  356   5.069   3.093   5.270  1.1171  2.2209 -1.1844
    1MOL   H357  357   4.872   2.958   5.147  0.3178  1.7806 -2.4541
    1MOL   H358  358   5.011   2.864   5.218  1.5727  0.0767  0.6778
    1MOL   H359  359   4.984   2.931   4.933 -1.8841  0.4684  0.4756
    1MOL   H360  360   4.936   2.787   5.014 -1.3753  0.8032  2.2649
    1MOL   H361  361   5.233   2.878   5.028  0.6315 -1.8043 -1.8344
    1MOL   H362  362   5.156   2.728   5.081  2.4073 -0.4677  0.3342
    1MOL   H363  363   5.098   2.716   4.812 -1.8348  0.5650  1.1720
    1MOL   H364  364   5.221   2.840   4.812 -0.2443 -1.2278 -2.4235
    1MOL   H365  365   5.305   2.635   4.746 -2.4675 -1.4866  0.5490
    1MOL   H366  366   5.391   2.700   4.883 -0.0248  0.3718  1.8128
    1MOL   H367  367   5.286   2.551   5.046 -0.3206  0.2041  0.5004
    1MOL   H368  368   5.182   2.493   4.927  0.7500 -1.6892 -0.9073
    1MOL   H369  369   5.482   2.462   4.939 -1.0720  1.3257  0.1628
    1MOL   H370  370   5.377   2.345   4.994  3.3804  0.1070  0.1788
    1MOL   H371  371   5.408   2.416   4.695  2.5182 -1.1937 -0.9075
    1MOL   H372  372   5.287   2.301   4.746  0.3694 -0.3686 -0.5899
    1MOL   H373  373   5.504   2.168   4.830  2.0751 -0.3763 -0.1194
    1MOL   H374  374   5.581   2.307   4.763 -0.5022  0.8427  3.1086
    1MOL   H375  375   5.398   2.124   4.602  0.5518 -0.4433 -2.0657
    1MOL   H376  376   5.493   2.262   4.540  1.1199 -0.5786 -0.1245
    1MOL   H377  377   5.590   2.052   4.475 -0.2418  0.2242  0.1048
    1MOL   H378  378   5.701   2.113   4.606 -0.1749 -0.1648  1.8534
    1MOL   H379  379   5.588   1.993   4.645 -1.1273 -0.4984 -0.1762
    1MOL   C380  380   4.903   3.278   5.161 -0.4981 -0.1299 -0.7040
    1MOL   C381  381   4.790   3.353   5.092 -0.8385 -0.7695  0.0614
    1MOL   C382  382   4.702   3.254   5.019 -0.3499 -0.0293  0.2226
    1MOL   C383  383   4.628   3.149   5.097  0.4541  0.3225  0.3726
    1MOL   C384  384   4.536   3.054   5.014  0.5208  0.1461  0.6258
    1MOL   C385  385   4.605   2.924   4.973  0.4028 -0.4863  0.3444
    1MOL   C386  386   4.513   2.842   4.879  0.1213 -0.3598 -0.5576
    1MOL   C387  387   4.563   2.698   4.867  0.1622  0.3257 -0.4136
    1MOL   C388  388   4.670   2.662   4.759  0.1424  0.5512  1.1486
    1MOL   C389  389   4.679   2.510   4.746 -0.3803 -0.0379  0.9973
    1MOL   C390  390   4.608   2.461   4.611  0.2772 -0.0142  0.1074
    1MOL   C391  391   4.587   2.313   4.611 -0.0715 -0.0357 -0.1763
    1MOL   C392  392   4.479   2.262   4.702 -0.0030 -0.0371 -0.5715
    1MOL   C393  393   4.337   2.288   4.664  0.5028 -0.3228 -0.3728
    1MOL   H394  394   4.957   3.347   5.227  0.6624  0.3653 -2.1228
    1MOL   H395  395   4.851   3.222   5.238 -0.5702  0.2602 -0.4683
    1MOL   H396  396   4.834   3.418   5.016  0.8820  1.0768  2.5338
    1MOL   H397  397   4.754   3.215   4.932  0.9607 -1.4338  1.6016
    1MOL   H398  398   4.619   3.312   4.977 -1.1881  0.1664  2.0930
    1MOL   H399  399   4.565   3.187   5.178  0.6653  0.4826  0.4628
    1MOL   H400  400   4.700   3.088   5.151  0.3951 -1.3633 -1.3941
    1MOL   H401  401   4.522   3.102   4.917  0.6843 -0.6806  0.1798
    1MOL   H402  402   4.441   3.042   5.065 -0.3731 -0.8069 -1.2374
    1MOL   H403  403   4.629   2.866   5.062  1.2090 -0.7986 -0.0766
    1MOL   H404  404   4.700   2.948   4.925  0.6067 -0.7314  0.6254
    1MOL   H405  405   4.410   2.841   4.915  0.0286  1.1976 -0.7741
    1MOL   H406  406   4.504   2.889   4.782  1.2306  0.0942 -0.4422
    1MOL   H407  407   4.609   2.674   4.963 -1.1152  1.8409  0.5965
    1MOL   H408  408   4.475   2.635   4.852 -0.4727  1.8323 -3.2337
    1MOL   H409  409   4.641   2.694   4.660  0.9226 -1.1641  0.3484
    1MOL   H410  410   4.769   2.702   4.783  0.7523 -0.0973 -0.2663
    1MOL   H411  411   4.638   2.467   4.837 -2.3880 -1.4831 -0.5255
    1MOL   H412  412   4.778   2.465   4.743  0.6488  2.2893 -2.9446
    1MOL   H413  413   4.519   2.522   4.595  1.0250 -0.0980 -5.0105
    1MOL   H414  414   4.665   2.480   4.521  1.4787  0.1503  0.8912
    1MOL   H415  415   4.684   2.275   4.645 -0.2350  0.9974  1.4934
    1MOL   H416  416   4.574   2.271   4.511  0.0794 -3.6939  1.2515
    1MOL   H417  417   4.490   2.155   4.720  2.0793 -0.0045 -1.4788
    1MOL   H418  418   4.500   2.302   4.801  0.8188 -0.5068 -0.5506
    1MOL   H419  419   4.263   2.246   4.733 -0.4909 -0.2515 -1.3801
    1MOL   H420  420   4.316   2.259   4.561 -0.3553 -1.3611  0.0851
    1MOL   H421  421   4.325   2.396   4.661  1.2932 -0.1986  0.8327
    1MOL   C422  422   4.714   3.439   5.201  0.2217 -0.0474  0.4403
    1MOL   C423  423   4.779   3.547   5.280 -0.0465  0.0741 -0.4553
    1MOL   C424  424   4.842   3.663   5.198  1.1964 -0.1534 -0.2344
    1MOL   C425  425   4.752   3.770   5.136 -0.2782  0.1616  0.3726
    1MOL   C426  426   4.837   3.887   5.085 -0.2879 -0.1032 -0.3838
    1MOL   C427  427   4.757   3.986   4.999 -0.1438  0.3747 -0.1879
    1MOL   C428  428   4.667   4.088   5.076  0.1596 -0.0597 -0.2488
    1MOL   C429  429   4.536   4.138   5.014 -0.1211 -0.6956 -0.3596
    1MOL   C430  430   4.436   4.205   5.106  0.1547  0.5500 -0.5080
    1MOL   C431  431   4.312   4.260   5.020 -0.0845 -0.8449 -0.9232
    1MOL   C432  432   4.206   4.303   5.116 -0.1967  0.0170 -0.4587
    1MOL   C433  433   4.078   4.349   5.038  0.0331  0.1667  0.4516
    1MOL   C434  434   3.975   4.412   5.123  0.2265 -0.3006 -0.0197
    1MOL   C435  435   3.898   4.317   5.212  0.6931  0.7666 -0.6385
    1MOL   H436  436   4.663   3.364   5.261  1.8646 -1.0750  0.5842
    1MOL   H437  437   4.625   3.486   5.158 -0.3429 -0.2688  1.3493
    1MOL   H438  438   4.854   3.503   5.345 -1.2517 -0.7031  0.4370
    1MOL   H439  439   4.902   3.622   5.117 -1.6114 -0.2487 -2.3307
    1MOL   H440  440   4.913   3.716   5.262  0.5624  0.6238 -0.1608
    1MOL   H441  441   4.687   3.728   5.058  2.2502 -0.6974 -1.3381
    1MOL   H442  442   4.677   3.801   5.208 -1.2964 -0.3172 -0.4512
    1MOL   H443  443   4.925   3.847   5.035 -0.5528 -0.6414 -0.4206
    1MOL   H444  444   4.874   3.936   5.175  0.0845  0.8379 -1.0470
    1MOL   H445  445   4.694   3.942   4.921 -0.9022  4.1396 -1.7918
    1MOL   H446  446   4.831   4.042   4.941 -1.1410  0.6282 -1.2147
    1MOL   H447  447   4.644   4.055   5.177 -0.4901  3.0879  0.6991
    1MOL   H448  448   4.725   4.175   5.106  1.0833 -0.6442 -0.3351
    1MOL   H449  449   4.573   4.198   4.930  0.4537 -1.6046 -0.7600
    1MOL   H450  450   4.487   4.054   4.965  0.4214 -2.4003  1.9075
    1MOL   H451  451   4.396   4.141   5.185 -0.0884  0.3054 -0.8262
    1MOL   H452  452   4.471   4.294   5.156  0.0342  1.9204 -2.7943
    1MOL   H453  453   4.351   4.343   4.961 -1.3375  1.0400  0.8517
    1MOL   H454  454   4.271   4.187   4.950  3.8329 -2.5396 -1.6067
    1MOL   H455  455   4.179   4.216   5.177  0.6603 -0.4935 -0.8021
    1MOL   H456  456   4.227   4.388   5.179 -1.5714 -0.5469  0.7903
    1MOL   H457  457   4.042   4.271   4.971  0.6657 -0.9384  1.3807
    1MOL   H458  458   4.109   4.431   4.972  0.6672 -0.8964 -0.6049
    1MOL   H459  459   4.016   4.502   5.169 -0.4477  1.3476 -2.5150
    1MOL   H460  460   3.907   4.452   5.047 -0.2299  0.7029  0.8928
    1MOL   H461  461   3.821   4.375   5.263  0.1657 -1.0928  0.7443
    1MOL   H462  462   3.968   4.264   5.277 -0.5625 -2.6773 -1.9541
    1MOL   H463  463   3.856   4.234   5.155  1.0209 -1.0914  1.7059
    1MOL   C464  464   4.682   3.598   5.391  0.1852 -0.1429 -0.1105
    1MOL   C465  465   4.740   3.697   5.499  0.5612  0.0752 -0.0130
    1MOL   C466  466   4.637   3.774   5.579 -0.5573 -0.3605 -0.9342
    1MOL   C467  467   4.556   3.695   5.686  0.2866  0.5202 -0.0413
    1MOL   C468  468   4.422   3.756   5.714 -0.3206  0.7656  0.2785
    1MOL   C469  469   4.334   3.682   5.824  0.1828  0.0016 -0.6284
    1MOL   C470  470   4.201   3.743   5.840  1.1515  0.1297 -0.0601
    1MOL   C471  471   4.107   3.636   5.902  0.2889  0.2936 -0.1025
    1MOL   C472  472   4.084   3.511   5.810 -0.2697 -0.9347 -0.4129
    1MOL   C473  473   3.948   3.447   5.812 -0.0046 -0.0328 -0.4236
    1MOL   C474  474   3.918   3.345   5.703 -0.1207  0.3892  0.2586
    1MOL   C475  475   3.774   3.286   5.701 -0.0624  0.6832 -0.6718
    1MOL   C476  476   3.754   3.159   5.615 -0.6402 -0.1178 -0.0500
    1MOL   C477  477   3.613   3.112   5.587 -0.0195 -0.4073  0.2047
    1MOL   H478  478   4.648   3.512   5.448 -2.5229  0.6647 -0.4537
    1MOL   H479  479   4.593   3.637   5.343  0.5134  0.7147 -0.0256
    1MOL   H480  480   4.783   3.778   5.441  1.6483 -0.2513  0.3191
    1MOL   H481  481   4.704   3.850   5.619 -1.7038 -0.9320  2.2219
    1MOL   H482  482   4.560   3.823   5.521  0.5860  2.6061 -0.0556
    1MOL   H483  483   4.614   3.685   5.778 -1.1015 -2.2317  0.5836
    1MOL   H484  484   4.541   3.590   5.659  0.9120  0.1183  1.1256
    1MOL   H485  485   4.374   3.751   5.617 -0.4626  0.5808  0.3587
    1MOL   H486  486   4.421   3.863   5.732  1.2125  0.9739 -0.7913
    1MOL   H487  487   4.321   3.576   5.804  2.8051 -1.0131  2.5764
    1MOL   H488  488   4.390   3.669   5.917 -0.3604 -0.7538 -0.4038
    1MOL   H489  489   4.205   3.828   5.909 -4.4335  0.3981  0.1249
    1MOL   H490  490   4.158   3.773   5.744  0.7119  3.1017  0.9888
    1MOL   H491  491   4.151   3.608   5.998  0.0090  0.7516  0.1614
    1MOL   H492  492   4.008   3.675   5.924  0.7633  1.7429 -0.5012
    1MOL   H493  493   4.099   3.539   5.706 -0.3156  3.9592  0.7647
    1MOL   H494  494   4.152   3.430   5.836  1.7669  0.4015 -1.4099
    1MOL   H495  495   3.935   3.399   5.909  0.2909  2.7658  1.0336
    1MOL   H496  496   3.875   3.527   5.820  0.6569  0.3780  1.9778
    1MOL   H497  497   3.943   3.376   5.602  0.8971 -0.0677  0.3632
    1MOL   H498  498   3.989   3.268   5.734 -1.0608 -1.0982 -1.1978
    1MOL   H499  499   3.710   3.371   5.681  0.0316  1.2211  1.2528
    1MOL   H500  500   3.741   3.254   5.800  1.3881 -0.2826 -0.4766
    1MOL   H501  501   3.789   3.171   5.512 -0.3049  0.2023  0.1045
    1MOL   H502  502   3.813   3.081   5.663  0.8766  0.8222 -0.3540
    1MOL   H503  503   3.553   3.199   5.562  0.1754 -0.2720  0.2079
    1MOL   H504  504   3.599   3.070   5.487  0.4060 -1.0176  0.3916
    1MOL   H505  505   3.568   3.050   5.666  1.9712 -0.8702  1.0111
    1MOL   C506  506   4.851   3.633   5.591  0.0999 -0.0248  0.3513
    1MOL   C507  507   4.959   3.722   5.662  0.0089  0.8354 -0.4397
    1MOL   C508  508   5.015   3.657   5.793  0.0421  0.6056 -0.2004
    1MOL   C509  509   4.926   3.665   5.913  0.4843 -0.0425 -0.0927
    1MOL   C510  510   4.954   3.553   6.007 -0.0907  0.0362 -0.2735
    1MOL   C511  511   4.857   3.563   6.133  0.3319 -0.7519  0.7687
    1MOL   C512  512   4.904   3.470   6.243 -0.3571 -0.0043  0.2028
    1MOL   C513  513   4.847   3.493   6.382 -0.5324  0.3440  0.6817
    1MOL   C514  514   4.826   3.370   6.466 -0.1925 -0.1933  0.2263
    1MOL   C515  515   4.715   3.270   6.426 -1.3330  1.0589 -0.1187
    1MOL   C516  516   4.679   3.171   6.538 -0.3895 -0.7526  0.2878
    1MOL   C517  517   4.547   3.088   6.505  0.7222  0.3189  0.3352
    1MOL   C518  518   4.541   3.009   6.373 -0.7544  0.0120  0.4305
    1MOL   C519  519   4.426   2.914   6.373  1.0394  0.0021 -0.0412
    1MOL   H520  520   4.899   3.550   5.539 -1.4904 -0.7765  0.0655
    1MOL   H521  521   4.800   3.578   5.670 -1.2934 -0.7712 -1.0403
    1MOL   H522  522   4.908   3.813   5.694  0.2938  0.4649  1.1109
    1MOL   H523  523   5.024   3.555   5.755 -0.9068  1.0666 -1.6810
    1MOL   H524  524   5.112   3.699   5.821 -0.1158 -1.4792  3.9732
    1MOL   H525  525   4.939   3.763   5.960  0.4394 -0.2378  0.3356
    1MOL   H526  526   4.819   3.668   5.890 -0.1241 -1.7173  2.3106
    1MOL   H527  527   5.056   3.561   6.044  0.8364 -1.1485 -2.4732
    1MOL   H528  528   4.948   3.461   5.948  2.1425  1.1473 -2.3330
    1MOL   H529  529   4.754   3.543   6.102  0.4012  0.8421 -0.5888
    1MOL   H530  530   4.862   3.664   6.172  3.9132 -0.4102 -0.4047
    1MOL   H531  531   4.884   3.364   6.225  1.5223 -0.4791  0.8510
    1MOL   H532  532   5.013   3.470   6.247 -0.3155  0.3607 -0.6822
    1MOL   H533  533   4.757   3.555   6.384 -1.7227 -1.2669 -1.0634
    1MOL   H534  534   4.920   3.557   6.431 -1.3421  0.6971  1.4539
    1MOL   H535  535   4.799   3.407   6.565  0.5796  0.2514  0.2747
    1MOL   H536  536   4.922   3.318   6.477 -0.2417 -0.3469 -0.0688
    1MOL   H537  537   4.631   3.333   6.399 -1.5402  0.1207 -1.7620
    1MOL   H538  538   4.736   3.207   6.339 -1.8737  1.7113 -0.7290
    1MOL   H539  539   4.757   3.096   6.551  0.0771 -0.1013  1.2795
    1MOL   H540  540   4.672   3.220   6.635  0.1526  1.6315 -0.8620
    1MOL   H541  541   4.458   3.151   6.512  0.2983 -0.2079 -0.2930
    1MOL   H542  542   4.529   3.019   6.588  0.5064  1.0240  0.8886
    1MOL   H543  543   4.636   2.958   6.355 -1.1431 -0.4146 -0.4211
    1MOL   H544  544   4.536   3.081   6.291 -0.8505 -1.1650 -0.6107
    1MOL   H545  545   4.407   2.870   6.275  2.3661  1.6727 -1.0847
    1MOL   H546  546   4.439   2.835   6.447  1.1757  1.2164  1.2560
    1MOL   H547  547   4.340   2.972   6.408  1.3012  0.4396 -0.1188
    1MOL   C548  548   5.074   3.763   5.557  0.5362 -0.2625  0.2578
    1MOL   C549  549   5.209   3.819   5.597  0.5170 -0.9441  0.7694
    1MOL   C550  550   5.303   3.840   5.479 -0.3360 -0.1819 -0.1082
    1MOL   C551  551   5.343   3.718   5.395 -0.6276 -0.4461 -0.4449
    1MOL   C552  552   5.484   3.729   5.329 -0.1543  0.0063  0.1694
    1MOL   C553  553   5.505   3.630   5.215  0.7576  0.0583 -0.5236
    1MOL   C554  554   5.642   3.635   5.161  0.0073  0.0128 -0.6332
    1MOL   C555  555   5.652   3.571   5.021 -0.0619 -0.2908 -0.1087
    1MOL   C556  556   5.783   3.498   4.999 -0.2271 -0.9146 -0.1114
    1MOL   C557  557   5.790   3.432   4.864 -0.1046 -0.3226 -0.1996
    1MOL   C558  558   5.907   3.327   4.860  0.3492 -0.7226  0.7542
    1MOL   C559  559   6.042   3.397   4.844 -0.5991 -0.3768  0.2239
    1MOL   C560  560   6.160   3.308   4.867 -0.5200  1.2885  0.6955
    1MOL   C561  561   6.286   3.396   4.877  0.2232  0.2850  0.1831
    1MOL   H562  562   5.082   3.670   5.501 -2.2315 -0.7068  0.4935
    1MOL   H563  563   5.028   3.828   5.483  0.2285  0.0969  0.7542
    1MOL   H564  564   5.260   3.746   5.660  2.7001  0.0563  0.2225
    1MOL   H565  565   5.280   3.921   5.410  3.0179  1.6971  0.8467
    1MOL   H566  566   5.398   3.878   5.518 -0.2839 -1.3596  0.9450
    1MOL   H567  567   5.269   3.713   5.315 -3.7803  0.1786  2.3179
    1MOL   H568  568   5.327   3.629   5.457  1.5272 -0.0626  0.6787
    1MOL   H569  569   5.506   3.829   5.293  1.6346 -1.1107 -1.9443
    1MOL   H570  570   5.553   3.718   5.413  0.3566  1.1308 -0.0971
    1MOL   H571  571   5.435   3.653   5.134  0.0839 -1.0360 -0.2673
    1MOL   H572  572   5.484   3.526   5.240 -1.6965  0.5005 -0.6241
    1MOL   H573  573   5.696   3.730   5.158  0.1445  0.0187  1.5887
    1MOL   H574  574   5.694   3.572   5.233 -0.0461  2.6129  1.7622
    1MOL   H575  575   5.618   3.642   4.946  2.4685 -0.6188 -1.6281
    1MOL   H576  576   5.575   3.494   5.016  0.2406 -0.5743 -0.4791
    1MOL   H577  577   5.800   3.435   5.086 -0.7215 -1.7278 -0.5987
    1MOL   H578  578   5.872   3.560   4.984 -1.8689  1.4564 -0.3393
    1MOL   H579  579   5.699   3.375   4.844  0.7595 -1.5622 -0.7012
    1MOL   H580  580   5.814   3.502   4.784  1.1201 -1.0992 -0.5266
    1MOL   H581  581   5.888   3.262   4.774  1.5658 -0.4606  0.2826
    1MOL   H582  582   5.906   3.264   4.948 -3.0623  0.8563  1.9335
    1MOL   H583  583   6.044   3.451   4.749 -0.0386 -0.9363 -0.0839
    1MOL   H584  584   6.048   3.480   4.914 -2.7044  0.9966 -1.1502
    1MOL   H585  585   6.146   3.239   4.950  1.1152  0.4259  0.2782
    1MOL   H586  586   6.169   3.243   4.779  0.7509  2.2387  0.1108
    1MOL   H587  587   6.383   3.347   4.880 -1.3934 -3.0581 -0.5703
    1MOL   H588  588   6.286   3.459   4.788  1.1169  1.2158  0.8164
    1MOL   H589  589   6.271   3.462   4.963  0.2798 -1.7323  1.7702
    1MOL   C590  590   5.200   3.953   5.673 -0.2956  0.1610 -0.3229
    1MOL   C591  591   5.293   3.955   5.805  0.1721  0.2831  0.6018
    1MOL   C592  592   5.446   3.957   5.777  0.1821 -0.1765 -0.6430
    1MOL   C593  593   5.504   4.091   5.720  0.3760 -0.2576  0.5260
    1MOL   C594  594   5.655   4.093   5.708  0.4262  0.2680 -0.5030
    1MOL   C595  595   5.707   4.220   5.637  0.6721  0.2095  0.1457
    1MOL   C596  596   5.859   4.219   5.607 -0.2890 -0.3066 -0.2574
    1MOL   C597  597   5.905   4.334   5.512  0.3094 -0.3492 -0.1532
    1MOL   C598  598   5.812   4.358   5.387 -0.6851 -0.1565 -0.1041
    1MOL   C599  599   5.789   4.253   5.295  0.0551  0.4247 -0.2663
    1MOL   C600  600   5.691   4.290   5.179  0.2064  0.3799  0.0722
    1MOL   C601  601   5.660   4.171   5.084  1.0900 -0.7097 -0.2060
    1MOL   C602  602   5.556   4.212   4.971  0.1049  0.1488 -0.2592
    1MOL   C603  603   5.569   4.121   4.851 -0.8714 -0.3671 -0.5632
    1MOL   H604  604   5.095   3.969   5.698 -1.1162 -2.9679 -1.5974
    1MOL   H605  605   5.217   4.041   5.611  1.7105  0.6830  0.9051
    1MOL   H606  606   5.270   3.859   5.851 -0.3155  0.3787  0.5534
    1MOL   H607  607   5.485   3.870   5.723 -0.3046 -0.3621 -0.7006
    1MOL   H608  608   5.499   3.940   5.871  2.0095  2.4599 -1.1519
    1MOL   H609  609   5.476   4.174   5.785 -2.2960 -2.5445  2.4144
    1MOL   H610  610   5.451   4.108   5.626 -3.0815  1.6528  2.7394
    1MOL   H611  611   5.682   4.005   5.648 -0.4089 -0.5891  0.3583
    1MOL   H612  612   5.703   4.077   5.804 -0.6942 -2.6531 -0.3520
    1MOL   H613  613   5.684   4.313   5.689  2.2599 -0.2613  1.7594
    1MOL   H614  614   5.653   4.229   5.543  0.7593 -0.7396  0.0017
    1MOL   H615  615   5.927   4.227   5.691 -0.9049 -0.7554  0.2877
    1MOL   H616  616   5.882   4.122   5.563  0.0836  0.4171 -1.7231
    1MOL   H617  617   5.907   4.427   5.568 -0.6944  0.3132 -1.1887
    1MOL   H618  618   6.005   4.311   5.477  0.1637 -0.0617 -0.7711
    1MOL   H619  619   5.715   4.392   5.422 -0.6807  1.6757 -1.7873
    1MOL   H620  620   5.853   4.438   5.325 -1.9315 -0.2660 -1.0904
    1MOL   H621  621   5.884   4.212   5.260  0.3349  1.1578 -0.3838
    1MOL   H622  622   5.736   4.172   5.344  1.2112 -1.2532 -1.7200
    1MOL   H623  623   5.741   4.361   5.113 -0.9265  1.4587  0.3450
    1MOL   H624  624   5.598   4.339   5.210  0.3115  1.6738 -1.5863
    1MOL   H625  625   5.636   4.078   5.136  1.3250 -0.1370  0.9196
    1MOL   H626  626   5.753   4.151   5.030  0.7391 -1.6035 -0.4890
    1MOL   H627  627   5.457   4.205   5.014 -0.1389 -1.4416 -1.0235
    1MOL   H628  628   5.580   4.312   4.935  0.8417 -0.2310 -0.8394
    1MOL   H629  629   5.495   4.153   4.777  0.1630  0.2855 -1.3290
    1MOL   H630  630   5.534   4.021   4.878  2.0261 -1.0601  0.8856
    1MOL   H631  631   5.669   4.126   4.808 -0.1448  0.5700  1.1745
    1MOL   C632  632   5.261   4.072   5.904  0.5372 -0.3979  0.2945
    1MOL   C633  633   5.136   4.054   5.988  0.2463 -0.0025 -0.1252
    1MOL   C634  634   5.181   3.995   6.128  0.1979  0.2881 -0.9548
    1MOL   C635  635   5.073   3.915   6.207 -0.6554  0.2338 -0.2486
    1MOL   C636  636   5.068   3.963   6.355 -0.0495 -0.0531  0.5200
    1MOL   C637  637   4.946   3.902   6.428  0.3522 -0.3046  0.5664
    1MOL   C638  638   4.816   3.976   6.400 -0.3011  0.7986  0.2175
    1MOL   C639  639   4.788   4.095   6.488  0.2940  0.5567  0.2531
    1MOL   C640  640   4.641   4.154   6.462 -0.8201  0.9044 -0.2643
    1MOL   C641  641   4.581   4.242   6.576  0.2182  0.0716  0.0244
    1MOL   C642  642   4.441   4.302   6.550 -0.0149 -0.0312  0.2131
    1MOL   C643  643   4.416   4.421   6.651  0.4219 -0.3343  0.3150
    1MOL   C644  644   4.287   4.484   6.617 -0.6414  0.2954  0.4214
    1MOL   C645  645   4.232   4.561   6.730  0.1692  0.2017  0.3393
    1MOL   H646  646   5.254   4.163   5.845 -1.6804  0.6107  2.0502
    1MOL   H647  647   5.340   4.093   5.976  1.5520 -0.9523 -0.6341
    1MOL   H648  648   5.070   3.978   5.946 -1.7665  1.3834  0.4847
    1MOL   H649  649   5.276   3.941   6.133  0.8180  1.4109 -0.2872
    1MOL   H650  650   5.206   4.083   6.188 -2.7863 -1.0560  2.3973
    1MOL   H651  651   5.090   3.808   6.196  0.6621  0.6175 -2.1012
    1MOL   H652  652   4.979   3.939   6.157 -1.8735 -0.8037  1.4728
    1MOL   H653  653   5.070   4.072   6.356 -0.0866 -0.0447  1.9540
    1MOL   H654  654   5.161   3.925   6.399 -0.5057 -1.5020  0.2820
    1MOL   H655  655   4.946   3.800   6.389  0.9238 -0.4284  0.8912
    1MOL   H656  656   4.968   3.917   6.533  2.0522  0.9084  0.0540
    1MOL   H657  657   4.803   4.002   6.295 -0.2617  0.9410  0.2473
    1MOL   H658  658   4.735   3.907   6.423 -0.0189 -0.3217 -1.9952
    1MOL   H659  659   4.867   4.165   6.459  0.7400 -0.2746 -0.5446
    1MOL   H660  660   4.797   4.070   6.594 -2.1194 -0.2532  0.2786
    1MOL   H661  661   4.573   4.070   6.447 -1.6653  1.4700  0.3784
    1MOL   H662  662   4.631   4.207   6.367 -0.2832 -0.0786 -0.8823
    1MOL   H663  663   4.594   4.183   6.667  1.2411 -0.5109 -0.4809
    1MOL   H664  664   4.646   4.325   6.602  1.3815 -0.6117 -0.6285
    1MOL   H665  665   4.420   4.342   6.451  0.8052  1.1895  0.5266
    1MOL   H666  666   4.371   4.219   6.564 -0.0460  0.2092  1.5464
    1MOL   H667  667   4.500   4.490   6.654  0.7618 -0.6057 -2.2596
    1MOL   H668  668   4.402   4.384   6.753  4.0858 -3.3792 -0.1621
    1MOL   H669  669   4.208   4.412   6.595 -0.3388 -0.1551  0.7946
    1MOL   H670  670   4.291   4.551   6.531 -0.8459  0.5776  0.6287
    1MOL   H671  671   4.220   4.506   6.823 -0.8949 -1.6641 -0.8560
    1MOL   H672  672   4.296   4.645   6.753  0.3887  0.0844  0.1567
    1MOL   H673  673   4.132   4.596   6.705 -0.0323 -0.3798  0.3271
    1MOL   C674  674   5.058   4.185   6.002 -0.5878  0.1676  0.3055
    1MOL   C675  675   4.960   4.213   5.885 -0.0763 -0.0718  0.4120
    1MOL   C676  676   4.850   4.113   5.869 -0.2385 -0.5596 -0.1141
    1MOL   C677  677   4.749   4.099   5.984 -0.1283 -0.0452  0.2469
    1MOL   C678  678   4.657   3.979   5.962 -0.0522 -0.6306  0.1368
    1MOL   C679  679   4.532   4.000   6.042 -0.4647  0.8426  0.3186
    1MOL   C680  680   4.425   4.070   5.969 -0.5653  0.1647  0.5154
    1MOL   C681  681   4.304   4.116   6.059 -0.1230 -1.0053 -0.2152
    1MOL   C682  682   4.170   4.158   5.983  0.1678  1.1258 -0.2724
    1MOL   C683  683   4.189   4.265   5.882 -0.2774  0.6833  0.5175
    1MOL   C684  684   4.216   4.397   5.943  0.4169  0.1846 -0.2825
    1MOL   C685  685   4.088   4.461   6.006 -0.7830  0.2739  0.0932
    1MOL   C686  686   4.108   4.599   6.063 -0.0626  0.5355 -0.3919
    1MOL   C687  687   4.205   4.599   6.186 -0.1749 -0.4227 -0.2559
    1MOL   H688  688   5.128   4.267   6.014  0.5597 -0.8933  1.0331
    1MOL   H689  689   5.002   4.174   6.095 -1.3670 -0.2746 -0.2098
    1MOL   H690  690   5.016   4.206   5.792  1.2300 -0.4150  1.2053
    1MOL   H691  691   4.800   4.132   5.774  2.6607 -0.1894 -1.6177
    1MOL   H692  692   4.885   4.012   5.847  1.3048 -0.5390  2.1133
    1MOL   H693  693   4.798   4.093   6.081 -1.6388  1.6415  1.1492
    1MOL   H694  694   4.690   4.190   5.997  0.4166  0.3393  0.0588
    1MOL   H695  695   4.631   3.966   5.857 -0.1503  3.2663 -0.3870
    1MOL   H696  696   4.711   3.890   5.994  0.6292 -1.2658 -2.6640
    1MOL   H697  697   4.501   3.902   6.078  0.3468  0.1948 -0.7148
    1MOL   H698  698   4.550   4.060   6.131  0.6784  1.2882 -0.2004
    1MOL   H699  699   4.457   4.163   5.922  1.2386  0.3213  1.9913
    1MOL   H700  700   4.382   4.015   5.885  0.6329  0.7106 -0.4736
    1MOL   H701  701   4.277   4.031   6.121 -1.8169  0.0122  0.4669
    1MOL   H702  702   4.339   4.194   6.126 -1.6279  0.2669 -0.9107
    1MOL   H703  703   4.127   4.072   5.932  0.0880  1.5111 -0.8582
    1MOL   H704  704   4.096   4.194   6.055  0.9944 -1.1256  1.7784
    1MOL   H705  705   4.105   4.271   5.812 -0.9777 -0.8671  1.2136
    1MOL   H706  706   4.265   4.228   5.814 -0.3703  0.3708  0.5835
    1MOL   H707  707   4.257   4.464   5.868 -2.1049  0.4074 -1.5110
    1MOL   H708  708   4.304   4.390   6.007  0.7552 -1.5352 -0.9016
    1MOL   H709  709   4.046   4.399   6.085  0.0065  1.1663  1.2089
    1MOL   H710  710   4.004   4.460   5.935 -0.6331 -0.0395 -0.0845
    1MOL   H711  711   4.148   4.666   5.987  0.0450 -0.7208 -1.4549
    1MOL   H712  712   4.012   4.639   6.096 -0.8694  0.4525 -2.5577
    1MOL   H713  713   4.219   4.699   6.227 -1.8843 -0.7792  1.2602
    1MOL   H714  714   4.159   4.552   6.273  0.8080 -0.3171  0.3261
    1MOL   H715  715   4.298   4.549   6.162  1.5390  2.2392  0.5928
    1MOL   C716  716   4.912   4.358   5.904  1.0569  0.1601  0.1887
    1MOL   C717  717   4.792   4.414   5.811 -0.1601 -0.6154 -0.0738
    1MOL   C718  718   4.746   4.555   5.856  0.5231 -0.1171  0.7753
    1MOL   C719  719   4.688   4.562   6.002  0.1857 -0.2822 -0.1672
    1MOL   C720  720   4.593   4.678   6.033  0.4476 -0.4328 -0.6501
    1MOL   C721  721   4.675   4.805   6.064  0.2694 -0.4397  0.3792
    1MOL   C722  722   4.580   4.929   6.084  0.3176 -0.2317 -0.1725
    1MOL   C723  723   4.665   5.050   6.133  0.2072 -0.0516 -0.5305
    1MOL   C724  724   4.588   5.181   6.135 -0.2926 -1.0827 -0.0323
    1MOL   C725  725   4.686   5.296   6.150 -0.2839 -0.6772 -0.3741
    1MOL   C726  726   4.628   5.439   6.120 -0.0633  0.1215 -0.3963
    1MOL   C727  727   4.731   5.552   6.106  0.5086 -0.3009 -0.4951
    1MOL   C728  728   4.819   5.598   6.228 -0.6874 -0.1663  0.6110
    1MOL   C729  729   4.743   5.670   6.335 -0.0101 -0.1581  0.3053
    1MOL   H730  730   4.894   4.365   6.012  0.1371  0.9412 -0.0218
    1MOL   H731  731   4.991   4.430   5.884  1.5157 -0.6651 -1.0250
    1MOL   H732  732   4.705   4.352   5.834 -1.0651  0.9812  0.8968
    1MOL   H733  733   4.676   4.578   5.775  1.5398  0.6917  0.1131
    1MOL   H734  734   4.824   4.629   5.838  0.0812  0.1078 -0.3108
    1MOL   H735  735   4.626   4.472   6.010  0.8492 -0.6622  0.8672
    1MOL   H736  736   4.757   4.545   6.085  1.4377  1.9064 -0.7413
    1MOL   H737  737   4.533   4.701   5.945  0.1943  3.1196  0.4000
    1MOL   H738  738   4.524   4.664   6.117 -0.2427  0.9829 -0.9573
    1MOL   H739  739   4.742   4.797   6.150  0.6390 -1.4754 -0.0066
    1MOL   H740  740   4.742   4.828   5.982 -0.3761 -0.0886 -0.0593
    1MOL   H741  741   4.540   4.952   5.986 -1.9749 -0.9020  0.5606
    1MOL   H742  742   4.494   4.909   6.148  1.1034 -1.5636  0.5051
    1MOL   H743  743   4.750   5.048   6.065  0.3349 -0.3409 -0.3631
    1MOL   H744  744   4.702   5.031   6.234  0.2377 -0.5577 -0.6387
    1MOL   H745  745   4.542   5.197   6.037  0.0456 -1.0149 -0.1802
    1MOL   H746  746   4.508   5.179   6.208  0.6760 -1.6489  1.0260
    1MOL   H747  747   4.734   5.306   6.248  0.7939  0.6116 -1.0360
    1MOL   H748  748   4.760   5.279   6.072  1.1716 -1.9070  1.2276
    1MOL   H749  749   4.571   5.437   6.027  0.9290  2.6588 -1.0795
    1MOL   H750  750   4.567   5.483   6.199  0.0075 -0.5939  0.0685
    1MOL   H751  751   4.808   5.516   6.038 -0.5985 -2.4979 -0.6391
    1MOL   H752  752   4.690   5.625   6.038 -0.2587  0.2208  0.5084
    1MOL   H753  753   4.901   5.660   6.192 -2.1633  0.5851 -1.5810
    1MOL   H754  754   4.871   5.513   6.272 -1.7483  0.7014  3.6006
    1MOL   H755  755   4.719   5.773   6.309  1.3578  0.2406  0.5565
    1MOL   H756  756   4.796   5.670   6.430  0.1842  0.6111  0.2074
    1MOL   H757  757   4.647   5.619   6.339  0.5828 -1.2122  1.1407
    1MOL   C758  758   4.825   4.405   5.654 -0.4727 -0.2064 -0.3317
    1MOL   C759  759   4.695   4.398   5.571 -0.0096  0.2435  0.4656
    1MOL   C760  760   4.725   4.434   5.421  0.7514  0.2928 -0.0965
    1MOL   C761  761   4.757   4.581   5.400 -0.6763 -0.3902 -0.3007
    1MOL   C762  762   4.793   4.606   5.257  0.4220  0.1893 -0.0997
    1MOL   C763  763   4.835   4.756   5.245 -0.1516  0.3471 -0.4083
    1MOL   C764  764   4.712   4.839   5.200 -0.7825 -0.0718 -0.4604
    1MOL   C765  765   4.739   4.990   5.201  0.1337  0.7599  0.5191
    1MOL   C766  766   4.614   5.068   5.165  0.7146 -0.2192 -0.4788
    1MOL   C767  767   4.507   5.056   5.269 -0.0822  0.1546 -0.1032
    1MOL   C768  768   4.408   5.174   5.251  0.2989 -0.2115  0.4118
    1MOL   C769  769   4.314   5.185   5.371  0.3661  0.1488 -0.4734
    1MOL   C770  770   4.383   5.265   5.481  0.3676 -0.4559  0.4834
    1MOL   C771  771   4.309   5.248   5.620 -0.1462  0.2498 -0.2725
    1MOL   H772  772   4.888   4.489   5.625  1.4169 -1.3136  0.4662
    1MOL   H773  773   4.886   4.318   5.628 -0.2964 -0.2286  0.1643
    1MOL   H774  774   4.616   4.468   5.597 -0.8534  0.1478 -1.7263
    1MOL   H775  775   4.807   4.378   5.378 -0.2180  0.2607 -1.9754
    1MOL   H776  776   4.637   4.413   5.361  1.7421 -0.1311 -1.4117
    1MOL   H777  777   4.665   4.636   5.423 -0.8467 -1.2096  1.0493
    1MOL   H778  778   4.831   4.620   5.469  0.4058 -0.8927 -1.1658
    1MOL   H779  779   4.716   4.579   5.184  0.2086  2.0794 -0.6074
    1MOL   H780  780   4.884   4.549   5.241  1.7286  2.1864  0.1127
    1MOL   H781  781   4.907   4.761   5.162 -1.6537  1.1148 -1.6888
    1MOL   H782  782   4.873   4.792   5.340 -0.7957 -3.6378  1.4532
    1MOL   H783  783   4.674   4.814   5.101 -1.2306  2.0244 -0.8518
    1MOL   H784  784   4.630   4.810   5.266 -0.0202  1.1062  1.0535
    1MOL   H785  785   4.826   5.008   5.139  1.9335 -3.5578  1.6309
    1MOL   H786  786   4.783   5.015   5.298 -3.1379 -0.2033  2.3283
    1MOL   H787  787   4.572   5.017   5.079 -1.4244  1.6273 -0.5545
    1MOL   H788  788   4.643   5.169   5.137 -1.6849  0.3118 -1.1229
    1MOL   H789  789   4.555   5.052   5.366  2.0136  0.8712 -1.0802
    1MOL   H790  790   4.442   4.969   5.271  2.0424 -1.4490  1.1353
    1MOL   H791  791   4.475   5.260   5.247 -2.1136  1.7613  1.0250
    1MOL   H792  792   4.356   5.172   5.155 -0.8904  2.1368  0.9720
    1MOL   H793  793   4.225   5.243   5.348 -0.5106 -0.3407  1.5920
    1MOL   H794  794   4.280   5.085   5.398 -0.2978  0.3415 -0.5728
    1MOL   H795  795   4.481   5.218   5.497  0.2331 -0.2430  1.9832
    1MOL   H796  796   4.387   5.373   5.464  0.4704 -0.3181  1.3999
    1MOL   H797  797   4.360   5.303   5.699  0.3912 -1.4714  0.6066
    1MOL   H798  798   4.202   5.270   5.622  0.0400  1.4210 -2.0417
    1MOL   H799  799   4.308   5.145   5.653  0.2648  1.0045  2.1966
    1MOL   C800  800   4.634   4.251   5.576  0.5149 -0.1493 -0.1219
    1MOL   C801  801   4.494   4.245   5.521  0.0010 -0.0097 -0.2887
    1MOL   C802  802   4.426   4.111   5.545 -0.4544  0.4293  0.4963
    1MOL   C803  803   4.281   4.137   5.505 -0.0846  0.0505 -0.2340
    1MOL   C804  804   4.195   4.015   5.541  0.0160  0.2572 -0.3382
    1MOL   C805  805   4.074   4.009   5.446 -0.3602 -0.0866 -0.1990
    1MOL   C806  806   3.997   3.878   5.450  0.6597 -0.1357 -0.8780
    1MOL   C807  807   3.904   3.861   5.575  0.2701 -0.1062  0.7624
    1MOL   C808  808   3.811   3.735   5.568  0.2069  0.9139 -0.2830
    1MOL   C809  809   3.717   3.729   5.447 -0.1505 -0.0861 -0.2659
    1MOL   C810  810   3.630   3.604   5.446  0.5014  0.6422  0.6845
    1MOL   C811  811   3.510   3.611   5.342 -0.1124  0.4227  0.0003
    1MOL   C812  812   3.429   3.479   5.323 -0.3225  0.2508 -0.7019
    1MOL   C813  813   3.323   3.492   5.214  0.2867 -0.4151 -0.5215
    1MOL   H814  814   4.618   4.227   5.681 -0.3145 -0.8177 -0.3942
    1MOL   H815  815   4.701   4.187   5.519  0.9121  1.2399 -1.2335
    1MOL   H816  816   4.499   4.251   5.412 -1.8180 -1.7152 -0.4889
    1MOL   H817  817   4.449   4.079   5.647  0.7809  1.0754  0.4312
    1MOL   H818  818   4.468   4.037   5.478  2.5889  1.4591  1.1581
    1MOL   H819  819   4.265   4.157   5.399 -1.6332 -0.8623 -0.1816
    1MOL   H820  820   4.241   4.226   5.552 -0.7736  0.6666 -1.9452
    1MOL   H821  821   4.258   3.926   5.536  0.3072  0.1732  3.4193
    1MOL   H822  822   4.170   4.016   5.647 -0.8518 -1.2067 -0.5152
    1MOL   H823  823   4.104   4.031   5.344  0.7005 -0.0330  0.1178
    1MOL   H824  824   4.018   4.095   5.483 -0.9990 -1.0715  1.2023
    1MOL   H825  825   3.925   3.885   5.368 -0.2662 -0.4451 -0.1072
    1MOL   H826  826   4.068   3.797   5.435 -0.4240 -1.4984  1.1832
    1MOL   H827  827   3.966   3.849   5.663  0.4469  1.1845  0.8213
    1MOL   H828  828   3.844   3.950   5.589  1.4711  0.8630 -0.2000
    1MOL   H829  829   3.885   3.657   5.551 -0.5137  0.3634 -0.9576
    1MOL   H830  830   3.752   3.714   5.657  0.7805  0.5579  0.0164
    1MOL   H831  831   3.753   3.744   5.345  2.0971 -1.1612  0.3454
    1MOL   H832  832   3.650   3.813   5.464  0.0048 -0.0384  0.1045
    1MOL   H833  833   3.702   3.524   5.431  0.9809  0.7968  2.0492
    1MOL   H834  834   3.597   3.591   5.549  0.0625  2.1896  0.7514
    1MOL   H835  835   3.550   3.639   5.245 -0.3475 -2.0013 -0.8292
    1MOL   H836  836   3.446   3.694   5.370 -0.1886  0.5914 -0.6673
    1MOL   H837  837   3.499   3.397   5.303 -2.1757 -1.3698 -0.7125
    1MOL   H838  838   3.376   3.452   5.414 -3.6784  0.0624 -2.6545
    1MOL   H839  839   3.267   3.398   5.214  0.2553 -0.4431  2.2357
    1MOL   H840  840   3.260   3.578   5.235  3.1502  1.6340 -0.0845
    1MOL   H841  841   3.371   3.499   5.116 -0.7018 -0.4194 -1.0138
    1MOL   H842  842   4.435   4.330   5.556 -1.5899 -0.3369 -2.0917
    2MOL     C1  843   6.888   1.709   4.968 -0.3181 -0.4093  0.7589
    2MOL     C2  844   6.756   1.645   5.022  0.1097  0.6874 -0.0212
    2MOL     C3  845   6.639   1.741   4.980  0.6417 -0.2922  0.4123
    2MOL     C4  846   6.639   1.868   5.050 -0.1689 -0.3918 -0.1072
    2MOL     C5  847   6.508   1.953   5.037  0.1519  0.0232 -0.2750
    2MOL     C6  848   6.509   2.085   5.120  0.5017  0.2929  0.3747
    2MOL     C7  849   6.375   2.166   5.104  0.7505 -0.6940 -0.2740
    2MOL     C8  850   6.381   2.287   5.192 -0.4621 -0.6306 -0.4972
    2MOL     C9  851   6.484   2.393   5.149 -0.4844  1.0510  0.4604
    2MOL    C10  852   6.461   2.530   5.208  0.1896 -0.7081 -0.1684
    2MOL    C11  853   6.496   2.541   5.363 -0.4227 -1.1149 -0.0042
    2MOL    C12  854   6.484   2.685   5.413 -0.1324 -0.2920 -0.4944
    2MOL    C13  855   6.494   2.697   5.564 -0.3625 -0.3280 -0.5641
    2MOL    C14  856   6.481   2.840   5.626 -0.4965  0.5174  0.0031
    2MOL    H15  857   6.973   1.643   4.985 -1.0095 -1.1279  1.4569
    2MOL    H16  858   6.907   1.795   5.032 -2.6024  1.1120 -0.5144
    2MOL    H17  859   6.762   1.632   5.130  1.2711  0.7871 -0.0689
    2MOL    H18  860   6.626   1.757   4.873 -1.5052  0.5035  0.7648
    2MOL    H19  861   6.544   1.700   5.014  1.3474 -0.6564  1.9892
    2MOL    H20  862   6.724   1.921   5.007 -0.2153  1.4601  2.0248
    2MOL    H21  863   6.668   1.845   5.152  0.2028  0.9687  0.1073
    2MOL    H22  864   6.426   1.893   5.076 -0.4675  2.3340  2.1565
    2MOL    H23  865   6.482   1.994   4.940  0.2274  0.4112 -0.1331
    2MOL    H24  866   6.590   2.139   5.071 -0.8013 -0.0381 -2.2324
    2MOL    H25  867   6.528   2.073   5.227 -0.2170 -0.4155  0.4324
    2MOL    H26  868   6.360   2.184   4.997 -0.3020  1.1590  0.1530
    2MOL    H27  869   6.280   2.116   5.118 -0.0236  0.8330  0.0635
    2MOL    H28  870   6.406   2.255   5.293  1.1415  2.1762  0.0309
    2MOL    H29  871   6.278   2.323   5.200 -0.0804  0.4092 -0.2397
    2MOL    H30  872   6.575   2.344   5.182 -0.5810 -0.0024 -0.7928
    2MOL    H31  873   6.491   2.392   5.040  0.9664  1.1364  0.5536
    2MOL    H32  874   6.532   2.598   5.161  1.5189 -0.1977  2.4591
    2MOL    H33  875   6.361   2.566   5.181 -0.6061 -2.6892  0.0335
    2MOL    H34  876   6.422   2.481   5.415 -1.5380 -0.7314 -1.1148
    2MOL    H35  877   6.595   2.505   5.392 -0.3702 -1.3829 -0.5059
    2MOL    H36  878   6.397   2.743   5.384  0.2397  1.1735  1.2424
    2MOL    H37  879   6.567   2.742   5.369 -0.5004  0.6119 -0.0254
    2MOL    H38  880   6.411   2.635   5.596 -0.2631 -0.2056 -0.0633
    2MOL    H39  881   6.586   2.649   5.599  0.6318  1.8113 -0.1462
    2MOL    H40  882   6.552   2.910   5.581 -0.9297  0.7232 -0.3638
    2MOL    H41  883   6.379   2.877   5.616 -1.3367 -1.4143  1.2124
    2MOL    H42  884   6.501   2.823   5.732 -1.0086 -1.2634 -0.1769
    2MOL    H43  885   6.890   1.746   4.865 -0.9534  1.3716  1.3617
    2MOL    C44  886   6.750   1.500   4.960 -0.5405  0.2661  0.1711
    2MOL    C45  887   6.610   1.423   4.977  0.4703  0.2974  0.4915
    2MOL    C46  888   6.636   1.263   4.972  0.2527 -0.4330 -0.3533
    2MOL    C47  889   6.710   1.216   5.093  0.2640  0.7771  0.2809
    2MOL    C48  890   6.694   1.059   5.117  0.0401 -0.2070  0.2595
    2MOL    C49  891   6.721   1.013   5.260  0.2291 -0.9213  0.2267
    2MOL    C50  892   6.867   1.026   5.311 -0.3666  0.1821  0.6098
    2MOL    C51  893   6.897   0.976   5.454  0.0744 -0.7059  0.0555
    2MOL    C52  894   7.046   0.972   5.470  0.4790 -1.3000 -0.4434
    2MOL    C53  895   7.110   0.850   5.424 -0.0557  0.5250  0.1453
    2MOL    C54  896   7.268   0.838   5.430  0.2916  0.2165  0.5615
    2MOL    C55  897   7.341   0.954   5.358 -0.1209  0.1732  0.3697
    2MOL    C56  898   7.495   0.933   5.358  0.1851 -0.1061  0.0810
    2MOL    C57  899   7.543   0.829   5.263 -0.7085 -0.5987 -0.1017
    2MOL    H58  900   6.775   1.509   4.854 -1.2789  0.6321  0.0241
    2MOL    H59  901   6.831   1.447   5.010 -1.7391 -0.1981  1.6428
    2MOL    H60  902   6.569   1.442   5.076 -0.9137  2.0336 -0.3741
    2MOL    H61  903   6.535   1.223   4.979 -0.6379  1.5922 -1.0802
    2MOL    H62  904   6.686   1.228   4.882  0.4279 -0.5480 -0.2137
    2MOL    H63  905   6.665   1.270   5.176 -0.0560  0.4665  0.3134
    2MOL    H64  906   6.816   1.244   5.095  0.7725 -1.0239 -0.4279
    2MOL    H65  907   6.768   1.011   5.053 -0.1597  0.1547 -0.2416
    2MOL    H66  908   6.598   1.015   5.088  0.7863 -2.0914  0.6063
    2MOL    H67  909   6.643   1.057   5.322 -0.1831 -1.8421  0.3676
    2MOL    H68  910   6.696   0.907   5.266 -0.6595 -0.6997  0.4450
    2MOL    H69  911   6.927   0.982   5.231  0.1264 -0.0696  1.1129
    2MOL    H70  912   6.892   1.132   5.306  1.3191 -0.2639 -0.8223
    2MOL    H71  913   6.860   0.874   5.457 -2.1015  0.0206 -0.8513
    2MOL    H72  914   6.849   1.034   5.532 -0.2060 -0.6206 -0.1775
    2MOL    H73  915   7.094   1.061   5.430 -1.6679  0.6226  1.1268
    2MOL    H74  916   7.076   0.984   5.574 -0.4120  0.1319 -0.3453
    2MOL    H75  917   7.081   0.805   5.329  0.5537  0.5095 -0.0331
    2MOL    H76  918   7.076   0.781   5.501  1.2225 -1.1391 -0.7537
    2MOL    H77  919   7.300   0.736   5.408 -0.0139  0.2915 -0.2339
    2MOL    H78  920   7.299   0.845   5.534 -0.4527 -0.1280  0.8051
    2MOL    H79  921   7.301   0.947   5.257 -0.7949  0.4386  0.6146
    2MOL    H80  922   7.319   1.048   5.410 -1.6416 -1.3485  2.5677
    2MOL    H81  923   7.537   0.908   5.456  2.6304 -1.0278 -1.1702
    2MOL    H82  924   7.540   1.030   5.335 -0.2840  0.0217 -0.3016
    2MOL    H83  925   7.649   0.841   5.242 -0.6947  0.9626  0.7758
    2MOL    H84  926   7.493   0.848   5.167  0.5253  0.5062 -0.5355
    2MOL    H85  927   7.515   0.725   5.281 -1.3510 -0.4138  0.0057
    2MOL    C86  928   6.508   1.461   4.861 -0.4305 -0.4053  0.0005
    2MOL    C87  929   6.355   1.437   4.890 -0.3046 -0.1029 -0.2758
    2MOL    C88  930   6.274   1.441   4.761 -0.2743  0.1851 -0.0564
    2MOL    C89  931   6.287   1.309   4.683  0.2053  0.3318 -0.2483
    2MOL    C90  932   6.261   1.326   4.533 -0.3022  0.8476 -0.4974
    2MOL    C91  933   6.328   1.208   4.454  0.3474 -0.0288 -0.1348
    2MOL    C92  934   6.341   1.235   4.299 -0.9989 -0.9080  0.1227
    2MOL    C93  935   6.399   1.118   4.219  0.5028 -0.0996  0.7117
    2MOL    C94  936   6.425   1.132   4.064  0.0437  0.6280 -1.0194
    2MOL    C95  937   6.541   1.233   4.033  0.3469 -0.3067 -0.0530
    2MOL    C96  938   6.599   1.209   3.896 -0.2955  0.3125  0.7555
    2MOL    C97  939   6.686   1.326   3.848  0.2585  0.5077  1.0532
    2MOL    C98  940   6.751   1.303   3.711 -0.1464  0.3172  0.3411
    2MOL    C99  941   6.890   1.364   3.696 -0.0173 -0.3821 -0.2101
    2MOL   H100  942   6.510   1.567   4.835  1.2251 -0.4694 -0.2242
    2MOL   H101  943   6.548   1.422   4.767  0.6477  2.4681 -0.7998
    2MOL   H102  944   6.350   1.332   4.921 -0.5783  0.5470  1.9597
    2MOL   H103  945   6.167   1.456   4.779 -0.3098  1.8563 -1.5639
    2MOL   H104  946   6.295   1.534   4.708 -0.4616 -0.0611 -0.5627
    2MOL   H105  947   6.383   1.262   4.699 -0.7661 -3.0188 -3.6234
    2MOL   H106  948   6.220   1.236   4.728  0.3007 -0.5567 -1.5166
    2MOL   H107  949   6.313   1.416   4.500  0.4409  0.6555  0.1409
    2MOL   H108  950   6.154   1.340   4.513 -0.3216 -1.1981 -1.9279
    2MOL   H109  951   6.278   1.113   4.470 -1.9055  1.0806 -0.3092
    2MOL   H110  952   6.430   1.203   4.494  0.0725 -0.8637  0.4647
    2MOL   H111  953   6.243   1.260   4.257 -0.7052  1.2412  0.6660
    2MOL   H112  954   6.400   1.323   4.276  0.9039 -1.9161  1.0692
    2MOL   H113  955   6.314   1.049   4.224 -1.8734  2.5269 -1.5429
    2MOL   H114  956   6.488   1.081   4.270 -0.6674 -2.0407  1.4399
    2MOL   H115  957   6.440   1.033   4.019 -0.9570 -0.3979  0.8361
    2MOL   H116  958   6.330   1.167   4.023 -0.1254 -0.0884 -1.2457
    2MOL   H117  959   6.620   1.218   4.107  0.7421  4.0513  0.5723
    2MOL   H118  960   6.508   1.337   4.040 -0.5906 -0.5223 -1.1730
    2MOL   H119  961   6.650   1.114   3.908 -0.1739  0.4623  1.4648
    2MOL   H120  962   6.515   1.203   3.827 -0.4748 -0.6183  1.0548
    2MOL   H121  963   6.627   1.417   3.836  0.2419  0.1939 -1.7746
    2MOL   H122  964   6.767   1.347   3.917  1.6873 -0.1683 -0.3889
    2MOL   H123  965   6.684   1.323   3.627  0.6493 -0.6788 -0.5370
    2MOL   H124  966   6.775   1.197   3.707  1.4759  0.6387  1.0154
    2MOL   H125  967   6.892   1.472   3.682  0.3266 -0.5912 -1.9051
    2MOL   H126  968   6.947   1.346   3.788 -0.9108 -1.9473  0.0580
    2MOL   H127  969   6.939   1.318   3.610  2.3052 -1.3473  1.5662
    2MOL   C128  970   6.293   1.520   5.002  0.2282 -0.0386 -0.2914
    2MOL   C129  971   6.154   1.470   5.058  0.6841  0.1474  1.1522
    2MOL   C130  972   6.168   1.358   5.155  0.1493 -0.4359  0.1714
    2MOL   C131  973   6.270   1.366   5.269 -0.1911  0.0505 -0.0140
    2MOL   C132  974   6.235   1.259   5.374 -0.0722 -0.2232  0.1037
    2MOL   C133  975   6.335   1.253   5.493  0.3184 -0.1489  0.6943
    2MOL   C134  976   6.261   1.216   5.624 -0.3521  0.3694  0.2747
    2MOL   C135  977   6.343   1.187   5.754 -0.0579  0.0915 -0.2817
    2MOL   C136  978   6.241   1.115   5.845  0.6201  0.3148 -0.3985
    2MOL   C137  979   6.296   1.091   5.990 -0.7185 -0.1930  0.0096
    2MOL   C138  980   6.201   1.022   6.087  0.8064  0.1589  0.0455
    2MOL   C139  981   6.270   1.000   6.225 -0.4193  0.2454 -0.1076
    2MOL   C140  982   6.320   1.128   6.291 -0.2627  0.2229 -0.5317
    2MOL   C141  983   6.374   1.091   6.431 -0.1635  0.2641  0.2167
    2MOL   H142  984   6.357   1.524   5.090  1.7077 -0.0235 -1.3654
    2MOL   H143  985   6.290   1.624   4.971 -1.1636  0.8008  2.4611
    2MOL   H144  986   6.091   1.437   4.975  2.1695  1.3212 -0.4891
    2MOL   H145  987   6.069   1.331   5.190  0.0130 -0.0811  0.0675
    2MOL   H146  988   6.209   1.278   5.093 -0.0473  0.6026 -1.3522
    2MOL   H147  989   6.370   1.367   5.225 -0.6894 -1.3924 -1.2232
    2MOL   H148  990   6.266   1.459   5.325  2.5131  0.1536  0.0701
    2MOL   H149  991   6.139   1.292   5.413 -0.1723 -0.1327 -0.2195
    2MOL   H150  992   6.230   1.160   5.329 -0.2255  0.2914 -1.0235
    2MOL   H151  993   6.413   1.182   5.466  0.9300  0.2515  1.3960
    2MOL   H152  994   6.388   1.346   5.515 -0.8957  1.2395 -1.9254
    2MOL   H153  995   6.189   1.291   5.657  2.0599  3.4949 -1.2014
    2MOL   H154  996   6.207   1.127   5.592  2.5108 -0.6443 -1.9257
    2MOL   H155  997   6.433   1.127   5.737  0.5882  1.1189 -0.5542
    2MOL   H156  998   6.374   1.275   5.810 -0.5300  0.0615  0.0222
    2MOL   H157  999   6.150   1.175   5.853 -0.2665 -1.2795  2.1447
    2MOL   H158 1000   6.222   1.019   5.798 -2.3474 -0.2562  1.8415
    2MOL   H159 1001   6.341   1.184   6.026 -1.1405  1.0469 -2.5131
    2MOL   H160 1002   6.386   1.032   5.974 -0.2904  0.6246 -0.6279
    2MOL   H161 1003   6.117   1.091   6.104  0.1896 -0.5124 -0.2537
    2MOL   H162 1004   6.165   0.929   6.044  1.3135 -0.7668  1.6127
    2MOL   H163 1005   6.201   0.945   6.291  0.6943 -0.7039  0.2842
    2MOL   H164 1006   6.353   0.932   6.204 -0.2387  0.6849 -0.8405
    2MOL   H165 1007   6.391   1.177   6.224  0.8113  2.2783  2.0407
    2MOL   H166 1008   6.230   1.190   6.301 -1.9699 -2.0474 -1.2806
    2MOL   H167 1009   6.404   1.186   6.475 -0.6357  1.4229 -1.8846
    2MOL   H168 1010   6.302   1.040   6.494  1.1886  0.3447  1.8494
    2MOL   H169 1011   6.473   1.045   6.423 -1.0032 -1.5695  0.0691
    2MOL   C170 1012   6.087   1.591   5.111 -0.1449  0.0722  0.3512
    2MOL   C171 1013   5.933   1.581   5.112  0.3987 -0.0525 -0.7333
    2MOL   C172 1014   5.882   1.624   5.249  0.3637 -0.4165  0.1670
    2MOL   C173 1015   5.918   1.527   5.362  0.1294 -0.3450  0.4090
    2MOL   C174 1016   5.881   1.574   5.507 -0.4178 -0.2553  0.8551
    2MOL   C175 1017   5.955   1.501   5.624 -0.0924  0.4010  0.2864
    2MOL   C176 1018   5.935   1.573   5.757 -0.4126  0.1577 -0.4790
    2MOL   C177 1019   6.015   1.704   5.775 -0.1961  0.6908  0.2974
    2MOL   C178 1020   6.171   1.687   5.779  0.5649 -0.3312 -0.5594
    2MOL   C179 1021   6.200   1.614   5.911 -0.4940  0.3278  0.0775
    2MOL   C180 1022   6.345   1.620   5.966  0.8336 -0.1759 -0.0306
    2MOL   C181 1023   6.365   1.545   6.095  0.4195 -0.3755 -0.4091
    2MOL   C182 1024   6.490   1.592   6.175 -0.5020 -1.1702 -0.4027
    2MOL   C183 1025   6.452   1.602   6.325 -0.5772 -0.0994 -0.1200
    2MOL   H184 1026   6.104   1.684   5.056 -0.9088 -1.1868 -2.0403
    2MOL   H185 1027   6.123   1.612   5.212 -0.9007  0.3153  0.5724
    2MOL   H186 1028   5.898   1.480   5.094 -1.5882  0.7478 -1.4884
    2MOL   H187 1029   5.918   1.724   5.272 -1.8240  0.3374  0.5132
    2MOL   H188 1030   5.775   1.644   5.257  0.5607  0.5920  0.3722
    2MOL   H189 1031   5.862   1.437   5.337  0.3045 -0.1745 -0.6096
    2MOL   H190 1032   6.022   1.495   5.367  1.2355  3.0764  0.4313
    2MOL   H191 1033   5.907   1.679   5.517  0.2397 -0.2497 -0.7506
    2MOL   H192 1034   5.775   1.570   5.532 -0.4575 -0.5643  0.6412
    2MOL   H193 1035   6.063   1.503   5.608 -0.2661 -1.5450 -1.3241
    2MOL   H194 1036   5.931   1.395   5.634 -3.0104  0.8814 -1.2871
    2MOL   H195 1037   5.968   1.500   5.832 -0.7075 -1.8878 -2.2766
    2MOL   H196 1038   5.830   1.597   5.768 -0.2137 -0.0373  2.3285
    2MOL   H197 1039   5.987   1.754   5.868 -1.6610 -0.7504  0.6640
    2MOL   H198 1040   5.979   1.773   5.699 -2.7612 -1.3905 -0.4375
    2MOL   H199 1041   6.213   1.788   5.782  2.1772 -0.9916 -0.3042
    2MOL   H200 1042   6.217   1.632   5.698  0.6552  0.5336 -1.1019
    2MOL   H201 1043   6.163   1.512   5.907  0.3253  0.0203  0.3804
    2MOL   H202 1044   6.134   1.659   5.987  0.8182 -0.0520  1.4706
    2MOL   H203 1045   6.354   1.726   5.988  0.5962 -0.8181  3.4710
    2MOL   H204 1046   6.421   1.599   5.890  0.0870  1.7301 -1.3170
    2MOL   H205 1047   6.278   1.576   6.154  0.5274  1.7749 -1.3274
    2MOL   H206 1048   6.350   1.438   6.083 -0.7467 -0.2149 -0.4154
    2MOL   H207 1049   6.579   1.528   6.173  1.3739  1.3583 -0.0753
    2MOL   H208 1050   6.533   1.684   6.136  0.7229 -0.5075  2.3687
    2MOL   H209 1051   6.361   1.659   6.340 -0.4737  0.4249 -1.3901
    2MOL   H210 1052   6.527   1.652   6.386  1.6544 -1.8162 -1.3410
    2MOL   H211 1053   6.445   1.501   6.365 -0.1385 -0.2793 -0.4972
    2MOL   C212 1054   5.878   1.669   4.991  0.2783  0.2176  0.4327
    2MOL   C213 1055   5.742   1.604   4.934 -0.2871  0.1695 -1.2383
    2MOL   C214 1056   5.650   1.712   4.875 -0.4043 -0.1528  0.4276
    2MOL   C215 1057   5.588   1.821   4.964 -0.3461  0.3250 -0.1870
    2MOL   C216 1058   5.440   1.857   4.922 -0.2176  0.3568 -0.5837
    2MOL   C217 1059   5.359   1.938   5.025  0.3772  0.1647  0.2205
    2MOL   C218 1060   5.234   1.998   4.980  0.5006 -0.3147 -0.0238
    2MOL   C219 1061   5.179   2.101   5.083 -0.5692  0.7386 -0.3114
    2MOL   C220 1062   5.074   2.194   5.022  0.0238  0.0447  0.4611
    2MOL   C221 1063   4.996   2.280   5.123  0.7752  0.1135  0.2094
    2MOL   C222 1064   4.922   2.398   5.056  0.6066  0.4633 -0.4948
    2MOL   C223 1065   4.848   2.491   5.155  0.5005  0.5660  0.1088
    2MOL   C224 1066   4.925   2.571   5.252  0.6487  0.2294  0.1861
    2MOL   C225 1067   4.840   2.674   5.338 -0.3149  0.7260 -0.4055
    2MOL   H226 1068   5.947   1.674   4.907 -0.2804 -2.6037 -0.2518
    2MOL   H227 1069   5.866   1.768   5.035  0.2597 -0.4231  1.9148
    2MOL   H228 1070   5.684   1.575   5.022 -1.1550 -3.2472 -2.8194
    2MOL   H229 1071   5.700   1.769   4.797  0.9903 -0.7828  0.8413
    2MOL   H230 1072   5.562   1.666   4.831 -0.2613  0.6068 -0.6846
    2MOL   H231 1073   5.664   1.899   4.970  0.9954 -0.8229 -1.7762
    2MOL   H232 1074   5.581   1.793   5.070 -0.0093  0.5996 -0.0901
    2MOL   H233 1075   5.387   1.766   4.896  1.6579 -0.7784 -0.5210
    2MOL   H234 1076   5.449   1.914   4.829 -0.2570  1.4229  0.0524
    2MOL   H235 1077   5.433   2.008   5.062  1.8992 -0.8754 -0.8033
    2MOL   H236 1078   5.334   1.892   5.121  2.8694 -0.6660  0.4993
    2MOL   H237 1079   5.247   2.049   4.885  2.6544  1.5898  1.2474
    2MOL   H238 1080   5.160   1.920   4.961  0.8220 -0.3849 -1.0379
    2MOL   H239 1081   5.142   2.038   5.164 -0.9716 -0.5284 -1.4587
    2MOL   H240 1082   5.249   2.167   5.134 -0.4859  0.9203 -0.6613
    2MOL   H241 1083   5.002   2.126   4.976  0.9488  0.1063 -1.1322
    2MOL   H242 1084   5.104   2.256   4.938  1.2082  1.7911  2.1250
    2MOL   H243 1085   4.929   2.216   5.181 -1.6126 -0.3775 -2.9526
    2MOL   H244 1086   5.051   2.331   5.203 -0.9587 -0.7266  1.9800
    2MOL   H245 1087   4.837   2.351   5.007  0.3551 -1.6384  1.8648
    2MOL   H246 1088   4.986   2.452   4.986  0.0143  0.8059 -0.7786
    2MOL   H247 1089   4.776   2.432   5.211  0.1745 -0.2091 -1.1078
    2MOL   H248 1090   4.799   2.565   5.092 -0.4704 -1.1104 -1.1137
    2MOL   H249 1091   5.018   2.612   5.215  0.0047  1.8235  0.3043
    2MOL   H250 1092   4.961   2.504   5.330  1.8503  1.7632  0.9731
    2MOL   H251 1093   4.805   2.753   5.271  2.0415  0.8578 -1.5611
    2MOL   H252 1094   4.758   2.624   5.389 -0.5384  0.9668 -0.5310
    2MOL   H253 1095   4.901   2.720   5.415  0.5353  2.6571 -2.1614
    2MOL   C254 1096   5.763   1.495   4.824  0.0795 -0.1828 -0.5608
    2MOL   C255 1097   5.778   1.349   4.871 -0.5249 -0.1545 -0.5595
    2MOL   C256 1098   5.657   1.300   4.954 -0.0557 -0.2904 -0.6350
    2MOL   C257 1099   5.696   1.227   5.092  0.9369  0.1278  0.0566
    2MOL   C258 1100   5.573   1.224   5.198 -0.5031 -0.0101 -0.2455
    2MOL   C259 1101   5.617   1.147   5.328  0.0516 -0.7900  0.2682
    2MOL   C260 1102   5.529   1.178   5.450  0.5960  0.2463  0.3367
    2MOL   C261 1103   5.604   1.125   5.578  0.3205 -0.0822  0.4641
    2MOL   C262 1104   5.554   1.183   5.714  0.3463 -0.2234 -0.0705
    2MOL   C263 1105   5.437   1.104   5.781 -0.1050 -0.5767 -0.8768
    2MOL   C264 1106   5.382   1.189   5.893 -0.2256 -0.0521 -0.3496
    2MOL   C265 1107   5.300   1.115   5.995  0.2154 -0.7605 -0.5688
    2MOL   C266 1108   5.265   1.218   6.101 -0.1920 -0.1130 -0.1732
    2MOL   C267 1109   5.148   1.167   6.184  0.4492  0.1244  0.5256
    2MOL   H268 1110   5.850   1.526   4.767  1.6188 -0.4239  1.6105
    2MOL   H269 1111   5.679   1.490   4.754 -0.9026 -1.9184  0.7010
    2MOL   H270 1112   5.871   1.344   4.927 -1.7040 -1.0016  1.4170
    2MOL   H271 1113   5.593   1.245   4.885  0.3184 -0.8464 -0.5443
    2MOL   H272 1114   5.604   1.392   4.979 -0.6887 -1.2717  1.7644
    2MOL   H273 1115   5.785   1.262   5.144 -0.0508 -0.3554  2.1278
    2MOL   H274 1116   5.709   1.124   5.060  2.3802 -0.4593  2.4088
    2MOL   H275 1117   5.494   1.172   5.144 -0.1650  0.3465 -1.0918
    2MOL   H276 1118   5.542   1.327   5.217  0.5672  0.4023 -0.6665
    2MOL   H277 1119   5.722   1.172   5.342 -0.0088 -0.1308 -0.4477
    2MOL   H278 1120   5.612   1.039   5.310 -1.8021 -1.0568  2.1574
    2MOL   H279 1121   5.518   1.287   5.449 -2.3031 -0.0120  0.4073
    2MOL   H280 1122   5.436   1.124   5.432  0.6193 -0.8862  3.3243
    2MOL   H281 1123   5.700   1.175   5.572 -0.3138  0.9447 -2.0181
    2MOL   H282 1124   5.627   1.020   5.593  4.3289  1.0806  3.2199
    2MOL   H283 1125   5.638   1.198   5.782 -0.2924 -0.8146  0.8418
    2MOL   H284 1126   5.515   1.281   5.686  3.0618  0.7736 -0.5631
    2MOL   H285 1127   5.476   1.012   5.826 -1.5086 -0.9398 -0.3920
    2MOL   H286 1128   5.367   1.086   5.700  0.1466 -0.2380 -1.1718
    2MOL   H287 1129   5.327   1.261   5.833  0.4354  2.2715  1.7825
    2MOL   H288 1130   5.454   1.240   5.956 -1.6171 -1.0722  2.1341
    2MOL   H289 1131   5.213   1.065   5.954 -0.5907  2.0976 -2.4888
    2MOL   H290 1132   5.364   1.038   6.038  0.2560 -0.1906  0.3854
    2MOL   H291 1133   5.343   1.240   6.174 -0.7914  0.0431  0.4219
    2MOL   H292 1134   5.231   1.310   6.054  1.7589  0.3653 -0.6910
    2MOL   H293 1135   5.120   1.251   6.248  0.4001  1.6639 -1.4916
    2MOL   H294 1136   5.174   1.074   6.235 -1.0224 -1.3233 -1.2746
    2MOL   H295 1137   5.057   1.141   6.130 -0.1507 -0.1421  1.6407
    2MOL   C296 1138   5.811   1.257   4.749 -0.0105 -0.3478 -0.0649
    2MOL   C297 1139   5.826   1.106   4.791  0.5213 -0.1466  0.7257
    2MOL   C298 1140   5.825   1.014   4.667  0.2478 -0.3080  0.4848
    2MOL   C299 1141   5.953   1.010   4.582  0.6562  0.8428  0.4323
    2MOL   C300 1142   5.966   0.877   4.503  0.2267 -0.1549 -0.3314
    2MOL   C301 1143   6.090   0.855   4.420  0.2570 -0.0768  0.0380
    2MOL   C302 1144   6.104   0.715   4.365 -0.2448 -0.4852 -0.2352
    2MOL   C303 1145   6.232   0.692   4.275  0.1388  0.5990  0.2260
    2MOL   C304 1146   6.244   0.763   4.140 -0.2124 -0.0504  0.0138
    2MOL   C305 1147   6.154   0.709   4.029 -0.6261 -0.7211  0.6430
    2MOL   C306 1148   6.171   0.788   3.900 -0.2763  0.2284 -0.3538
    2MOL   C307 1149   6.093   0.916   3.898  0.0440  0.6669  0.2421
    2MOL   C308 1150   6.156   1.020   3.800  0.0227  0.8094 -0.2643
    2MOL   C309 1151   6.085   1.155   3.825  0.5326  0.3442 -0.0996
    2MOL   H310 1152   5.894   1.298   4.692 -0.0830 -0.2412 -0.0919
    2MOL   H311 1153   5.723   1.261   4.686  1.2748 -2.7395 -2.0804
    2MOL   H312 1154   5.729   1.083   4.837  0.3751  2.7242  1.9395
    2MOL   H313 1155   5.745   1.053   4.605  1.0476  3.4395  1.6419
    2MOL   H314 1156   5.799   0.913   4.698 -0.2177 -0.9849 -2.0451
    2MOL   H315 1157   6.043   1.018   4.643  2.1388 -4.0287 -0.8439
    2MOL   H316 1158   5.953   1.094   4.512 -1.2467  1.3192  0.9786
    2MOL   H317 1159   5.958   0.798   4.577  2.9834  1.2752  1.6011
    2MOL   H318 1160   5.875   0.868   4.445 -1.5660  3.1841  1.7511
    2MOL   H319 1161   6.184   0.888   4.464 -0.5672  2.4898 -0.0172
    2MOL   H320 1162   6.081   0.918   4.331  0.5374 -2.0835 -1.4391
    2MOL   H321 1163   6.100   0.650   4.452  0.2486 -0.5806 -0.2854
    2MOL   H322 1164   6.016   0.692   4.305  0.0645 -1.7956 -0.2129
    2MOL   H323 1165   6.241   0.585   4.259 -2.1123  0.6782 -1.8928
    2MOL   H324 1166   6.322   0.724   4.328  0.7419  0.8892 -0.9425
    2MOL   H325 1167   6.235   0.871   4.157 -1.8730 -0.4125  1.5016
    2MOL   H326 1168   6.345   0.753   4.101 -0.8195  1.2381 -2.0112
    2MOL   H327 1169   6.048   0.718   4.054 -0.4173  2.0309  0.7539
    2MOL   H328 1170   6.169   0.607   3.996  1.0539  0.3033 -1.8627
    2MOL   H329 1171   6.132   0.726   3.819  0.2820  0.3630 -0.7303
    2MOL   H330 1172   6.277   0.810   3.883 -0.5926  1.1628 -1.1344
    2MOL   H331 1173   6.077   0.952   4.000 -0.1455  0.2044  0.3801
    2MOL   H332 1174   5.999   0.897   3.846 -0.7266  0.7955  1.5796
    2MOL   H333 1175   6.160   0.987   3.696 -0.6964  0.2474 -0.1254
    2MOL   H334 1176   6.258   1.026   3.836  0.0303 -0.0499 -0.1289
    2MOL   H335 1177   6.140   1.242   3.788  0.4244  0.5142  0.1414
    2MOL   H336 1178   5.985   1.150   3.782  0.8610 -2.7733 -0.6791
    2MOL   H337 1179   6.083   1.178   3.931 -2.3264  0.3478 -0.1093
    2MOL   C338 1180   5.949   1.083   4.885 -0.0267 -0.0996 -0.2077
    2MOL   C339 1181   5.992   0.938   4.919  0.0351  0.2517 -0.1410
    2MOL   C340 1182   6.128   0.926   4.994 -0.7825  1.3574  0.1735
    2MOL   C341 1183   6.246   0.908   4.899  0.7699  0.1510  0.1525
    2MOL   C342 1184   6.370   0.861   4.978  0.4446  0.2925  0.3028
    2MOL   C343 1185   6.484   0.826   4.876  0.4835 -1.2577  0.3270
    2MOL   C344 1186   6.598   0.744   4.934  0.1611 -0.5774  0.8591
    2MOL   C345 1187   6.709   0.732   4.829  0.3361  0.3393 -0.2819
    2MOL   C346 1188   6.820   0.630   4.868 -0.4759 -0.2043  0.1006
    2MOL   C347 1189   6.880   0.662   5.002 -0.0560 -0.3148 -0.2560
    2MOL   C348 1190   6.973   0.547   5.045 -0.3479  0.0557 -0.7099
    2MOL   C349 1191   7.051   0.582   5.175 -0.0269  0.0429 -0.1539
    2MOL   C350 1192   7.133   0.471   5.238 -0.0839 -0.0590 -0.4442
    2MOL   C351 1193   7.054   0.367   5.321 -1.0370 -0.2907  0.2079
    2MOL   H352 1194   6.035   1.139   4.847 -1.6261  2.0506 -0.7585
    2MOL   H353 1195   5.930   1.124   4.984  0.0657 -0.5239 -0.0153
    2MOL   H354 1196   6.014   0.890   4.823  0.3143 -1.6875  0.8778
    2MOL   H355 1197   6.143   1.016   5.053 -0.9525  0.3695  1.7656
    2MOL   H356 1198   6.123   0.849   5.070  0.2176  0.0856 -1.0323
    2MOL   H357 1199   6.264   1.001   4.846 -1.0598  0.3628 -0.1056
    2MOL   H358 1200   6.216   0.826   4.835  0.4306  0.5779 -0.2348
    2MOL   H359 1201   6.354   0.773   5.040  0.1364  1.7256  2.3039
    2MOL   H360 1202   6.406   0.931   5.053  0.1921 -0.2135  0.8984
    2MOL   H361 1203   6.440   0.772   4.792  2.5033 -0.6082 -1.2022
    2MOL   H362 1204   6.538   0.907   4.827 -0.5486 -1.1387 -0.6474
    2MOL   H363 1205   6.640   0.792   5.022 -0.9381  1.8223  0.1174
    2MOL   H364 1206   6.573   0.640   4.958 -0.4710 -1.1246 -1.9804
    2MOL   H365 1207   6.669   0.697   4.734 -1.6988  3.4155 -0.6206
    2MOL   H366 1208   6.758   0.829   4.827  1.4085 -0.1847  0.0971
    2MOL   H367 1209   6.776   0.531   4.869 -0.3193 -0.3663 -2.7762
    2MOL   H368 1210   6.897   0.625   4.790  2.0953 -0.6821  2.5850
    2MOL   H369 1211   6.937   0.755   5.001  1.0473 -0.9842 -1.0677
    2MOL   H370 1212   6.801   0.666   5.077 -1.3945 -0.7067 -1.6169
    2MOL   H371 1213   7.044   0.520   4.967  0.2278 -0.8140  0.0931
    2MOL   H372 1214   6.920   0.455   5.069 -1.5509  1.3118  1.6593
    2MOL   H373 1215   6.981   0.611   5.253 -0.2652  0.2939 -0.4604
    2MOL   H374 1216   7.104   0.677   5.162 -1.8973  1.1605  0.3020
    2MOL   H375 1217   7.183   0.421   5.155  2.6374 -1.3088  1.9189
    2MOL   H376 1218   7.210   0.520   5.297 -1.0088  0.7521  0.1278
    2MOL   H377 1219   6.989   0.310   5.255 -0.8743  0.1639 -0.3519
    2MOL   H378 1220   7.117   0.287   5.360 -1.3789 -0.1076  1.1468
    2MOL   H379 1221   7.008   0.399   5.414  1.2405  1.2407  0.8439
    2MOL   C380 1222   5.874   0.862   4.999  0.2354  0.0035 -0.1125
    2MOL   C381 1223   5.874   0.712   4.995  0.6260  0.3167 -0.1398
    2MOL   C382 1224   5.793   0.654   5.113 -0.8110 -0.4636  0.2281
    2MOL   C383 1225   5.653   0.713   5.132  0.6618  0.5778 -0.1612
    2MOL   C384 1226   5.601   0.655   5.266  0.7188 -0.1193 -0.6770
    2MOL   C385 1227   5.452   0.681   5.289 -0.5858 -0.1822  0.0335
    2MOL   C386 1228   5.416   0.650   5.438 -0.1014 -0.4664  0.1854
    2MOL   C387 1229   5.272   0.688   5.454 -0.5685  0.6110 -0.1619
    2MOL   C388 1230   5.232   0.680   5.598  0.7966 -0.4197  0.0584
    2MOL   C389 1231   5.120   0.779   5.645 -0.0965  0.8665  0.4451
    2MOL   C390 1232   5.077   0.768   5.805  0.3244  0.3507 -0.5512
    2MOL   C391 1233   4.981   0.878   5.847 -0.3776  0.3428  1.0033
    2MOL   C392 1234   4.832   0.850   5.818  0.4589  0.9796  0.6016
    2MOL   C393 1235   4.741   0.969   5.851 -0.2832  0.1364  0.2353
    2MOL   H394 1236   5.777   0.907   4.980  0.7876  1.7381  1.0748
    2MOL   H395 1237   5.886   0.885   5.105  0.6670  2.6558 -0.6917
    2MOL   H396 1238   5.974   0.682   5.025  0.0778 -0.8816  0.5417
    2MOL   H397 1239   5.857   0.671   5.200 -1.1131 -1.1251  0.5936
    2MOL   H398 1240   5.785   0.545   5.107 -0.3689 -0.4086 -1.5242
    2MOL   H399 1241   5.583   0.678   5.056 -2.2724 -0.1466  2.7706
    2MOL   H400 1242   5.656   0.822   5.138 -1.8219  0.9162 -3.3783
    2MOL   H401 1243   5.655   0.695   5.352 -0.8611  0.5304  0.0350
    2MOL   H402 1244   5.616   0.548   5.272 -1.1079 -0.2970  1.3814
    2MOL   H403 1245   5.396   0.631   5.210  2.1849 -0.1144 -2.0612
    2MOL   H404 1246   5.447   0.787   5.263  1.1376  0.2177  1.2612
    2MOL   H405 1247   5.433   0.550   5.477  1.3102 -0.0570  0.6531
    2MOL   H406 1248   5.474   0.716   5.503  2.0427 -0.2201 -1.9076
    2MOL   H407 1249   5.270   0.790   5.415 -0.8649  1.3558  1.7349
    2MOL   H408 1250   5.216   0.620   5.391  0.3597 -1.5975  1.3238
    2MOL   H409 1251   5.194   0.582   5.628 -1.6548  1.3654  3.1557
    2MOL   H410 1252   5.313   0.684   5.670  1.3700 -0.3386 -0.5927
    2MOL   H411 1253   5.036   0.773   5.575  1.6225 -1.4972 -1.5181
    2MOL   H412 1254   5.167   0.877   5.638  1.7146 -0.0902 -1.1945
    2MOL   H413 1255   5.040   0.668   5.822 -2.3040  1.6225  1.5094
    2MOL   H414 1256   5.164   0.789   5.867 -0.7338  1.6299  0.5370
    2MOL   H415 1257   4.997   0.974   5.798  0.3389 -0.7406 -0.8935
    2MOL   H416 1258   4.991   0.908   5.952  0.6461  2.5050  0.3100
    2MOL   H417 1259   4.818   0.822   5.713  1.0821 -1.1925  1.0758
    2MOL   H418 1260   4.795   0.755   5.857  1.4886 -0.8482 -2.6809
    2MOL   H419 1261   4.750   0.999   5.956 -0.3641  2.3036 -0.3547
    2MOL   H420 1262   4.640   0.935   5.830 -0.6468  0.8914  0.7449
    2MOL   H421 1263   4.771   1.046   5.781  0.9291 -0.6073 -0.0871
    2MOL   C422 1264   5.822   0.655   4.858  0.0042  0.3098  1.0194
    2MOL   C423 1265   5.863   0.511   4.825 -0.5994  0.1187 -0.4298
    2MOL   C424 1266   5.781   0.462   4.709 -0.0013  0.3839 -0.1418
    2MOL   C425 1267   5.794   0.539   4.575 -0.1755 -0.3989  0.1739
    2MOL   C426 1268   5.728   0.457   4.464  0.1436  0.4074  0.0646
    2MOL   C427 1269   5.740   0.527   4.331  0.3999  0.6609  0.9097
    2MOL   C428 1270   5.643   0.464   4.228 -0.2372 -0.5344  0.8503
    2MOL   C429 1271   5.653   0.317   4.208 -0.0871 -0.2221  0.1642
    2MOL   C430 1272   5.541   0.263   4.107 -1.1849  0.3331  0.4131
    2MOL   C431 1273   5.520   0.108   4.092  0.6698 -0.7912 -0.3715
    2MOL   C432 1274   5.390   0.057   4.024 -0.2151  0.1124  0.4016
    2MOL   C433 1275   5.396   7.610   3.974 -0.4707  0.4302 -0.2776
    2MOL   C434 1276   5.362   7.525   4.099 -0.1907  0.0398  0.6223
    2MOL   C435 1277   5.371   7.382   4.053 -0.4804 -0.6821  0.1396
    2MOL   H436 1278   5.849   0.718   4.773  0.6880 -0.1679  0.8826
    2MOL   H437 1279   5.714   0.666   4.849  0.1943  0.5809 -1.5682
    2MOL   H438 1280   5.828   0.438   4.898 -3.7732  0.0050 -1.9640
    2MOL   H439 1281   5.675   0.464   4.734 -0.5822  1.7621 -2.4710
    2MOL   H440 1282   5.819   0.362   4.690  0.9122  0.6515  0.2561
    2MOL   H441 1283   5.759   0.642   4.586  2.1926  0.3269  1.1253
    2MOL   H442 1284   5.900   0.551   4.552  0.1904 -1.6392  1.1469
    2MOL   H443 1285   5.625   0.439   4.495  0.7430 -0.6670  1.4703
    2MOL   H444 1286   5.772   0.357   4.457  1.6595  0.9249  1.7660
    2MOL   H445 1287   5.843   0.517   4.297  0.5331  0.0512  1.4994
    2MOL   H446 1288   5.723   0.635   4.333  0.7021  0.7330  0.0477
    2MOL   H447 1289   5.542   0.496   4.255 -0.0347 -0.5503  1.6343
    2MOL   H448 1290   5.656   0.504   4.127  0.3158 -3.4970 -0.2916
    2MOL   H449 1291   5.754   0.301   4.171  0.3504  1.7688  0.4303
    2MOL   H450 1292   5.643   0.253   4.296  0.6892  0.2779  0.6164
    2MOL   H451 1293   5.447   0.313   4.131  0.8210  3.3494  2.2796
    2MOL   H452 1294   5.571   0.307   4.012  2.8859  0.2662  1.6136
    2MOL   H453 1295   5.609   0.080   4.036  0.2284 -0.9922 -0.9700
    2MOL   H454 1296   5.544   0.052   4.183 -2.2632  0.2061  1.0809
    2MOL   H455 1297   5.306   0.079   4.089  0.1921  0.8408  0.6876
    2MOL   H456 1298   5.376   0.109   3.929 -1.9085 -1.5389 -0.2653
    2MOL   H457 1299   5.491   7.587   3.925 -1.1342 -1.2225 -0.7989
    2MOL   H458 1300   5.319   7.595   3.898  0.0559 -0.1175 -0.7118
    2MOL   H459 1301   5.440   7.545   4.172 -1.1959  1.4682  1.3253
    2MOL   H460 1302   5.262   7.549   4.135  0.2544  0.7168  1.4216
    2MOL   H461 1303   5.472   7.351   4.025 -0.7353 -0.5670 -0.9402
    2MOL   H462 1304   5.298   7.368   3.973 -0.4998 -4.5770  0.7498
    2MOL   H463 1305   5.330   7.321   4.133 -0.3852 -1.3930 -0.3456
    2MOL   C464 1306   6.023   0.489   4.810  0.5022 -0.0258  0.2308
    2MOL   C465 1307   6.105   0.423   4.924 -0.7122 -0.5511 -0.3355
    2MOL   C466 1308   6.058   0.293   4.969  0.8690  0.7302 -0.4063
    2MOL   C467 1309   6.070   0.182   4.862 -0.1570  0.2465  0.1383
    2MOL   C468 1310   6.033   0.035   4.912 -0.0603 -0.3586  0.6973
    2MOL   C469 1311   6.053   7.624   4.797 -0.3211  0.2517 -0.3334
    2MOL   C470 1312   5.999   7.488   4.835  0.4028  0.0493 -0.1200
    2MOL   C471 1313   5.968   7.396   4.722  0.3766 -0.3217  0.9655
    2MOL   C472 1314   5.873   7.282   4.759 -0.6842 -0.0590 -0.0359
    2MOL   C473 1315   5.934   7.160   4.828  0.5552  0.4745 -0.2381
    2MOL   C474 1316   5.841   7.044   4.866 -0.1438 -1.2683  0.2183
    2MOL   C475 1317   5.909   6.911   4.885  0.3287  0.0675 -0.0470
    2MOL   C476 1318   5.816   6.789   4.916 -0.1652  0.2911  0.3676
    2MOL   C477 1319   5.768   6.779   5.067  0.3136  0.1799  0.8277
    2MOL   H478 1320   6.055   0.590   4.787 -1.0788  0.3329 -0.5089
    2MOL   H479 1321   6.058   0.448   4.716  0.4494 -1.5019  0.8310
    2MOL   H480 1322   6.084   0.489   5.008  0.4089  3.4070 -3.0252
    2MOL   H481 1323   6.106   0.267   5.063  1.8119  0.3353 -0.9920
    2MOL   H482 1324   5.952   0.299   4.994  1.0126  1.7506  0.0048
    2MOL   H483 1325   6.172   0.177   4.824  0.0166 -1.7458  0.8157
    2MOL   H484 1326   5.992   0.214   4.793  0.9187 -0.2668 -1.3505
    2MOL   H485 1327   5.925   0.039   4.927 -0.0492 -0.6470  0.8758
    2MOL   H486 1328   6.089   0.004   5.000  1.0025 -1.9221 -0.4921
    2MOL   H487 1329   6.013   7.657   4.701  1.8590 -1.4567 -1.8928
    2MOL   H488 1330   6.160   7.607   4.782 -0.4131 -0.6309 -0.0321
    2MOL   H489 1331   6.064   7.438   4.908  0.5515  1.0017  0.4029
    2MOL   H490 1332   5.904   7.515   4.881  1.6276  1.5430  1.6063
    2MOL   H491 1333   5.920   7.452   4.642  0.4887  0.1407  1.2198
    2MOL   H492 1334   6.062   7.354   4.686 -0.1897 -0.7101 -0.0672
    2MOL   H493 1335   5.800   7.333   4.823 -0.0748 -0.9319  1.3683
    2MOL   H494 1336   5.814   7.253   4.672  1.5733  1.4826 -2.1127
    2MOL   H495 1337   6.008   7.113   4.762  0.4620 -0.8478  0.5668
    2MOL   H496 1338   5.984   7.191   4.920 -0.0677  1.0325 -0.0893
    2MOL   H497 1339   5.787   7.077   4.954 -0.2954  0.6554 -0.5805
    2MOL   H498 1340   5.762   7.033   4.792 -0.3219 -1.0155  0.3724
    2MOL   H499 1341   5.974   6.924   4.972  0.4310  0.5579 -0.1926
    2MOL   H500 1342   5.962   6.885   4.794  0.2913  1.2109 -0.4078
    2MOL   H501 1343   5.729   6.780   4.851  1.6883 -0.9280 -2.0262
    2MOL   H502 1344   5.866   6.693   4.903 -0.3662 -0.0092  1.7596
    2MOL   H503 1345   5.710   6.864   5.104  0.0951  0.1304  0.5980
    2MOL   H504 1346   5.707   6.689   5.068 -2.0749  1.7351 -0.2009
    2MOL   H505 1347   5.863   6.762   5.117 -0.1244 -2.3371  0.8515
    2MOL   C506 1348   6.256   0.433   4.885 -0.6207  0.1778 -0.5012
    2MOL   C507 1349   6.355   0.366   4.986  0.2997 -0.4673 -0.9907
    2MOL   C508 1350   6.489   0.347   4.911  0.2752  0.1033 -0.0371
    2MOL   C509 1351   6.473   0.238   4.802 -0.2925 -0.1542  0.0900
    2MOL   C510 1352   6.608   0.163   4.772 -0.4448 -0.5271  0.4464
    2MOL   C511 1353   6.600   0.035   4.693 -0.2805 -0.0718 -0.3910
    2MOL   C512 1354   6.523   7.617   4.771 -0.7020 -0.2671  0.0996
    2MOL   C513 1355   6.552   7.479   4.727  0.1769  0.1789 -0.1569
    2MOL   C514 1356   6.455   7.377   4.783 -0.7580 -0.3248 -0.6283
    2MOL   C515 1357   6.503   7.228   4.777  0.1420  0.8724 -0.6968
    2MOL   C516 1358   6.392   7.141   4.843  0.2831  0.0581  0.6764
    2MOL   C517 1359   6.399   6.991   4.797  0.3046 -0.4701 -0.1520
    2MOL   C518 1360   6.508   6.919   4.876  0.0956 -0.0278 -0.1099
    2MOL   C519 1361   6.515   6.771   4.831  0.1167 -0.2618 -0.2672
    2MOL   H520 1362   6.284   0.537   4.868 -1.6477  0.9023  1.9909
    2MOL   H521 1363   6.269   0.396   4.783  0.9674  0.1299 -0.2922
    2MOL   H522 1364   6.324   0.268   5.021  0.3671 -0.8712 -2.0318
    2MOL   H523 1365   6.515   0.446   4.875 -1.8537  0.0039 -1.9326
    2MOL   H524 1366   6.569   0.313   4.978 -0.1350 -2.1008 -0.6220
    2MOL   H525 1367   6.413   0.157   4.843  1.8970 -0.8786  2.0491
    2MOL   H526 1368   6.421   0.281   4.717 -0.9236  0.2613  0.6866
    2MOL   H527 1369   6.649   0.138   4.870 -0.9675 -0.8483  0.5888
    2MOL   H528 1370   6.679   0.233   4.729 -0.5588  0.2913  1.5625
    2MOL   H529 1371   6.701   7.689   4.681 -0.2256  0.4858 -1.9454
    2MOL   H530 1372   6.554   0.052   4.597  0.1681 -2.0348 -0.9930
    2MOL   H531 1373   6.543   7.620   4.879 -1.1055  0.4979  0.1521
    2MOL   H532 1374   6.417   7.640   4.759 -1.2760 -3.5607 -1.6500
    2MOL   H533 1375   6.655   7.451   4.748 -1.0133 -3.1209  1.6604
    2MOL   H534 1376   6.548   7.480   4.618 -0.0617 -0.9403 -0.1670
    2MOL   H535 1377   6.351   7.392   4.754 -1.1119 -0.6156  0.4410
    2MOL   H536 1378   6.460   7.407   4.888 -0.2292 -0.5383 -0.5910
    2MOL   H537 1379   6.520   7.201   4.672 -1.2822  0.7254 -0.8933
    2MOL   H538 1380   6.595   7.214   4.833  0.6913 -0.3311 -1.8588
    2MOL   H539 1381   6.403   7.157   4.951 -0.0317  2.3625  0.3969
    2MOL   H540 1382   6.295   7.177   4.807 -0.1878  1.8233  3.5414
    2MOL   H541 1383   6.422   6.988   4.690  1.5750  3.1251 -0.0585
    2MOL   H542 1384   6.303   6.939   4.803 -0.5055  1.0168  0.2140
    2MOL   H543 1385   6.487   6.926   4.983 -1.6447 -2.2897 -0.2805
    2MOL   H544 1386   6.595   6.975   4.841 -2.1555  3.0201 -1.0471
    2MOL   H545 1387   6.425   6.717   4.858 -0.0203  1.0241  1.9751
    2MOL   H546 1388   6.521   6.776   4.722 -1.2774  0.6063 -0.3184
    2MOL   H547 1389   6.600   6.717   4.873  0.4750 -1.0179 -1.9204
    2MOL   C548 1390   6.363   0.447   5.116 -0.8876  0.8604  0.3391
    2MOL   C549 1391   6.435   0.373   5.231 -0.5787 -0.4416 -0.4408
    2MOL   C550 1392   6.537   0.473   5.293  0.3444  0.7871  0.7188
    2MOL   C551 1393   6.638   0.419   5.405  0.2259 -0.0055 -0.1822
    2MOL   C552 1394   6.711   0.534   5.485  0.8414  0.5362 -0.1787
    2MOL   C553 1395   6.762   0.488   5.618 -0.3833 -0.2171 -0.4875
    2MOL   C554 1396   6.833   0.601   5.699  0.3203 -0.3449  0.4805
    2MOL   C555 1397   6.745   0.722   5.719 -0.1593 -0.0414  0.2059
    2MOL   C556 1398   6.792   0.824   5.821  0.7355  0.2831  0.4970
    2MOL   C557 1399   6.704   0.952   5.835  0.3044 -0.5431 -0.3372
    2MOL   C558 1400   6.756   1.036   5.947 -0.3784  0.1799  0.2760
    2MOL   C559 1401   6.679   1.161   5.968 -0.0650 -0.2503  0.6912
    2MOL   C560 1402   6.751   1.268   6.059 -0.0794  0.0605  0.1505
    2MOL   C561 1403   6.693   1.262   6.205 -0.1633  0.9215 -0.1353
    2MOL   H562 1404   6.415   0.542   5.103 -2.1279  1.7071  1.3911
    2MOL   H563 1405   6.267   0.490   5.147 -1.0855  1.2753 -0.8048
    2MOL   H564 1406   6.500   0.296   5.188 -0.1537  0.8543 -2.1782
    2MOL   H565 1407   6.610   0.494   5.215 -1.0506  1.3280 -0.4517
    2MOL   H566 1408   6.490   0.565   5.327  0.4679  0.4841  1.7523
    2MOL   H567 1409   6.710   0.348   5.364  0.7381  1.1297 -1.2793
    2MOL   H568 1410   6.581   0.352   5.469  1.9969 -2.4576 -1.0811
    2MOL   H569 1411   6.779   0.585   5.418  0.7591  0.2972 -0.4438
    2MOL   H570 1412   6.634   0.608   5.506 -0.1190 -0.0946 -1.4252
    2MOL   H571 1413   6.830   0.404   5.609  2.2027  1.7410  0.2373
    2MOL   H572 1414   6.674   0.453   5.672 -0.4998  1.1153  0.2085
    2MOL   H573 1415   6.861   0.550   5.791 -0.7159  0.6363  1.3585
    2MOL   H574 1416   6.914   0.634   5.635 -0.5428  3.1412  1.0723
    2MOL   H575 1417   6.643   0.688   5.739 -1.0154  2.1297 -0.3251
    2MOL   H576 1418   6.741   0.785   5.630  0.0657  0.5957  0.6414
    2MOL   H577 1419   6.892   0.858   5.798  0.8780 -0.3406  0.1707
    2MOL   H578 1420   6.802   0.775   5.918  0.8159 -0.9997 -0.1402
    2MOL   H579 1421   6.714   1.011   5.744  0.9363  0.5013  0.4004
    2MOL   H580 1422   6.599   0.928   5.853 -0.3428  1.6586 -1.0977
    2MOL   H581 1423   6.858   1.055   5.912 -0.5726  0.4543 -0.1379
    2MOL   H582 1424   6.757   0.986   6.044  0.5249 -1.0589 -0.3547
    2MOL   H583 1425   6.655   1.209   5.872  0.0239  0.8070  1.1924
    2MOL   H584 1426   6.587   1.144   6.022 -0.1090 -0.9055  0.4095
    2MOL   H585 1427   6.857   1.278   6.035 -0.4661  1.7483 -0.9702
    2MOL   H586 1428   6.705   1.363   6.031  0.4045  0.6874  1.4357
    2MOL   H587 1429   6.589   1.293   6.208 -0.6222 -0.2918 -2.3004
    2MOL   H588 1430   6.699   1.163   6.250 -2.4567  0.2641 -1.2284
    2MOL   H589 1431   6.757   1.326   6.267  0.8702 -1.1262  0.9434
    2MOL   C590 1432   6.335   0.303   5.333  0.1050 -0.7152  0.5601
    2MOL   C591 1433   6.362   0.159   5.368  0.1020  0.1070  0.0779
    2MOL   C592 1434   6.302   0.134   5.509  0.1083  0.2250  0.5284
    2MOL   C593 1435   6.373   0.188   5.633  0.0373 -0.0870 -0.7140
    2MOL   C594 1436   6.511   0.131   5.674  0.3865 -0.2755 -0.2356
    2MOL   C595 1437   6.558   0.176   5.819  0.3068 -0.4534  0.0572
    2MOL   C596 1438   6.671   0.077   5.868 -0.0469  0.5047 -0.7741
    2MOL   C597 1439   6.719   0.134   5.999 -0.4358 -0.0926 -0.5476
    2MOL   C598 1440   6.857   0.069   6.034 -0.7309  0.0089  0.0729
    2MOL   C599 1441   6.976   0.142   5.969  0.2469 -0.8120  0.1734
    2MOL   C600 1442   7.109   0.079   6.022 -0.6401 -0.1457 -0.6156
    2MOL   C601 1443   7.239   0.139   5.963 -0.1116  0.7939  0.4175
    2MOL   C602 1444   7.259   0.088   5.812  1.0976  0.1497  0.7910
    2MOL   C603 1445   7.379   0.166   5.739  0.0405  0.6440  0.1104
    2MOL   H604 1446   6.235   0.318   5.293  0.5753  0.1620 -0.3300
    2MOL   H605 1447   6.339   0.367   5.421 -0.8194 -0.3941  0.3748
    2MOL   H606 1448   6.470   0.148   5.364  0.3589  2.6918 -0.7873
    2MOL   H607 1449   6.297   0.027   5.526  1.1032  0.1480  0.3524
    2MOL   H608 1450   6.197   0.162   5.502  0.4365  1.8975  1.7321
    2MOL   H609 1451   6.320   0.167   5.726  0.7671  0.4545 -0.1705
    2MOL   H610 1452   6.376   0.296   5.616 -0.8316 -0.1570 -1.3251
    2MOL   H611 1453   6.584   0.150   5.595  0.1421 -1.6307 -0.8011
    2MOL   H612 1454   6.521   0.023   5.679  2.1478 -0.3144 -3.1205
    2MOL   H613 1455   6.477   0.162   5.890  2.4344  1.2865  2.9455
    2MOL   H614 1456   6.582   0.282   5.813  2.2491 -0.6470  3.4310
    2MOL   H615 1457   6.644   7.669   5.885 -1.8568  1.0842  0.0002
    2MOL   H616 1458   6.749   0.081   5.792  3.6867  1.2599  2.9151
    2MOL   H617 1459   6.736   0.242   5.992 -2.0827  0.1758 -0.6705
    2MOL   H618 1460   6.650   0.129   6.083  0.0031 -0.4916 -0.2085
    2MOL   H619 1461   6.877   0.081   6.141  3.0429  0.6763 -0.6395
    2MOL   H620 1462   6.854   7.659   6.008 -2.1123 -0.1883  0.9880
    2MOL   H621 1463   6.957   0.135   5.862 -1.7441  0.2282  0.4277
    2MOL   H622 1464   6.974   0.249   5.991  0.8371 -0.9520  0.9058
    2MOL   H623 1465   7.109   7.667   6.038 -1.9268 -0.3395 -1.7662
    2MOL   H624 1466   7.117   0.101   6.128 -1.9955  1.1936 -0.7644
    2MOL   H625 1467   7.325   0.114   6.025 -1.5537  0.2676  2.2288
    2MOL   H626 1468   7.233   0.246   5.977  0.1985  0.8808 -0.1081
    2MOL   H627 1469   7.288   7.678   5.815 -0.8152 -0.4601 -0.6150
    2MOL   H628 1470   7.164   0.091   5.758  0.7596 -2.2280  1.1580
    2MOL   H629 1471   7.463   0.153   5.807 -0.4181  2.0213  0.9640
    2MOL   H630 1472   7.359   0.271   5.718  2.1616  1.2632  1.0319
    2MOL   H631 1473   7.413   0.115   5.649  1.0889  1.3963  0.0714
    2MOL   C632 1474   6.311   0.055   5.259 -0.7598  0.2333 -0.0776
    2MOL   C633 1475   6.390   7.615   5.265  0.7272 -0.5891 -0.1327
    2MOL   C634 1476   6.306   7.498   5.215 -0.3974  0.1144 -0.2824
    2MOL   C635 1477   6.354   7.359   5.249  0.6465  0.7995  0.4557
    2MOL   C636 1478   6.237   7.252   5.242 -0.5140 -0.3853  0.8269
    2MOL   C637 1479   6.308   7.111   5.272 -0.3707  0.6617 -0.2399
    2MOL   C638 1480   6.353   7.069   5.414  0.3132 -0.0928  0.0290
    2MOL   C639 1481   6.394   6.921   5.432  0.0072 -0.1427 -0.0878
    2MOL   C640 1482   6.451   6.891   5.574 -0.2855  0.2425 -0.3997
    2MOL   C641 1483   6.475   6.736   5.588  0.1853  0.3963  0.5815
    2MOL   C642 1484   6.523   6.678   5.724  0.3027  0.1253 -0.6663
    2MOL   C643 1485   6.542   6.524   5.719 -0.0988 -0.3560 -0.3092
    2MOL   C644 1486   6.609   6.478   5.850 -0.1812 -0.3881 -0.3885
    2MOL   C645 1487   6.652   6.331   5.844  1.6090  0.3565  0.3527
    2MOL   H646 1488   6.317   0.107   5.164  0.3280  0.6386  0.2040
    2MOL   H647 1489   6.204   0.041   5.266 -0.6369 -1.4318 -1.2153
    2MOL   H648 1490   6.420   7.595   5.368  1.4756 -2.1553 -0.6310
    2MOL   H649 1491   6.208   7.519   5.259 -0.3008 -0.3475  0.1551
    2MOL   H650 1492   6.290   7.507   5.108  2.4430  1.0391 -0.6864
    2MOL   H651 1493   6.392   7.360   5.351  1.2787  1.4910  0.2153
    2MOL   H652 1494   6.437   7.338   5.182 -2.0434 -0.1927 -2.6990
    2MOL   H653 1495   6.197   7.239   5.142  2.4161 -1.0835 -0.3208
    2MOL   H654 1496   6.168   7.271   5.324  1.7918  1.8480  2.3777
    2MOL   H655 1497   6.249   7.025   5.240  1.2902 -0.8830  0.7793
    2MOL   H656 1498   6.388   7.097   5.200 -1.2989 -2.2233 -0.7683
    2MOL   H657 1499   6.426   7.146   5.438 -0.9264  0.7925  1.0559
    2MOL   H658 1500   6.270   7.077   5.484  1.6383 -1.1488  1.7568
    2MOL   H659 1501   6.452   6.886   5.346  0.7408 -1.1030  0.7909
    2MOL   H660 1502   6.302   6.864   5.418 -0.1841 -0.2954  1.7258
    2MOL   H661 1503   6.387   6.930   5.654 -0.3507 -0.0856 -0.2898
    2MOL   H662 1504   6.550   6.935   5.583 -0.1316 -0.1142 -0.3430
    2MOL   H663 1505   6.392   6.676   5.551  0.5321  0.3242 -0.0876
    2MOL   H664 1506   6.542   6.710   5.506 -1.7788  1.9781 -1.5995
    2MOL   H665 1507   6.621   6.720   5.747 -0.0610  0.5791  0.0524
    2MOL   H666 1508   6.463   6.723   5.803  1.1820  2.0142 -1.0520
    2MOL   H667 1509   6.613   6.507   5.638 -2.3772 -1.6689 -2.1000
    2MOL   H668 1510   6.449   6.467   5.709 -0.6798  0.4112  0.6101
    2MOL   H669 1511   6.539   6.498   5.932 -0.1507  0.7427 -0.6218
    2MOL   H670 1512   6.704   6.530   5.863  0.5759 -1.7315 -0.4795
    2MOL   H671 1513   6.561   6.274   5.825  0.4060  1.5977  2.1711
    2MOL   H672 1514   6.727   6.309   5.768  0.2960  0.5351 -1.0343
    2MOL   H673 1515   6.677   6.298   5.944 -1.9926  1.5735  1.7347
    2MOL   C674 1516   6.518   7.623   5.174  0.2667  0.3986 -0.9377
    2MOL   C675 1517   6.656   7.565   5.238 -0.3243 -0.0843  0.1165
    2MOL   C676 1518   6.768   7.557   5.134 -0.1667 -0.6207 -0.1402
    2MOL   C677 1519   6.753   7.436   5.037 -0.0427 -0.2186  0.2210
    2MOL   C678 1520   6.854   7.325   5.054  0.3501  0.2992  0.0648
    2MOL   C679 1521   6.852   7.207   4.956  0.7398  0.1673  0.6227
    2MOL   C680 1522   6.987   7.121   4.944 -0.0111 -0.2439 -0.2469
    2MOL   C681 1523   6.980   7.002   4.849 -0.6280 -0.0380  0.2753
    2MOL   C682 1524   7.111   6.914   4.833 -0.6752 -0.5961  0.8731
    2MOL   C683 1525   7.090   6.798   4.735  0.0077 -0.6168  0.1215
    2MOL   C684 1526   7.024   6.670   4.790  0.1178 -0.5451 -0.2742
    2MOL   C685 1527   7.011   6.576   4.675  0.4582  0.2370  0.8043
    2MOL   C686 1528   6.954   6.437   4.701 -0.1512  0.5180  0.2982
    2MOL   C687 1529   6.963   6.351   4.581  0.0855  0.7767 -0.6164
    2MOL   H688 1530   6.544   0.030   5.150  0.9832  0.6271  0.7624
    2MOL   H689 1531   6.506   7.565   5.082 -0.1864  0.0846 -0.6833
    2MOL   H690 1532   6.643   7.465   5.279  0.1217  0.2182  1.0148
    2MOL   H691 1533   6.776   7.641   5.065 -0.0653  1.0297  1.8185
    2MOL   H692 1534   6.865   7.557   5.184 -1.9107 -0.3694  3.4630
    2MOL   H693 1535   6.652   7.396   5.045 -0.7120  1.3891 -0.0466
    2MOL   H694 1536   6.736   7.475   4.937 -1.7696 -2.4635 -0.3910
    2MOL   H695 1537   6.946   7.385   5.050  0.1404  0.6657  0.7427
    2MOL   H696 1538   6.854   7.288   5.156 -1.1160 -1.0673 -0.4148
    2MOL   H697 1539   6.772   7.139   4.985  0.9966 -0.5087 -0.2265
    2MOL   H698 1540   6.828   7.246   4.857  0.1314 -1.1919  0.2207
    2MOL   H699 1541   7.070   7.177   4.900 -0.4458  0.9381  0.4269
    2MOL   H700 1542   7.014   7.088   5.044  0.1830 -0.9302 -0.5193
    2MOL   H701 1543   6.893   6.943   4.881 -0.5183 -0.6685 -0.5735
    2MOL   H702 1544   6.949   7.047   4.755  1.2492 -2.8343 -1.7523
    2MOL   H703 1545   7.193   6.977   4.798 -0.0209 -2.4608 -1.1423
    2MOL   H704 1546   7.127   6.870   4.931  1.1145 -1.8190  0.0638
    2MOL   H705 1547   7.190   6.768   4.703 -0.0606 -3.2416  2.1628
    2MOL   H706 1548   7.048   6.838   4.643 -1.4875 -2.3491  0.0389
    2MOL   H707 1549   6.930   6.703   4.834 -0.8861  0.4117 -3.0362
    2MOL   H708 1550   7.085   6.633   4.873 -0.1361  0.4314  0.3666
    2MOL   H709 1551   7.108   6.556   4.629 -0.5807 -4.1896  0.2908
    2MOL   H710 1552   6.942   6.621   4.604  2.6269  2.0652 -0.2435
    2MOL   H711 1553   7.010   6.388   4.781 -1.0799 -1.8741 -0.4684
    2MOL   H712 1554   6.850   6.439   4.736 -0.9805  0.0589 -2.0588
    2MOL   H713 1555   7.061   6.309   4.556 -0.0570  1.3755 -2.2244
    2MOL   H714 1556   6.901   6.262   4.598  0.3070  1.0203  1.6210
    2MOL   H715 1557   6.919   6.401   4.495 -1.6278 -0.0603 -0.2592
    2MOL   C716 1558   6.706   7.651   5.362 -0.0464  0.5216 -0.1932
    2MOL   C717 1559   6.787   7.560   5.460  0.0743  1.2290 -0.6427
    2MOL   C718 1560   6.883   7.648   5.542 -0.0934 -0.2101  0.0977
    2MOL   C719 1561   7.023   7.652   5.482 -0.2997  0.3188  0.2983
    2MOL   C720 1562   7.127   7.545   5.518  0.0765 -0.8434 -0.2092
    2MOL   C721 1563   7.256   7.597   5.465  0.1069  0.2522 -0.3039
    2MOL   C722 1564   7.283   7.578   5.316 -0.2209 -0.1152 -0.7983
    2MOL   C723 1565   7.415   7.662   5.275  0.5973  1.0204  0.0937
    2MOL   C724 1566   7.395   0.117   5.262  0.7184  1.2293  0.7231
    2MOL   C725 1567   7.510   0.204   5.219  0.2063  0.0817  0.2641
    2MOL   C726 1568   7.502   0.339   5.288 -0.5672 -0.0910  0.0355
    2MOL   C727 1569   7.633   0.423   5.263 -0.5025  0.1668 -0.2691
    2MOL   C728 1570   7.646   0.486   5.122 -0.7229  0.0363  0.2703
    2MOL   C729 1571   0.078   0.571   5.101 -0.3580  0.4496  0.0008
    2MOL   H730 1572   6.777   0.031   5.328  0.4516  0.2357  0.2098
    2MOL   H731 1573   6.624   7.694   5.420 -1.0661 -1.5631 -0.0412
    2MOL   H732 1574   6.853   7.492   5.407 -0.4204  1.2776 -1.3387
    2MOL   H733 1575   6.887   7.611   5.644 -0.9182 -0.9703 -0.1406
    2MOL   H734 1576   6.844   0.054   5.552  1.2092  0.1669  1.4578
    2MOL   H735 1577   7.018   7.670   5.374 -1.0291 -1.1997  0.0491
    2MOL   H736 1578   7.065   0.048   5.523  2.8254 -0.4034 -1.1498
    2MOL   H737 1579   7.136   7.543   5.626 -2.2933 -1.6327  0.0021
    2MOL   H738 1580   7.100   7.444   5.486  2.1196 -2.3301  2.4787
    2MOL   H739 1581   7.283   0.003   5.495  1.0490 -0.0342 -0.1665
    2MOL   H740 1582   7.326   7.534   5.520  0.2202 -0.2683 -1.0376
    2MOL   H741 1583   7.306   7.473   5.299 -1.8707 -0.6578  0.1667
    2MOL   H742 1584   7.198   7.596   5.249 -0.8488  0.5405  0.1602
    2MOL   H743 1585   7.436   7.622   5.176 -0.5214 -0.9294  0.6057
    2MOL   H744 1586   7.496   7.644   5.346 -0.5399 -0.8372  0.9814
    2MOL   H745 1587   7.318   0.134   5.187  2.2423 -0.6394 -1.3388
    2MOL   H746 1588   7.337   0.153   5.348 -0.4235  0.7508  0.1656
    2MOL   H747 1589   7.610   0.165   5.238  1.5166  2.1052 -2.0811
    2MOL   H748 1590   7.514   0.215   5.110  1.0438 -1.5199  0.1215
    2MOL   H749 1591   7.406   0.380   5.255 -0.0717 -0.2150 -1.5992
    2MOL   H750 1592   7.498   0.323   5.396  1.8730  1.9277  0.4658
    2MOL   H751 1593   7.625   0.511   5.326  0.0196  0.0762 -0.0747
    2MOL   H752 1594   0.024   0.361   5.286 -1.2787 -0.4835  0.8815
    2MOL   H753 1595   7.556   0.548   5.119 -0.9352 -0.3055 -0.6575
    2MOL   H754 1596   7.628   0.415   5.042 -1.7842  0.0896  0.4544
    2MOL   H755 1597   0.076   0.623   5.006 -0.3919  1.2548  0.4360
    2MOL   H756 1598   0.160   0.499   5.101  0.1174  0.9840  0.0301
    2MOL   H757 1599   0.102   0.636   5.185 -0.0495  1.0005 -0.5111
    2MOL   C758 1600   6.711   7.469   5.562  1.3574 -0.8700 -0.1705
    2MOL   C759 1601   6.784   7.338   5.584  0.5255  0.3385  0.5527
    2MOL   C760 1602   6.753   7.274   5.725 -0.6290  0.2370 -0.8605
    2MOL   C761 1603   6.613   7.224   5.758 -0.4153 -0.6252 -0.3859
    2MOL   C762 1604   6.611   7.163   5.905 -0.1036 -0.2625 -0.3881
    2MOL   C763 1605   6.667   7.022   5.915 -0.3783 -0.1575 -0.5848
    2MOL   C764 1606   6.683   6.976   6.060  0.7662  0.3959  0.5136
    2MOL   C765 1607   6.739   6.830   6.081  0.6167 -0.4461 -0.2352
    2MOL   C766 1608   6.715   6.774   6.220 -0.0259  0.2966 -0.2073
    2MOL   C767 1609   6.765   6.628   6.237  0.1259 -1.3360 -0.4579
    2MOL   C768 1610   6.741   6.561   6.373 -0.5322  0.1529  0.1495
    2MOL   C769 1611   6.787   6.644   6.495  0.0234  0.1401  0.1166
    2MOL   C770 1612   6.736   6.596   6.633  0.6227 -0.0264  0.0651
    2MOL   C771 1613   6.588   6.612   6.662 -0.6312  0.1989 -0.0002
    2MOL   H772 1614   6.689   7.523   5.654  2.9257  0.8154 -0.7447
    2MOL   H773 1615   6.613   7.450   5.518  1.0229 -0.4997  0.4063
    2MOL   H774 1616   6.888   7.369   5.591  0.3330  0.6892  1.9905
    2MOL   H775 1617   6.821   7.191   5.744  0.8580  1.0112 -2.6151
    2MOL   H776 1618   6.772   7.344   5.805  3.1514  0.5188 -1.9459
    2MOL   H777 1619   6.547   7.310   5.755 -1.1898 -1.2236 -0.6329
    2MOL   H778 1620   6.586   7.150   5.682 -1.1379 -0.7970  0.0366
    2MOL   H779 1621   6.507   7.160   5.936  0.1323 -0.8725  0.3498
    2MOL   H780 1622   6.669   7.224   5.974 -0.2428  0.7310 -1.1403
    2MOL   H781 1623   6.755   7.002   5.855  0.4783 -0.7501  0.8415
    2MOL   H782 1624   6.595   6.964   5.858 -0.5855 -0.2226 -0.2593
    2MOL   H783 1625   6.739   7.046   6.123 -0.8740  3.3554 -1.1677
    2MOL   H784 1626   6.583   6.989   6.101  0.2513 -1.6087 -0.0946
    2MOL   H785 1627   6.848   6.831   6.075  0.7182  1.0274  1.3353
    2MOL   H786 1628   6.690   6.757   6.017  0.5946  0.0958 -0.8396
    2MOL   H787 1629   6.612   6.791   6.253 -0.1299  3.2441 -1.8027
    2MOL   H788 1630   6.779   6.829   6.289 -0.3270  2.7076 -1.7644
    2MOL   H789 1631   6.867   6.617   6.201 -0.1676 -1.4688 -1.2580
    2MOL   H790 1632   6.716   6.571   6.158  0.4327 -1.3010 -0.6740
    2MOL   H791 1633   6.635   6.536   6.377 -0.7035  1.0363  1.2360
    2MOL   H792 1634   6.787   6.462   6.380 -0.6871  0.0404 -0.3492
    2MOL   H793 1635   6.894   6.660   6.495 -0.1713  1.5196  0.2112
    2MOL   H794 1636   6.742   6.744   6.486 -0.7547 -0.0249  1.7996
    2MOL   H795 1637   6.771   6.494   6.650  1.9761  0.6934  1.8037
    2MOL   H796 1638   6.779   6.641   6.723  0.6961 -1.8679  0.9736
    2MOL   H797 1639   6.566   6.560   6.755 -0.2968  1.1277  0.6093
    2MOL   H798 1640   6.564   6.718   6.671 -0.4840  0.0880  1.9455
    2MOL   H799 1641   6.520   6.569   6.589 -1.7134  0.8107  0.6325
    2MOL   C800 1642   6.760   7.240   5.467 -0.3624 -0.4800  0.9384
    2MOL   C801 1643   6.838   7.105   5.484 -0.0488 -0.0221 -0.0450
    2MOL   C802 1644   6.800   6.995   5.378  0.3096 -0.1414 -0.3483
    2MOL   C803 1645   6.865   6.860   5.394 -0.7022  0.1242  0.0859
    2MOL   C804 1646   7.023   6.869   5.390  0.0527  0.2275 -0.1427
    2MOL   C805 1647   7.084   6.728   5.364 -0.2102  0.5673 -0.1839
    2MOL   C806 1648   7.033   6.594   5.421  0.6906 -1.0169  0.1395
    2MOL   C807 1649   7.035   6.580   5.580 -0.0216  0.2428 -0.6870
    2MOL   C808 1650   6.996   6.433   5.641 -0.2787  0.2950 -0.1251
    2MOL   C809 1651   7.014   6.454   5.793 -0.1801 -0.0127 -0.3787
    2MOL   C810 1652   7.012   6.316   5.862  0.7398 -0.1409 -0.1972
    2MOL   C811 1653   6.990   6.314   6.010 -0.9362 -0.4900  0.3775
    2MOL   C812 1654   6.978   6.171   6.070 -0.5646 -0.4364  0.1050
    2MOL   C813 1655   6.978   6.174   6.223 -0.3880  0.0561 -0.7195
    2MOL   H814 1656   6.791   7.284   5.373 -2.3214 -1.7179 -0.3265
    2MOL   H815 1657   6.655   7.218   5.449  0.6778 -4.8888 -0.3573
    2MOL   H816 1658   6.824   7.055   5.580  2.0750  0.7361  0.6939
    2MOL   H817 1659   6.816   7.040   5.280 -1.9439  1.4704 -0.0009
    2MOL   H818 1660   6.695   6.968   5.382  0.9344 -2.4622  1.6461
    2MOL   H819 1661   6.830   6.809   5.304  2.9961  1.7044 -2.3946
    2MOL   H820 1662   6.829   6.822   5.489 -0.6592 -1.2406 -0.4317
    2MOL   H821 1663   7.040   6.926   5.299  0.3367  0.3018 -0.0439
    2MOL   H822 1664   7.059   6.928   5.475 -0.8084  1.3478 -0.5536
    2MOL   H823 1665   7.183   6.753   5.402 -1.6595  3.2941  1.9529
    2MOL   H824 1666   7.096   6.711   5.257  0.1223 -0.0189 -0.0537
    2MOL   H825 1667   6.929   6.578   5.390  0.6556  0.1997 -0.3694
    2MOL   H826 1668   7.093   6.512   5.381 -0.3303 -1.3499 -0.7467
    2MOL   H827 1669   7.131   6.618   5.614 -0.4024 -0.7350  1.5793
    2MOL   H828 1670   6.957   6.651   5.607 -2.6633 -2.1855 -1.7542
    2MOL   H829 1671   6.896   6.402   5.612  0.2154 -2.0713  0.5788
    2MOL   H830 1672   7.062   6.353   5.604 -2.0801 -1.1865 -0.1984
    2MOL   H831 1673   6.939   6.523   5.831  0.7557  1.0200 -0.3811
    2MOL   H832 1674   7.106   6.502   5.827 -0.8653  1.3113 -0.3529
    2MOL   H833 1675   6.936   6.252   5.817 -1.0851  1.2735  0.7802
    2MOL   H834 1676   7.109   6.268   5.850  0.3021 -1.3990  1.1704
    2MOL   H835 1677   6.909   6.374   6.051 -0.4554  0.4493 -0.0543
    2MOL   H836 1678   7.077   6.362   6.054  0.1517 -0.6985 -1.5096
    2MOL   H837 1679   6.895   6.114   6.026 -1.8574 -0.6768  2.7151
    2MOL   H838 1680   7.062   6.107   6.046  1.8647  2.5624  0.3914
    2MOL   H839 1681   6.890   6.224   6.263 -0.4202 -1.9904  1.9829
    2MOL   H840 1682   6.975   6.080   6.279 -3.7275  0.1657 -0.5780
    2MOL   H841 1683   7.071   6.221   6.255  0.4761 -1.9716 -0.1648
    2MOL   H842 1684   6.940   7.141   5.471 -0.0563 -0.1168 -0.3694
    3MOL     C1 1685   4.475   7.400   6.292 -0.1420  0.6756  0.1120
    3MOL     C2 1686   4.349   7.422   6.381  0.4519 -0.4381  0.2475
    3MOL     C3 1687   4.401   7.420   6.532  0.5296 -0.5806 -0.8027
    3MOL     C4 1688   4.296   7.445   6.637 -0.2555 -0.3260  0.1334
    3MOL     C5 1689   4.172   7.351   6.628  0.3163  0.2373  0.0535
    3MOL     C6 1690   4.047   7.409   6.701  0.2572 -0.1276  0.3260
    3MOL     C7 1691   3.933   7.298   6.717  0.5689 -0.4364  0.1879
    3MOL     C8 1692   3.792   7.352   6.761  0.0106 -0.3750  0.0785
    3MOL     C9 1693   3.682   7.252   6.773 -0.4909 -0.3978 -0.0042
    3MOL    C10 1694   3.563   7.299   6.856  0.1075  0.2255  0.3063
    3MOL    C11 1695   3.448   7.201   6.851  0.4108  0.0245 -0.6146
    3MOL    C12 1696   3.364   7.202   6.722  0.2779  0.2843  0.1427
    3MOL    C13 1697   3.227   7.121   6.725  0.0658  1.0765 -0.0869
    3MOL    C14 1698   3.145   7.116   6.589 -0.3531 -0.1326 -0.2681
    3MOL    H15 1699   4.556   7.474   6.296  0.4450  0.0219  0.3438
    3MOL    H16 1700   4.456   7.392   6.185  0.8409  0.2824 -0.0399
    3MOL    H17 1701   4.277   7.341   6.375 -1.0002  0.8486  0.0798
    3MOL    H18 1702   4.447   7.322   6.543  0.9107 -0.3117  0.0891
    3MOL    H19 1703   4.482   7.491   6.551 -0.8424  0.7666  0.0901
    3MOL    H20 1704   4.264   7.548   6.623 -0.5510 -0.5825 -1.1684
    3MOL    H21 1705   4.332   7.447   6.740 -0.7262 -1.5138  0.3237
    3MOL    H22 1706   4.192   7.252   6.670  1.4580  0.3394 -0.2486
    3MOL    H23 1707   4.147   7.316   6.528  1.7692  2.5798 -1.1613
    3MOL    H24 1708   4.017   7.500   6.650 -3.1090 -1.3173  0.0533
    3MOL    H25 1709   4.070   7.435   6.804  1.5628 -1.0985  0.3021
    3MOL    H26 1710   3.917   7.248   6.622 -1.1642 -0.6418  0.5725
    3MOL    H27 1711   3.962   7.218   6.787 -0.0733 -0.1490  0.7881
    3MOL    H28 1712   3.766   7.410   6.673 -1.7511 -1.2099  0.0362
    3MOL    H29 1713   3.792   7.419   6.847  1.2564 -1.3225  0.8436
    3MOL    H30 1714   3.642   7.220   6.677 -0.9817 -0.0513  0.0783
    3MOL    H31 1715   3.724   7.164   6.821 -1.9904 -1.9790 -1.5175
    3MOL    H32 1716   3.602   7.317   6.956 -2.9930  0.5829  1.5058
    3MOL    H33 1717   3.513   7.393   6.833 -1.6113 -1.0463 -1.3055
    3MOL    H34 1718   3.478   7.101   6.883 -0.6875 -0.0813  0.1219
    3MOL    H35 1719   3.389   7.241   6.934 -0.9851 -1.1507 -1.0061
    3MOL    H36 1720   3.417   7.165   6.635 -0.4579  2.7242 -1.3798
    3MOL    H37 1721   3.345   7.306   6.694 -1.9946 -0.3136 -0.6293
    3MOL    H38 1722   3.229   7.029   6.784 -0.6312  0.9599 -0.2340
    3MOL    H39 1723   3.160   7.184   6.784 -1.1723 -0.2973  0.0162
    3MOL    H40 1724   3.190   7.046   6.518  1.0960 -0.7686  1.2180
    3MOL    H41 1725   3.043   7.082   6.607  0.6898 -3.0028  0.4876
    3MOL    H42 1726   3.149   7.211   6.536 -1.2367  0.5597  0.8959
    3MOL    H43 1727   4.526   7.307   6.317 -0.7654  0.5903  1.1088
    3MOL    C44 1728   4.275   7.550   6.334  0.2651  0.0591 -0.5693
    3MOL    C45 1729   4.156   7.529   6.237 -0.0899 -0.0034 -0.1645
    3MOL    C46 1730   4.218   7.479   6.098  0.4736  0.4119 -0.0314
    3MOL    C47 1731   4.121   7.478   5.978  0.1410  0.4754 -0.3185
    3MOL    C48 1732   4.183   7.437   5.842  0.0258  0.5544  0.0229
    3MOL    C49 1733   4.089   7.455   5.721 -0.3925 -0.0191 -0.2114
    3MOL    C50 1734   4.173   7.412   5.601 -0.4668  0.0959 -0.9193
    3MOL    C51 1735   4.111   7.463   5.473 -0.6004  0.8613  0.0660
    3MOL    C52 1736   4.199   7.444   5.346 -0.0557  1.1991  0.0822
    3MOL    C53 1737   4.128   7.475   5.210 -0.4312  0.5776  0.4843
    3MOL    C54 1738   4.224   7.416   5.089 -0.2618 -0.9652  0.3825
    3MOL    C55 1739   4.366   7.476   5.072 -0.1664  0.3843  0.2054
    3MOL    C56 1740   4.435   7.425   4.942 -0.2889  0.1094  0.0465
    3MOL    C57 1741   4.587   7.464   4.920 -0.0424 -0.3716  0.0614
    3MOL    H58 1742   4.246   7.609   6.421  0.4824 -0.7711  0.0796
    3MOL    H59 1743   4.354   7.614   6.294 -0.2443  1.7837  1.1240
    3MOL    H60 1744   4.090   7.452   6.276  1.3501 -0.6684  1.0175
    3MOL    H61 1745   4.303   7.544   6.079  0.7731 -0.2027 -0.8135
    3MOL    H62 1746   4.239   7.372   6.110 -0.8599  0.1591  0.1486
    3MOL    H63 1747   4.093   7.583   5.969  2.9960  1.2300 -0.7571
    3MOL    H64 1748   4.027   7.423   5.989 -0.0848  0.8012 -0.5872
    3MOL    H65 1749   4.216   7.333   5.845  0.5989  0.7611  1.3343
    3MOL    H66 1750   4.272   7.496   5.821 -0.6696  1.8983  0.7906
    3MOL    H67 1751   3.997   7.398   5.729 -0.0824 -0.5937 -0.6713
    3MOL    H68 1752   4.062   7.560   5.710  1.0748  0.2328 -1.6504
    3MOL    H69 1753   4.276   7.447   5.599 -0.5426  0.3579 -0.4487
    3MOL    H70 1754   4.178   7.304   5.605  1.2903  0.2069  4.1278
    3MOL    H71 1755   4.077   7.565   5.491  1.0795  1.6637 -1.1408
    3MOL    H72 1756   4.019   7.409   5.455 -0.2955  0.5943 -0.7180
    3MOL    H73 1757   4.297   7.489   5.356  1.0844 -1.1727 -0.0817
    3MOL    H74 1758   4.231   7.339   5.349  2.0592  1.8736  2.5856
    3MOL    H75 1759   4.106   7.582   5.204  4.0206  1.6064  0.8083
    3MOL    H76 1760   4.031   7.426   5.207  0.0373 -0.2889 -2.4517
    3MOL    H77 1761   4.172   7.431   4.995  1.4879  1.7221 -0.2007
    3MOL    H78 1762   4.221   7.309   5.110  0.5281 -1.2942 -1.0916
    3MOL    H79 1763   4.353   7.582   5.049  1.3773  0.2113 -1.5633
    3MOL    H80 1764   4.431   7.478   5.159  1.0983 -1.6448 -0.6632
    3MOL    H81 1765   4.377   7.462   4.857 -2.0106 -1.6340  0.4075
    3MOL    H82 1766   4.425   7.317   4.932 -1.3950  0.2094 -0.0316
    3MOL    H83 1767   4.647   7.395   4.980  0.0865  1.2027  1.8073
    3MOL    H84 1768   4.610   7.566   4.949  0.6737 -0.1411 -1.2951
    3MOL    H85 1769   4.622   7.461   4.817  0.3114  2.7948  0.0234
    3MOL    C86 1770   4.063   7.656   6.221 -0.7064  0.6360 -0.3761
    3MOL    C87 1771   3.915   7.642   6.182 -0.0011  0.6938  0.7505
    3MOL    C88 1772   3.850   0.080   6.131 -0.1808  0.8836 -0.4615
    3MOL    C89 1773   3.868   0.207   6.217  0.0101 -0.1405 -0.1715
    3MOL    C90 1774   3.781   0.326   6.170  0.5342 -0.7997 -0.6016
    3MOL    C91 1775   3.631   0.303   6.213 -0.4672  0.7392  0.4463
    3MOL    C92 1776   3.537   0.424   6.167 -0.3098  0.3323  0.0017
    3MOL    C93 1777   3.494   0.406   6.019  0.1391 -0.0001  0.2916
    3MOL    C94 1778   3.382   0.493   5.983  0.0511  0.0951 -0.1332
    3MOL    C95 1779   3.334   0.463   5.837 -0.2704 -0.3627  0.7999
    3MOL    C96 1780   3.212   0.541   5.777 -0.4026  0.0371  0.6700
    3MOL    C97 1781   3.150   0.457   5.660 -0.8515  0.2857 -0.3866
    3MOL    C98 1782   3.015   0.514   5.624 -0.2886 -0.6025 -0.1352
    3MOL    C99 1783   2.931   0.410   5.544 -0.1354 -0.2797  0.1666
    3MOL   H100 1784   4.071   0.020   6.312 -1.8717 -0.8165  0.6881
    3MOL   H101 1785   4.102   0.026   6.143 -0.2217  0.1225 -0.5668
    3MOL   H102 1786   3.907   7.570   6.101  1.3620  1.1455  0.1872
    3MOL   H103 1787   3.894   0.099   6.033 -1.4293  1.6051 -0.9040
    3MOL   H104 1788   3.742   0.065   6.119 -0.0535  0.5437 -1.2379
    3MOL   H105 1789   3.844   0.182   6.321  0.1881 -1.6787 -0.4852
    3MOL   H106 1790   3.974   0.229   6.223 -0.0023 -0.2128  0.3511
    3MOL   H107 1791   3.798   0.332   6.063 -0.2193 -1.8538 -0.7923
    3MOL   H108 1792   3.823   0.416   6.215  1.0481 -0.6858 -1.3057
    3MOL   H109 1793   3.617   0.287   6.320  2.9762 -0.2869  0.7961
    3MOL   H110 1794   3.590   0.211   6.172  1.0725  1.1313 -2.1172
    3MOL   H111 1795   3.456   0.417   6.240  0.0865  0.6594  0.4771
    3MOL   H112 1796   3.581   0.523   6.184 -1.2687  0.8393 -0.4406
    3MOL   H113 1797   3.467   0.302   5.999 -0.5164 -0.2570  2.3468
    3MOL   H114 1798   3.579   0.425   5.954 -1.1888  1.1757 -1.1295
    3MOL   H115 1799   3.294   0.466   6.042  0.6164  0.9477  1.1069
    3MOL   H116 1800   3.385   0.601   5.987 -1.7855  0.2566 -1.9623
    3MOL   H117 1801   3.296   0.361   5.845  0.0297 -0.4536  1.0525
    3MOL   H118 1802   3.417   0.456   5.767 -1.4872  1.1838 -0.8684
    3MOL   H119 1803   3.140   0.551   5.857  1.3781 -1.3095  2.4783
    3MOL   H120 1804   3.240   0.644   5.752 -2.2150  0.1356 -1.1015
    3MOL   H121 1805   3.214   0.461   5.571 -0.7858  1.4839 -0.2988
    3MOL   H122 1806   3.141   0.351   5.682  1.1306  0.1069 -0.3048
    3MOL   H123 1807   3.036   0.600   5.560 -0.4421  0.5211  1.2815
    3MOL   H124 1808   2.965   0.548   5.715  1.6256  1.5951  0.1478
    3MOL   H125 1809   2.972   0.397   5.443 -0.1042 -1.7294  0.3606
    3MOL   H126 1810   2.922   0.309   5.584 -1.9303 -0.6951 -1.1828
    3MOL   H127 1811   2.829   0.445   5.526 -0.1144  0.4646  1.4236
    3MOL   C128 1812   3.839   7.583   6.307 -0.1229  0.2386 -0.7836
    3MOL   C129 1813   3.715   7.489   6.251  0.4651  0.4958  0.3353
    3MOL   C130 1814   3.750   7.350   6.187 -0.0180  0.2080  0.0094
    3MOL   C131 1815   3.798   7.248   6.296  0.0246  0.4970  0.1204
    3MOL   C132 1816   3.882   7.128   6.244  0.1897 -0.3430  0.7359
    3MOL   C133 1817   4.028   7.168   6.218  0.2880  0.2911 -0.1147
    3MOL   C134 1818   4.121   7.059   6.161  0.2931  0.4834  0.2832
    3MOL   C135 1819   4.253   7.111   6.105  0.6863  0.0181  0.3180
    3MOL   C136 1820   4.341   7.005   6.040 -0.4607 -0.3675 -0.4866
    3MOL   C137 1821   4.472   7.061   5.974  0.4188 -0.1009  0.3546
    3MOL   C138 1822   4.567   6.964   5.905 -0.1057  0.6967 -0.2475
    3MOL   C139 1823   4.519   6.934   5.762 -0.5764  0.1680  0.2945
    3MOL   C140 1824   4.606   6.840   5.689 -0.8987  0.0803  0.0643
    3MOL   C141 1825   4.758   6.884   5.672  0.7974 -0.2588 -1.0400
    3MOL   H142 1826   3.905   7.532   6.377 -1.2554  0.6316  0.5968
    3MOL   H143 1827   3.798   7.666   6.364  1.6947  0.6630 -0.0861
    3MOL   H144 1828   3.673   7.537   6.162  0.3304 -0.9213 -0.3844
    3MOL   H145 1829   3.663   7.315   6.131 -0.1724 -1.0904  1.0340
    3MOL   H146 1830   3.836   7.353   6.120 -0.7851 -0.0294 -0.9931
    3MOL   H147 1831   3.860   7.294   6.373 -0.2971  0.4163  0.4330
    3MOL   H148 1832   3.717   7.206   6.356 -0.8065 -1.4420 -2.2761
    3MOL   H149 1833   3.887   7.041   6.309  0.2143 -0.9649 -0.0892
    3MOL   H150 1834   3.843   7.084   6.153  1.4839 -0.8508  0.4071
    3MOL   H151 1835   4.024   7.243   6.139  0.9667 -1.3418 -1.7312
    3MOL   H152 1836   4.089   7.215   6.295  0.1364 -0.5098  0.5026
    3MOL   H153 1837   4.143   6.990   6.242 -1.7233  0.1206  0.5467
    3MOL   H154 1838   4.070   6.990   6.093 -2.3412  1.1411  1.5234
    3MOL   H155 1839   4.208   7.179   6.033  0.2278 -0.7108 -0.0950
    3MOL   H156 1840   4.311   7.157   6.184  1.8522 -0.6096 -0.1606
    3MOL   H157 1841   4.379   6.925   6.104  1.0803 -0.0216 -0.9378
    3MOL   H158 1842   4.288   6.953   5.960 -1.8766 -1.5723  1.1891
    3MOL   H159 1843   4.524   7.101   6.061  0.5807  0.3073  0.0704
    3MOL   H160 1844   4.451   7.157   5.928 -0.0170  0.3541  1.4922
    3MOL   H161 1845   4.655   7.025   5.887 -0.2686  1.3514  1.1546
    3MOL   H162 1846   4.591   6.876   5.965 -0.6227 -0.1673 -1.2831
    3MOL   H163 1847   4.418   6.892   5.769 -0.9490  0.9457 -0.2624
    3MOL   H164 1848   4.515   7.028   5.707 -1.6011  0.3755  0.7182
    3MOL   H165 1849   4.597   6.741   5.733  0.8999  0.4637  1.3653
    3MOL   H166 1850   4.570   6.818   5.589 -1.1450  3.2005 -0.5974
    3MOL   H167 1851   4.765   6.968   5.604 -0.8931  1.6390  1.0567
    3MOL   H168 1852   4.803   6.904   5.770  0.1350  0.4012 -0.8678
    3MOL   H169 1853   4.812   6.795   5.641 -1.2576 -1.4797 -1.2109
    3MOL   C170 1854   3.609   7.476   6.351 -0.0008  0.4582 -0.7746
    3MOL   C171 1855   3.524   7.602   6.385 -0.3164  0.1386 -0.1429
    3MOL   C172 1856   3.416   7.628   6.275 -0.5324  0.5269 -0.4692
    3MOL   C173 1857   3.343   0.067   6.269 -0.4169 -0.0891 -0.0360
    3MOL   C174 1858   3.240   0.072   6.157  0.5333  0.0832 -0.3438
    3MOL   C175 1859   3.152   0.189   6.150  0.0537 -0.1349 -0.2974
    3MOL   C176 1860   3.056   0.154   6.035  0.0740 -0.2261 -0.3680
    3MOL   C177 1861   2.946   0.259   6.024 -0.4047 -0.1961 -0.3948
    3MOL   C178 1862   2.838   0.215   5.916 -1.1906  0.3924 -0.0022
    3MOL   C179 1863   2.721   0.315   5.904  0.2790  0.3889  0.3172
    3MOL   C180 1864   2.657   0.287   5.766 -0.4335 -0.5135  0.0669
    3MOL   C181 1865   2.572   0.409   5.731 -0.5095 -0.3875 -0.3760
    3MOL   C182 1866   2.513   0.408   5.592  0.0850 -0.5429 -0.2931
    3MOL   C183 1867   2.434   0.531   5.554 -0.7062  0.0462  0.2347
    3MOL   H184 1868   3.658   7.438   6.441 -0.8168 -0.5486 -0.7468
    3MOL   H185 1869   3.543   7.395   6.319  2.6734 -1.7624 -0.7944
    3MOL   H186 1870   3.591   7.688   6.384 -0.0030 -0.1012 -2.4767
    3MOL   H187 1871   3.457   7.605   6.176 -0.4195  1.8158 -0.7188
    3MOL   H188 1872   3.338   7.551   6.274 -0.5122  0.4561  1.2354
    3MOL   H189 1873   3.291   0.093   6.361 -0.1057  1.9855 -0.4321
    3MOL   H190 1874   3.395   0.162   6.262  0.8385 -0.7415  0.3893
    3MOL   H191 1875   3.297   0.068   6.064 -0.2306 -1.6894 -0.7518
    3MOL   H192 1876   3.181   7.676   6.156  1.1674 -0.3512  0.6796
    3MOL   H193 1877   3.214   0.274   6.120  0.0164  0.8023  2.1631
    3MOL   H194 1878   3.098   0.226   6.237 -1.1500 -1.4675 -0.4519
    3MOL   H195 1879   3.002   0.061   6.054  0.9250 -0.3841  1.3949
    3MOL   H196 1880   3.112   0.151   5.942  1.0341  3.2380  0.0480
    3MOL   H197 1881   2.992   0.356   6.004  0.1199 -0.4809 -0.5626
    3MOL   H198 1882   2.896   0.266   6.121 -2.1023 -1.0757 -1.1921
    3MOL   H199 1883   2.805   0.112   5.930  1.4036 -0.3406  1.0535
    3MOL   H200 1884   2.896   0.214   5.823  2.3991 -0.9532  2.1625
    3MOL   H201 1885   2.744   0.420   5.920  0.4309  0.4632 -0.3613
    3MOL   H202 1886   2.655   0.294   5.988 -0.1350  0.0963 -0.0764
    3MOL   H203 1887   2.605   0.191   5.768  0.7009 -1.2295 -2.8264
    3MOL   H204 1888   2.726   0.279   5.682  1.1647  1.7039  1.1172
    3MOL   H205 1889   2.493   0.437   5.801 -0.1039 -0.4676  0.1180
    3MOL   H206 1890   2.636   0.496   5.742  1.6243 -2.3616  3.9507
    3MOL   H207 1891   2.588   0.398   5.513 -0.0837  1.1165 -0.6635
    3MOL   H208 1892   2.451   0.319   5.581 -0.9834  0.1682  0.0113
    3MOL   H209 1893   2.350   0.549   5.621  0.1856 -2.1383  2.0107
    3MOL   H210 1894   2.392   0.508   5.456 -0.1119  1.0939 -0.2636
    3MOL   H211 1895   2.505   0.613   5.558 -1.2051  0.4562  0.6397
    3MOL   C212 1896   3.469   7.589   6.531 -0.0584  0.2605 -0.1605
    3MOL   C213 1897   3.517   0.005   6.630 -0.3348 -0.6538  0.0884
    3MOL   C214 1898   3.427   0.037   6.745  0.4630  0.2961 -0.3735
    3MOL   C215 1899   3.303   0.124   6.702  0.3902  0.1224 -0.0954
    3MOL   C216 1900   3.185   0.124   6.805 -0.2987 -0.0449  0.0345
    3MOL   C217 1901   3.087   0.233   6.785 -0.1019 -0.3635  0.4877
    3MOL   C218 1902   2.962   0.223   6.873  0.2925 -0.5941  0.0993
    3MOL   C219 1903   2.959   0.268   7.021  0.1388  0.0712  0.2818
    3MOL   C220 1904   2.813   0.280   7.081 -0.1942  0.0143 -0.3675
    3MOL   C221 1905   2.730   0.150   7.082  0.2812  0.7694 -0.2502
    3MOL   C222 1906   2.598   0.159   7.160  0.5968  0.2389  0.0356
    3MOL   C223 1907   2.529   0.023   7.170 -0.1380  0.6156  0.3291
    3MOL   C224 1908   2.398   0.034   7.254  0.4265  0.3548  0.6222
    3MOL   C225 1909   2.342   7.588   7.265 -0.6168 -0.0339  0.0825
    3MOL   H226 1910   3.499   7.495   6.577 -0.3317  0.7769  1.1119
    3MOL   H227 1911   3.360   7.590   6.532 -0.0715 -0.8993  1.2220
    3MOL   H228 1912   3.532   0.098   6.574  0.2003  0.2984  1.7689
    3MOL   H229 1913   3.371   7.643   6.773  0.1625 -0.2067 -2.4975
    3MOL   H230 1914   3.475   0.083   6.832 -1.3557  0.3525  0.6354
    3MOL   H231 1915   3.262   0.119   6.601 -0.3727 -1.8108  0.2978
    3MOL   H232 1916   3.337   0.227   6.695  2.8464 -0.6698 -0.3243
    3MOL   H233 1917   3.218   0.130   6.908  0.1477  0.3488 -0.1277
    3MOL   H234 1918   3.135   0.027   6.803 -1.5547  0.5745  1.1759
    3MOL   H235 1919   3.051   0.219   6.683  3.9226  1.1016 -1.2180
    3MOL   H236 1920   3.125   0.334   6.776  0.5451 -0.6738 -0.3506
    3MOL   H237 1921   2.883   0.271   6.815  0.4066 -0.4834  0.0328
    3MOL   H238 1922   2.923   0.122   6.863 -2.6532  0.3349  1.6995
    3MOL   H239 1923   3.020   0.205   7.087  1.0186 -0.2285 -0.7934
    3MOL   H240 1924   3.012   0.363   7.019 -0.2883  0.2973 -0.6003
    3MOL   H241 1925   2.753   0.351   7.024 -0.5703  0.9362  1.1680
    3MOL   H242 1926   2.821   0.303   7.187 -1.6140 -1.1816  0.0344
    3MOL   H243 1927   2.710   0.125   6.978 -1.1057  0.6870  0.0332
    3MOL   H244 1928   2.785   0.068   7.129  1.4276  2.3910  1.3172
    3MOL   H245 1929   2.520   0.221   7.116 -0.3834 -2.1249 -1.6848
    3MOL   H246 1930   2.612   0.201   7.259 -3.9539  1.4324  0.2959
    3MOL   H247 1931   2.605   7.661   7.223  0.4278  0.3066 -0.8145
    3MOL   H248 1932   2.511   7.669   7.075  2.6491 -1.0932  0.6306
    3MOL   H249 1933   2.329   0.103   7.205  1.1498  1.0050  0.4972
    3MOL   H250 1934   2.405   0.081   7.352 -3.3621  2.4071  0.0084
    3MOL   H251 1935   2.411   7.533   7.329 -0.5579 -1.8807 -1.5210
    3MOL   H252 1936   2.242   7.581   7.306 -1.4152 -2.1543 -2.1363
    3MOL   H253 1937   2.342   7.536   7.170  0.5122  0.8382 -0.4127
    3MOL   C254 1938   3.663   7.668   6.673  0.8836  0.2985  0.3642
    3MOL   C255 1939   3.737   0.095   6.735  0.5663  0.2459 -0.0530
    3MOL   C256 1940   3.839   0.051   6.840 -0.0769  0.0345 -0.1026
    3MOL   C257 1941   3.789   7.677   6.969  0.7063 -0.1507 -0.1956
    3MOL   C258 1942   3.903   7.632   7.065 -0.0140 -0.0565 -0.3788
    3MOL   C259 1943   3.868   7.654   7.208  0.1387 -0.2575  0.2098
    3MOL   C260 1944   3.980   7.615   7.300  0.1049  0.5482 -0.3865
    3MOL   C261 1945   3.931   7.596   7.443 -0.4826  0.1465 -0.8788
    3MOL   C262 1946   4.049   7.554   7.533 -0.5739  1.0720 -0.2355
    3MOL   C263 1947   3.996   7.510   7.667  0.6810  0.2277 -1.4406
    3MOL   C264 1948   4.087   7.424   0.052  0.3608  0.1587 -0.7332
    3MOL   C265 1949   4.040   7.376   0.194  0.0522 -0.1379  0.1364
    3MOL   C266 1950   4.084   7.470   0.309 -0.5515 -0.0131 -0.5140
    3MOL   C267 1951   4.022   7.449   0.446 -0.4731  0.2543 -0.1286
    3MOL   H268 1952   3.717   7.623   6.589 -0.5703 -0.9604  0.0692
    3MOL   H269 1953   3.662   7.589   6.748 -2.2968  1.0227  1.1702
    3MOL   H270 1954   3.668   0.154   6.795  0.7774  0.3455  0.0927
    3MOL   H271 1955   3.893   0.140   6.872  1.5439 -0.2838 -1.8001
    3MOL   H272 1956   3.919   7.690   6.792 -0.8709 -0.3066 -1.0372
    3MOL   H273 1957   3.727   7.591   6.944 -1.1463  0.5583  1.8099
    3MOL   H274 1958   3.724   0.056   7.014 -2.0819 -1.8245 -1.3734
    3MOL   H275 1959   3.996   7.684   7.045 -0.7616  1.3289 -0.3167
    3MOL   H276 1960   3.917   7.524   7.053  0.9143  0.1031 -0.7441
    3MOL   H277 1961   3.780   7.599   7.242 -0.1822  0.7993  1.1227
    3MOL   H278 1962   3.847   0.062   7.232 -1.4778 -1.2028  3.1175
    3MOL   H279 1963   4.013   7.514   7.272 -1.1517 -0.5020  1.8195
    3MOL   H280 1964   4.062   7.687   7.300 -0.1512  0.8348 -0.1093
    3MOL   H281 1965   3.852   7.520   7.443 -0.1613 -0.1913 -0.2290
    3MOL   H282 1966   3.903   7.693   7.483  1.2044  1.1599 -2.0705
    3MOL   H283 1967   4.107   7.473   7.489  1.2708  1.2486  1.7810
    3MOL   H284 1968   4.109   7.644   7.541 -1.4747  1.4831  2.4331
    3MOL   H285 1969   3.902   7.458   7.653  0.7795 -0.9658  1.8155
    3MOL   H286 1970   3.964   7.600   0.024  0.8992 -2.0895  2.8505
    3MOL   H287 1971   4.194   7.446   0.051  0.4230 -0.1824 -2.3590
    3MOL   H288 1972   4.084   7.330   7.693  0.2841 -0.9499  1.1328
    3MOL   H289 1973   3.932   7.365   0.197  0.2257 -2.2995 -0.4290
    3MOL   H290 1974   4.082   7.276   0.208  0.9513  0.2507  0.2286
    3MOL   H291 1975   4.193   7.472   0.300 -0.2711 -0.9161  2.2670
    3MOL   H292 1976   4.058   7.573   0.286  0.8802  0.6334  0.6454
    3MOL   H293 1977   4.034   7.345   0.477  3.9771  0.6451 -0.2282
    3MOL   H294 1978   3.917   7.474   0.462 -0.7823 -0.9547 -0.1981
    3MOL   H295 1979   4.073   7.518   0.514 -0.0975  0.1046 -0.2544
    3MOL   C296 1980   3.811   0.190   6.631 -0.2209  0.4022 -0.1035
    3MOL   C297 1981   3.817   0.343   6.662  0.5836 -0.8538 -0.6045
    3MOL   C298 1982   3.907   0.422   6.565 -0.0050 -0.3669 -0.0223
    3MOL   C299 1983   4.054   0.428   6.605  0.0942 -0.7567 -0.1457
    3MOL   C300 1984   4.142   0.541   6.546 -0.2893 -0.0542 -0.1589
    3MOL   C301 1985   4.163   0.541   6.394  0.4014  0.2975  0.0460
    3MOL   C302 1986   4.271   0.642   6.362 -0.5859 -0.4557 -0.2047
    3MOL   C303 1987   4.292   0.669   6.216  0.2014  0.7135 -0.1872
    3MOL   C304 1988   4.397   0.779   6.195 -0.1968  0.3859  0.4574
    3MOL   C305 1989   4.379   0.840   6.047  0.1692 -0.3148  0.0875
    3MOL   C306 1990   4.397   0.741   5.937  0.1353  0.6076  0.6233
    3MOL   C307 1991   4.319   0.789   5.818  0.0659 -0.9002  0.4181
    3MOL   C308 1992   4.356   0.700   5.702 -0.4406  0.0650 -0.0478
    3MOL   C309 1993   4.267   0.728   5.581  1.0199  0.2600  0.3034
    3MOL   H310 1994   3.761   0.179   6.535 -0.7592 -1.1333  0.3411
    3MOL   H311 1995   3.914   0.156   6.615  0.0747  0.8565  0.8326
    3MOL   H312 1996   3.862   0.364   6.760 -0.5223  2.9428 -0.8383
    3MOL   H313 1997   3.866   0.521   6.544 -0.5904 -0.4567  0.6751
    3MOL   H314 1998   3.894   0.372   6.469 -1.0079  0.4902 -0.3416
    3MOL   H315 1999   4.098   0.333   6.574 -2.3043 -2.3588  1.2212
    3MOL   H316 2000   4.061   0.443   6.712 -2.6795 -0.3198  0.0248
    3MOL   H317 2001   4.100   0.634   6.583 -0.0414 -0.2559  0.6496
    3MOL   H318 2002   4.240   0.533   6.594 -0.5734 -0.2245  0.3947
    3MOL   H319 2003   4.078   0.569   6.332 -1.2787  1.5994  2.8703
    3MOL   H320 2004   4.200   0.444   6.359  0.6008  0.7182 -0.9216
    3MOL   H321 2005   4.242   0.736   6.408  3.7237  0.9893 -0.2517
    3MOL   H322 2006   4.366   0.613   6.407  0.3458  3.2953  0.3423
    3MOL   H323 2007   4.200   0.710   6.172  0.6029  1.3910 -0.4165
    3MOL   H324 2008   4.307   0.578   6.159  0.6443  0.1513  0.8204
    3MOL   H325 2009   4.402   0.852   6.275  1.7823 -0.5292  1.2165
    3MOL   H326 2010   4.496   0.732   6.197 -0.1525  0.5114  1.3628
    3MOL   H327 2011   4.451   0.922   6.042  0.0077 -0.0762  1.6656
    3MOL   H328 2012   4.280   0.881   6.033  0.8877  1.2060 -0.6357
    3MOL   H329 2013   4.359   0.642   5.962  2.3255 -0.5992 -0.6758
    3MOL   H330 2014   4.503   0.730   5.912 -0.6313 -2.1315 -1.6143
    3MOL   H331 2015   4.354   0.890   5.796 -2.0735 -0.5343 -1.4821
    3MOL   H332 2016   4.213   0.795   5.842  0.1111  2.2295 -0.0268
    3MOL   H333 2017   4.345   0.596   5.733 -0.4016 -0.3460 -1.3852
    3MOL   H334 2018   4.463   0.719   5.695 -0.3413  0.2209  1.6177
    3MOL   H335 2019   4.294   0.662   5.499  0.5719  1.9883 -1.2749
    3MOL   H336 2020   4.161   0.739   5.603  1.5219  3.1223  1.5551
    3MOL   H337 2021   4.289   0.827   5.540  0.9829  0.1681  0.0622
    3MOL   C338 2022   3.671   0.403   6.655  0.2199 -0.3678  0.6345
    3MOL   C339 2023   3.651   0.541   6.723 -0.2119 -0.2470 -0.2831
    3MOL   C340 2024   3.576   0.648   6.631  0.3746 -0.0493 -0.3428
    3MOL   C341 2025   3.447   0.600   6.557 -0.4771 -0.1078 -0.3478
    3MOL   C342 2026   3.386   0.717   6.466  0.5454  0.4140  0.1377
    3MOL   C343 2027   3.272   0.658   6.384  0.2834  0.1455 -0.3640
    3MOL   C344 2028   3.233   0.761   6.272 -0.3965  0.0763  0.3786
    3MOL   C345 2029   3.105   0.720   6.198 -0.3719 -0.3058 -0.0865
    3MOL   C346 2030   3.084   0.800   6.064 -0.6735 -0.1827 -0.3190
    3MOL   C347 2031   2.948   0.775   6.007 -0.6773  0.6607 -0.0412
    3MOL   C348 2032   2.927   0.859   5.879  0.5432  0.0473  0.2129
    3MOL   C349 2033   2.782   0.844   5.833 -0.0958 -0.2633 -0.0327
    3MOL   C350 2034   2.745   0.902   5.694 -0.2768 -0.1269 -0.0230
    3MOL   C351 2035   2.595   0.879   5.674  0.2853 -0.1318  0.6651
    3MOL   H352 2036   3.660   0.415   6.547 -2.4092  1.5367  1.0525
    3MOL   H353 2037   3.593   0.332   6.681  0.0808  0.5096  2.7054
    3MOL   H354 2038   3.754   0.569   6.741 -0.1619 -1.5735  1.7119
    3MOL   H355 2039   3.556   0.734   6.695  0.7460  0.9584 -1.5810
    3MOL   H356 2040   3.652   0.686   6.563  1.6317 -1.6436  0.1239
    3MOL   H357 2041   3.372   0.577   6.633 -0.5640  2.7771  0.4993
    3MOL   H358 2042   3.465   0.504   6.509 -1.5026  0.4675 -1.9339
    3MOL   H359 2043   3.464   0.769   6.410  0.9173 -0.4891 -0.1856
    3MOL   H360 2044   3.343   0.791   6.533 -2.1540 -0.3518 -0.6958
    3MOL   H361 2045   3.308   0.566   6.339  1.1583  0.0981  0.4137
    3MOL   H362 2046   3.183   0.633   6.441  0.7183  0.0174  0.2669
    3MOL   H363 2047   3.226   0.866   6.302 -2.6916  0.9434 -2.9074
    3MOL   H364 2048   3.310   0.751   6.195 -0.2104 -0.7753  0.6768
    3MOL   H365 2049   3.106   0.614   6.173 -3.5693  0.0201 -1.8137
    3MOL   H366 2050   3.024   0.728   6.270  1.8296 -0.3797  2.4754
    3MOL   H367 2051   3.104   0.907   6.071 -0.3202 -0.3452  1.1449
    3MOL   H368 2052   3.150   0.781   5.980 -0.6515 -0.6721 -0.1882
    3MOL   H369 2053   2.947   0.670   5.977  0.4862  0.5043  0.4347
    3MOL   H370 2054   2.873   0.799   6.082  0.7936 -0.7494  1.9542
    3MOL   H371 2055   2.999   0.828   5.804  2.8367 -0.2889  2.4775
    3MOL   H372 2056   2.937   0.964   5.908 -2.0448  0.2812  0.4298
    3MOL   H373 2057   2.713   0.888   5.905  3.0895  1.4014  2.1063
    3MOL   H374 2058   2.753   0.739   5.834  3.2503 -1.2316 -0.5925
    3MOL   H375 2059   2.764   1.009   5.682 -3.4848  0.2113 -2.7559
    3MOL   H376 2060   2.798   0.844   5.618 -1.2086  0.1531 -0.9006
    3MOL   H377 2061   2.559   0.781   5.704  0.6591 -0.0408  1.4246
    3MOL   H378 2062   2.532   0.956   5.720 -1.9888 -1.7830  0.4121
    3MOL   H379 2063   2.576   0.888   5.567  0.0613  2.1281  0.8758
    3MOL   C380 2064   3.573   0.547   6.856  0.1378 -0.2334  0.8432
    3MOL   C381 2065   3.638   0.462   6.968 -0.0932 -0.7126  0.0660
    3MOL   C382 2066   3.771   0.517   7.022  0.8444 -0.6057  0.0656
    3MOL   C383 2067   3.861   0.405   7.081 -0.0802  0.4454  0.3552
    3MOL   C384 2068   3.977   0.451   7.165 -0.4810  0.0801 -0.3921
    3MOL   C385 2069   4.064   0.332   7.228 -0.4723 -0.2444  0.0955
    3MOL   C386 2070   4.200   0.377   7.276 -0.2447  0.1919  0.1561
    3MOL   C387 2071   4.281   0.263   7.344 -0.5184 -0.4336  0.0157
    3MOL   C388 2072   4.428   0.303   7.391 -0.4629 -0.9629  0.4945
    3MOL   C389 2073   4.471   0.225   7.518 -0.2323 -0.1267  0.3952
    3MOL   C390 2074   4.481   0.069   7.522 -0.3950  0.2769 -0.3026
    3MOL   C391 2075   4.517   0.016   7.663  0.2152  0.3789  0.8568
    3MOL   C392 2076   4.441   7.588   0.010  0.5793  0.1170 -0.3710
    3MOL   C393 2077   4.492   7.516   0.138 -0.6910 -0.1009  0.3909
    3MOL   H394 2078   3.465   0.537   6.848 -0.1460  3.1478 -0.3678
    3MOL   H395 2079   3.581   0.649   6.893  1.4895  0.0429 -0.1539
    3MOL   H396 2080   3.653   0.365   6.921  1.6388  1.1816 -3.4409
    3MOL   H397 2081   3.745   0.588   7.101 -3.8884  0.3981 -2.2580
    3MOL   H398 2082   3.826   0.576   6.949  0.8853 -0.5876  0.1117
    3MOL   H399 2083   3.900   0.358   6.991  1.0843  1.0758  0.5164
    3MOL   H400 2084   3.809   0.329   7.140  3.0730 -3.2796 -1.4487
    3MOL   H401 2085   3.926   0.507   7.243  1.2711  1.1097  0.0237
    3MOL   H402 2086   4.046   0.507   7.102  1.0087 -1.6378 -0.3415
    3MOL   H403 2087   4.069   0.249   7.156 -1.2460  0.0928 -0.3546
    3MOL   H404 2088   4.016   0.284   7.312  0.3009 -2.7272 -0.8135
    3MOL   H405 2089   4.254   0.416   7.190  0.3624  0.1172  0.4953
    3MOL   H406 2090   4.178   0.459   7.344 -3.0749 -0.1069 -0.3186
    3MOL   H407 2091   4.220   0.217   7.422 -0.4817  0.8655  0.8242
    3MOL   H408 2092   4.290   0.176   7.279 -2.4229 -0.9831  0.4616
    3MOL   H409 2093   4.497   0.304   7.307  0.6820  0.7441  1.4303
    3MOL   H410 2094   4.428   0.406   7.426 -0.3168 -1.5306  2.2666
    3MOL   H411 2095   4.386   0.256   7.579 -1.8218  0.1240 -1.8886
    3MOL   H412 2096   4.560   0.272   7.560 -1.4967  1.5302  1.2801
    3MOL   H413 2097   4.387   0.033   7.481  0.2583 -1.0603 -0.6846
    3MOL   H414 2098   4.570   0.040   7.467  1.5378  0.2199  2.7002
    3MOL   H415 2099   4.507   0.099   0.036  1.0530  2.1315 -1.0779
    3MOL   H416 2100   4.625   0.001   7.663 -0.0075 -1.3588  1.0520
    3MOL   H417 2101   4.339   7.620   0.030 -0.0379 -0.9442 -1.6982
    3MOL   H418 2102   4.448   7.511   7.629 -0.9162  0.7741 -1.1695
    3MOL   H419 2103   4.433   7.428   0.160 -0.6850  0.0837  1.1473
    3MOL   H420 2104   4.488   7.581   0.225  1.1783  1.9037 -0.9541
    3MOL   H421 2105   4.589   7.469   0.120  0.3738  2.2045 -0.1211
    3MOL   C422 2106   3.545   0.449   7.093  0.1706  0.4980  0.0566
    3MOL   C423 2107   3.433   0.346   7.089 -0.5137  0.4911 -0.0557
    3MOL   C424 2108   3.452   0.220   7.182 -0.4791 -0.0382 -0.1235
    3MOL   C425 2109   3.347   0.108   7.158 -0.3103 -0.5930  0.8197
    3MOL   C426 2110   3.369   7.685   7.250 -0.1073 -0.5972  1.0810
    3MOL   C427 2111   3.264   7.576   7.230  0.0972  0.1891  0.2384
    3MOL   C428 2112   3.259   7.509   7.094 -0.0510  0.3201  0.5262
    3MOL   C429 2113   3.109   7.507   7.045  0.2818 -0.9796  0.1432
    3MOL   C430 2114   3.100   7.417   6.920  0.2734  0.0012 -0.2407
    3MOL   C431 2115   2.958   7.368   6.887 -0.4925  0.2580 -1.0773
    3MOL   C432 2116   2.862   7.467   6.833 -0.5208 -0.5611  0.0719
    3MOL   C433 2117   2.709   7.444   6.815  0.2924  0.4285  0.5395
    3MOL   C434 2118   2.624   7.564   6.753 -0.5682 -0.3414 -0.9437
    3MOL   C435 2119   2.470   7.547   6.745 -0.0420  0.1993  0.1151
    3MOL   H436 2120   3.505   0.547   7.120  0.1346 -0.2277  2.7452
    3MOL   H437 2121   3.611   0.429   7.178 -0.9515 -1.2507  0.5286
    3MOL   H438 2122   3.415   0.301   6.991 -1.3909 -0.1151  0.3719
    3MOL   H439 2123   3.464   0.243   7.288  0.5631  1.9345 -0.6573
    3MOL   H440 2124   3.549   0.186   7.146 -1.5220 -1.5634 -1.5749
    3MOL   H441 2125   3.242   0.137   7.164 -0.1089  0.5726 -1.0185
    3MOL   H442 2126   3.365   0.079   7.055  0.9610  3.5165 -0.2066
    3MOL   H443 2127   3.372   0.013   7.356  0.3037 -3.6802  1.7920
    3MOL   H444 2128   3.466   7.640   7.232 -0.5557 -0.9269 -0.5957
    3MOL   H445 2129   3.174   7.635   7.248 -0.7353  0.1270 -3.2462
    3MOL   H446 2130   3.286   7.509   7.314  1.3236  1.2733  0.7913
    3MOL   H447 2131   3.324   7.556   7.020 -1.1190  0.6212 -0.2372
    3MOL   H448 2132   3.310   7.412   7.101 -1.3130 -0.5162 -1.3300
    3MOL   H449 2133   3.049   7.465   7.125 -0.2033  0.0035  0.3041
    3MOL   H450 2134   3.075   7.608   7.025  1.4213 -0.2881  1.6006
    3MOL   H451 2135   3.142   7.465   6.832 -0.9456  0.5695 -0.5206
    3MOL   H452 2136   3.166   7.330   6.922  0.0418 -0.1828 -0.5296
    3MOL   H453 2137   2.965   7.286   6.816  0.2129 -0.2640 -0.4039
    3MOL   H454 2138   2.919   7.313   6.972  0.4273  1.1959 -0.0406
    3MOL   H455 2139   2.864   7.552   6.902  2.1579  1.3036 -2.2026
    3MOL   H456 2140   2.901   7.501   6.737  1.1468 -0.8392  0.6274
    3MOL   H457 2141   2.665   7.421   6.912  2.4018 -2.7857  0.8121
    3MOL   H458 2142   2.684   7.358   6.753 -0.3678  1.1541 -0.2148
    3MOL   H459 2143   2.645   7.647   6.819 -1.8964 -0.7884  0.0604
    3MOL   H460 2144   2.673   7.582   6.657  1.5962 -1.5906 -0.1199
    3MOL   H461 2145   2.438   7.632   6.805  0.4785 -1.7590  3.2386
    3MOL   H462 2146   2.441   7.451   6.788  0.2466 -0.0360 -0.2129
    3MOL   H463 2147   2.428   7.546   6.644 -3.6120  0.9355  1.5221
    3MOL   C464 2148   3.300   0.421   7.119  0.6156  0.2136 -0.5847
    3MOL   C465 2149   3.269   0.473   7.260 -0.0488 -0.3007  0.0930
    3MOL   C466 2150   3.206   0.608   7.262  0.0121 -0.3714 -0.0319
    3MOL   C467 2151   3.079   0.617   7.180 -0.1465  0.3948  0.3391
    3MOL   C468 2152   2.980   0.726   7.239 -0.0840 -0.4876 -0.5006
    3MOL   C469 2153   2.884   0.776   7.134 -0.4168  0.5068  0.0599
    3MOL   C470 2154   2.795   0.673   7.072 -0.0048  0.3749  0.2643
    3MOL   C471 2155   2.691   0.735   6.978  0.6907 -0.4647 -0.0821
    3MOL   C472 2156   2.600   0.633   6.899  0.1880 -1.0168 -1.0730
    3MOL   C473 2157   2.523   0.702   6.773  0.7831  0.3296  0.4044
    3MOL   C474 2158   2.435   0.600   6.699 -0.1283  0.1129 -0.5770
    3MOL   C475 2159   2.342   0.682   6.606  0.2021 -0.3324 -0.3426
    3MOL   C476 2160   2.218   0.617   6.549 -0.3066 -0.2348  0.4542
    3MOL   C477 2161   2.149   0.708   6.442  1.1694  0.3823 -0.2105
    3MOL   H478 2162   3.218   0.364   7.075  0.1091 -0.8562  1.6933
    3MOL   H479 2163   3.297   0.509   7.055 -1.1284  2.4688  2.4655
    3MOL   H480 2164   3.364   0.483   7.314  0.4608 -2.0679 -0.4354
    3MOL   H481 2165   3.186   0.639   7.364 -0.0601  0.7498 -0.3784
    3MOL   H482 2166   3.283   0.682   7.240  2.6200 -2.1748  2.6669
    3MOL   H483 2167   3.021   0.524   7.184 -0.5627  0.5602 -1.2678
    3MOL   H484 2168   3.105   0.632   7.075  0.4252 -1.3477  0.2058
    3MOL   H485 2169   3.038   0.814   7.268 -1.2960  0.4650 -0.9316
    3MOL   H486 2170   2.932   0.692   7.330 -2.8298  0.7344 -1.4416
    3MOL   H487 2171   2.819   0.844   7.188 -0.8217  1.6855 -1.8834
    3MOL   H488 2172   2.939   0.832   7.059 -1.7178  1.0768 -0.4668
    3MOL   H489 2173   2.858   0.609   7.009 -0.6092  2.5147 -2.6354
    3MOL   H490 2174   2.755   0.607   7.149 -0.3012 -0.2186 -0.3908
    3MOL   H491 2175   2.633   0.808   7.033 -0.6041 -0.1728 -1.8057
    3MOL   H492 2176   2.746   0.783   6.897  0.7208 -1.0057 -0.3881
    3MOL   H493 2177   2.672   0.559   6.865  1.4556  0.0884 -0.8663
    3MOL   H494 2178   2.537   0.576   6.966  2.1214 -2.0326 -0.0696
    3MOL   H495 2179   2.459   0.774   6.822 -0.1451 -1.3085  1.6551
    3MOL   H496 2180   2.592   0.747   6.702 -0.2926  2.0545  0.4405
    3MOL   H497 2181   2.497   0.526   6.648  2.2988  1.3834  0.3922
    3MOL   H498 2182   2.372   0.541   6.766  0.3464 -1.7065 -1.6858
    3MOL   H499 2183   2.401   0.710   6.519 -0.0195  0.8925 -0.1057
    3MOL   H500 2184   2.313   0.777   6.651  1.3384  0.5306 -1.3847
    3MOL   H501 2185   2.242   0.517   6.513  0.6071  0.7051 -1.6198
    3MOL   H502 2186   2.148   0.601   6.632 -0.6557  0.1643  0.2401
    3MOL   H503 2187   2.097   0.789   6.493 -0.7328 -2.0060  1.6996
    3MOL   H504 2188   2.228   0.754   6.381  1.1852 -0.7823 -1.0849
    3MOL   H505 2189   2.072   0.664   6.379  3.0368 -0.6525 -1.8671
    3MOL   C506 2190   3.184   0.367   7.342 -0.1580 -0.7929 -0.2821
    3MOL   C507 2191   3.135   0.403   7.489  0.1719 -0.3829  0.3288
    3MOL   C508 2192   2.983   0.361   7.511 -0.0076 -0.5543  1.0034
    3MOL   C509 2193   2.959   0.206   7.501 -0.2675  0.6219  0.1084
    3MOL   C510 2194   2.806   0.156   7.495  0.2731 -0.1104  0.5732
    3MOL   C511 2195   2.717   0.221   7.603  0.7144 -0.2288 -0.1812
    3MOL   C512 2196   2.747   0.174   0.051  0.0212  0.3561  0.2080
    3MOL   C513 2197   2.740   0.020   0.084  0.2373 -0.1701 -0.1170
    3MOL   C514 2198   2.605   7.653   0.045 -0.4521 -0.4020 -0.1083
    3MOL   C515 2199   2.478   0.005   0.111  0.4329  0.1663 -0.3692
    3MOL   C516 2200   2.352   7.624   0.063 -0.6129  0.2474  0.4002
    3MOL   C517 2201   2.290   7.651   7.618 -0.0336 -0.0628  0.5413
    3MOL   C518 2202   2.214   0.085   7.627  0.1558  0.1939  0.0709
    3MOL   C519 2203   2.140   0.112   7.496  0.0302 -0.7482 -0.2577
    3MOL   H520 2204   3.242   0.275   7.342  0.5895 -0.3873  2.7177
    3MOL   H521 2205   3.097   0.338   7.283  0.9772 -3.1133 -0.8640
    3MOL   H522 2206   3.133   0.509   7.514  1.5934 -0.8664  2.6136
    3MOL   H523 2207   2.942   0.405   7.601 -0.7825  0.9847 -0.0760
    3MOL   H524 2208   2.927   0.401   7.427 -0.3484 -1.4364  0.8063
    3MOL   H525 2209   3.012   0.163   7.417 -1.7545  1.6656 -1.3916
    3MOL   H526 2210   3.007   0.153   7.584  1.4474 -0.1409 -1.3448
    3MOL   H527 2211   2.790   0.048   7.500  2.9586 -0.6249 -0.9628
    3MOL   H528 2212   2.771   0.192   7.398 -2.1512 -2.0439  0.6713
    3MOL   H529 2213   2.610   0.224   7.581  1.0259 -1.4866 -1.9647
    3MOL   H530 2214   2.731   0.328   7.583 -2.1354  0.2418  0.0965
    3MOL   H531 2215   2.842   0.222   0.073  0.4123 -0.5644  0.5348
    3MOL   H532 2216   2.679   0.224   0.119 -2.1344 -0.4688 -1.2343
    3MOL   H533 2217   2.753   0.011   0.192  1.3104  1.0213 -0.1345
    3MOL   H534 2218   2.825   7.667   0.036 -1.0216 -1.1825 -1.3375
    3MOL   H535 2219   2.607   7.544   0.046  0.9722 -0.3884 -0.0045
    3MOL   H536 2220   2.595   7.676   7.635 -1.1007 -0.1558  0.0060
    3MOL   H537 2221   2.486   7.694   0.220 -3.4199 -0.5554 -0.0494
    3MOL   H538 2222   2.452   0.108   0.085 -1.1297 -0.2653 -0.5907
    3MOL   H539 2223   2.390   7.522   0.071 -1.6632 -0.0626  1.6894
    3MOL   H540 2224   2.269   7.638   0.133 -1.7955  0.2793 -1.0016
    3MOL   H541 2225   2.224   7.571   7.586  2.1108 -1.2959 -0.9001
    3MOL   H542 2226   2.370   7.648   7.544 -0.0020 -2.0157  0.6313
    3MOL   H543 2227   2.282   0.161   7.666 -0.0038  0.6390 -0.5011
    3MOL   H544 2228   2.137   0.069   0.006 -0.1177 -1.0383 -0.4541
    3MOL   H545 2229   2.215   0.140   7.422  2.0150  2.0478  2.6773
    3MOL   H546 2230   2.070   0.034   7.467  1.4070 -1.3917 -1.9402
    3MOL   H547 2231   2.081   0.203   7.505 -1.4050 -1.8791  2.1815
    3MOL   C548 2232   3.224   0.350   7.597 -0.0379 -0.2969  0.0310
    3MOL   C549 2233   3.189   0.389   0.052 -0.2099  1.6377 -0.6066
    3MOL   C550 2234   3.273   0.320   0.160 -0.0082 -0.1511 -0.4192
    3MOL   C551 2235   3.241   0.175   0.178  0.3183  0.5022 -0.9836
    3MOL   C552 2236   3.270   0.130   0.327  0.1350  0.1088  0.0471
    3MOL   C553 2237   3.238   7.672   0.346 -0.4430 -0.3649  1.3314
    3MOL   C554 2238   3.092   7.631   0.321  0.1832 -0.2633 -0.0199
    3MOL   C555 2239   3.072   7.481   0.360  0.0168 -0.1086 -0.3524
    3MOL   C556 2240   2.938   7.431   0.300 -0.0826  0.5347 -0.0400
    3MOL   C557 2241   2.911   7.282   0.317 -0.5203 -0.3521 -0.3360
    3MOL   C558 2242   2.797   7.222   0.227  0.2233  0.1167 -0.3199
    3MOL   C559 2243   2.658   7.268   0.269  0.3225  0.0043 -0.3448
    3MOL   C560 2244   2.533   7.195   0.217  0.3783  0.5404  0.2340
    3MOL   C561 2245   2.527   7.208   0.065  0.0752  0.2068  0.1586
    3MOL   H562 2246   3.229   0.242   7.589 -0.2257 -0.2556 -0.6838
    3MOL   H563 2247   3.327   0.375   7.576  0.3229 -1.4509  0.4027
    3MOL   H564 2248   3.083   0.372   0.070 -0.1574  0.3011 -1.4776
    3MOL   H565 2249   3.381   0.336   0.160  0.1840 -1.1408  2.0956
    3MOL   H566 2250   3.246   0.375   0.251  2.6203 -0.9616  0.8851
    3MOL   H567 2251   3.270   0.120   0.089  1.1748  2.7402 -2.1210
    3MOL   H568 2252   3.133   0.162   0.169  0.5907 -2.0046 -1.0200
    3MOL   H569 2253   3.375   0.133   0.355  0.1396 -0.2461  0.0698
    3MOL   H570 2254   3.213   0.200   0.388  0.1932 -1.3753  1.8545
    3MOL   H571 2255   3.256   7.652   0.452 -0.7776 -0.0275  1.4503
    3MOL   H572 2256   3.314   7.621   0.286  0.5166 -0.3730  2.5337
    3MOL   H573 2257   3.035   7.687   0.395 -0.8288 -2.8080  1.2001
    3MOL   H574 2258   3.065   7.660   0.219  1.8716 -0.5219 -0.5469
    3MOL   H575 2259   3.069   7.477   0.469  0.8777  0.8834 -0.2869
    3MOL   H576 2260   3.147   7.404   0.338 -1.7401 -1.7827 -0.5805
    3MOL   H577 2261   2.932   7.458   0.195  2.3230 -3.0434 -1.2300
    3MOL   H578 2262   2.858   7.489   0.346  0.2913  0.2879  0.9423
    3MOL   H579 2263   3.001   7.224   0.295  0.8563  1.1053  1.3350
    3MOL   H580 2264   2.904   7.255   0.422 -0.1497  0.3218 -0.1349
    3MOL   H581 2265   2.795   7.113   0.231 -1.7874  0.1206 -1.1226
    3MOL   H582 2266   2.823   7.243   0.123  1.3589 -2.1089 -0.5148
    3MOL   H583 2267   2.653   7.254   0.377 -4.9353 -3.2169 -0.8002
    3MOL   H584 2268   2.662   7.375   0.248 -1.6673  0.3062  0.6536
    3MOL   H585 2269   2.534   7.091   0.249  1.6184 -0.4317 -2.7465
    3MOL   H586 2270   2.444   7.233   0.266 -0.6819 -2.6534  0.8358
    3MOL   H587 2271   2.514   7.313   0.042  1.5933  0.4539  0.4115
    3MOL   H588 2272   2.604   7.152   0.012 -0.0193 -0.8727  1.1276
    3MOL   H589 2273   2.433   7.159   0.038 -0.5282  0.3884  1.8476
    3MOL   C590 2274   3.207   0.545   0.076  0.5750 -0.0553  0.2830
    3MOL   C591 2275   3.356   0.601   0.069  0.0439  0.8040 -0.5063
    3MOL   C592 2276   3.397   0.665   7.629  0.0611  0.1352  0.0212
    3MOL   C593 2277   3.555   0.692   7.614 -0.1708 -0.0248 -0.1123
    3MOL   C594 2278   3.577   0.796   7.504 -0.1579 -0.4811  0.6812
    3MOL   C595 2279   3.735   0.818   7.481  0.2740  0.2064 -0.0105
    3MOL   C596 2280   3.761   0.925   7.380 -0.3070  0.4808  0.8911
    3MOL   C597 2281   3.911   0.953   7.365  0.0775 -0.8579  0.0847
    3MOL   C598 2282   3.924   1.095   7.297  0.3542 -0.2153 -0.5350
    3MOL   C599 2283   4.069   1.153   7.306 -1.1734  0.2769 -0.2208
    3MOL   C600 2284   4.065   1.305   7.267  0.2771  0.1888 -0.2816
    3MOL   C601 2285   4.045   1.328   7.121  0.2200  0.7662  0.3574
    3MOL   C602 2286   4.004   1.474   7.093  1.0378 -0.3123  0.3026
    3MOL   C603 2287   3.995   1.502   6.940  0.2368  0.6004 -0.2302
    3MOL   H604 2288   3.170   0.570   0.175 -0.9590  3.3678 -1.0599
    3MOL   H605 2289   3.141   0.608   0.017 -0.1676 -2.5762 -1.6458
    3MOL   H606 2290   3.419   0.513   0.079 -1.7401 -0.2283  1.8785
    3MOL   H607 2291   3.340   0.758   7.632 -1.7279 -0.8131 -2.5789
    3MOL   H608 2292   3.357   0.619   7.539 -2.3578  0.0440  1.1036
    3MOL   H609 2293   3.604   0.599   7.586  0.5181  0.9559 -2.2867
    3MOL   H610 2294   3.597   0.721   0.015 -2.4372  4.8651 -0.4179
    3MOL   H611 2295   3.534   0.895   7.518 -0.7623 -0.9606  2.2567
    3MOL   H612 2296   3.519   0.767   7.416 -2.3536 -0.1828  2.0216
    3MOL   H613 2297   3.775   0.724   7.444 -0.8871  0.1032 -1.0344
    3MOL   H614 2298   3.784   0.841   7.576  0.3163 -2.0059  0.5095
    3MOL   H615 2299   3.704   0.900   7.291  0.6926 -1.6737  0.8317
    3MOL   H616 2300   3.716   1.016   7.420 -2.6940 -0.6016  0.7533
    3MOL   H617 2301   3.944   0.944   7.468  2.4069 -2.3633 -0.7526
    3MOL   H618 2302   3.968   0.876   7.312  1.1308  0.3541 -0.5900
    3MOL   H619 2303   3.898   1.089   7.192  0.2731 -3.0345 -0.4123
    3MOL   H620 2304   3.859   1.160   7.356 -0.0167  0.3046 -1.5081
    3MOL   H621 2305   4.095   1.142   7.412 -0.2213 -1.0447 -0.5738
    3MOL   H622 2306   4.146   1.093   7.258 -0.6921  0.1032  0.7396
    3MOL   H623 2307   4.157   1.358   7.291  0.2123 -0.0592  0.5000
    3MOL   H624 2308   3.992   1.359   7.327  0.4453 -0.2804  0.3417
    3MOL   H625 2309   3.969   1.267   7.073  1.4485 -0.1146 -0.4947
    3MOL   H626 2310   4.135   1.300   7.067  0.9226  0.0877  1.8841
    3MOL   H627 2311   3.907   1.501   7.134  0.7295 -1.7904  0.5901
    3MOL   H628 2312   4.079   1.544   7.128  1.7964  0.9205 -3.4891
    3MOL   H629 2313   3.979   1.609   6.937 -0.9877  0.3945 -1.3439
    3MOL   H630 2314   3.912   1.451   6.890 -1.0882  0.9132  1.6013
    3MOL   H631 2315   4.091   1.476   6.895  0.7149  1.0161  0.5299
    3MOL   C632 2316   3.384   0.698   0.193 -0.5880  0.4260  0.3030
    3MOL   C633 2317   3.400   0.624   0.333 -0.1462 -1.2547 -0.1849
    3MOL   C634 2318   3.532   0.548   0.360  0.6135 -0.2388  0.0502
    3MOL   C635 2319   3.526   0.431   0.444  0.0573  0.2195 -0.6225
    3MOL   C636 2320   3.667   0.368   0.476 -0.4799  0.0497 -0.3321
    3MOL   C637 2321   3.751   0.300   0.363 -1.2588  0.5909  0.0584
    3MOL   C638 2322   3.895   0.268   0.401 -0.0478 -0.8004  0.6306
    3MOL   C639 2323   3.960   0.181   0.295  0.1912  0.5136  0.3364
    3MOL   C640 2324   4.111   0.173   0.312 -0.4865 -0.2002  0.4777
    3MOL   C641 2325   4.185   0.131   0.183 -0.3105  0.1503  0.6234
    3MOL   C642 2326   4.156   0.227   0.071  0.2184  0.6414 -0.4294
    3MOL   C643 2327   4.206   0.373   0.086 -0.6267  0.2085 -0.1938
    3MOL   C644 2328   4.168   0.451   7.660 -0.4470 -0.5343 -0.2088
    3MOL   C645 2329   4.206   0.596   7.665 -0.0528  0.0428  0.1682
    3MOL   H646 2330   3.299   0.766   0.204 -0.4211  0.9126 -1.3291
    3MOL   H647 2331   3.460   0.774   0.176  1.1158 -1.2215  0.4368
    3MOL   H648 2332   3.322   0.548   0.327 -1.2391 -0.0895 -1.0769
    3MOL   H649 2333   3.588   0.529   0.268  0.2060  1.7210 -0.6282
    3MOL   H650 2334   3.598   0.615   0.416 -0.3584  0.2666  0.5930
    3MOL   H651 2335   3.456   0.361   0.400  0.7176 -0.2490 -0.9220
    3MOL   H652 2336   3.464   0.461   0.529  1.3794  0.1337  0.3860
    3MOL   H653 2337   3.645   0.288   0.548 -0.1517 -2.1400 -2.5857
    3MOL   H654 2338   3.723   0.447   0.525 -0.7517  0.3131 -0.4499
    3MOL   H655 2339   3.703   0.215   0.315  1.3769 -1.7476  1.4014
    3MOL   H656 2340   3.763   0.364   0.275 -0.5952 -2.2591 -2.0017
    3MOL   H657 2341   3.946   0.364   0.405  0.4564 -0.8941 -2.2871
    3MOL   H658 2342   3.899   0.219   0.498 -1.2645 -0.2893  0.9478
    3MOL   H659 2343   3.930   0.225   0.200 -0.4377  0.2722  0.4175
    3MOL   H660 2344   3.923   0.078   0.297  1.6926 -0.0310  0.1669
    3MOL   H661 2345   4.138   0.110   0.396 -0.1571  1.5541  1.7262
    3MOL   H662 2346   4.147   0.271   0.344 -0.0023  0.2644 -1.4027
    3MOL   H663 2347   4.293   0.139   0.200 -0.4038  0.0613  1.2635
    3MOL   H664 2348   4.158   0.031   0.151  1.4772 -0.3357  0.5572
    3MOL   H665 2349   4.217   0.181   7.690  0.9436  1.1167 -0.1454
    3MOL   H666 2350   4.053   0.240   0.039  0.7178  1.5521 -1.7147
    3MOL   H667 2351   4.313   0.385   0.103 -0.7184 -0.5540  1.0469
    3MOL   H668 2352   4.152   0.426   0.164  1.8836  2.1101  0.3340
    3MOL   H669 2353   4.061   0.442   7.643 -0.3870  2.2172 -2.2148
    3MOL   H670 2354   4.211   0.413   7.567  3.2029  0.6758  0.9037
    3MOL   H671 2355   4.314   0.594   7.647  0.1422 -2.1631  1.3754
    3MOL   H672 2356   4.145   0.664   7.605  0.6891  0.8803  0.3571
    3MOL   H673 2357   4.191   0.635   0.070  1.5223 -0.3607  0.5702
    3MOL   C674 2358   3.361   0.714   0.450  0.0032 -0.1998  0.6152
    3MOL   C675 2359   3.212   0.699   0.491  0.5193 -0.0051 -0.9135
    3MOL   C676 2360   3.201   0.573   0.577 -0.2712  0.7353 -0.7371
    3MOL   C677 2361   3.075   0.499   0.581  0.5076 -0.5624  0.0087
    3MOL   C678 2362   3.089   0.367   0.660 -0.0567  0.1647  0.6534
    3MOL   C679 2363   3.007   0.244   0.610 -1.0544  0.1686 -0.4878
    3MOL   C680 2364   3.040   0.118   0.686 -0.0565 -0.1961  0.2652
    3MOL   C681 2365   3.048   0.135   0.837 -0.2449 -0.1582  0.5424
    3MOL   C682 2366   3.044   0.007   0.913 -0.5616 -0.3672 -0.1398
    3MOL   C683 2367   3.119   0.023   1.042  0.0814 -0.1437 -0.3297
    3MOL   C684 2368   3.115   7.599   1.140  0.2257 -0.4229  0.1371
    3MOL   C685 2369   3.226   7.594   1.242 -0.5928  0.3324  0.1391
    3MOL   C686 2370   3.199   7.477   1.342  0.3249 -0.0476 -0.0343
    3MOL   C687 2371   3.319   7.438   1.433  0.1577  0.0739  0.9089
    3MOL   H688 2372   3.390   0.814   0.420 -3.2297  0.4504 -0.5950
    3MOL   H689 2373   3.410   0.702   0.547  0.7285 -1.0709  0.1500
    3MOL   H690 2374   3.151   0.688   0.402  0.4728 -0.9872 -0.7674
    3MOL   H691 2375   3.271   0.499   0.539  0.4031  0.5044  0.8892
    3MOL   H692 2376   3.239   0.586   0.679  1.6287  0.5466 -1.3949
    3MOL   H693 2377   2.996   0.549   0.638 -0.8982 -0.9079 -1.5768
    3MOL   H694 2378   3.048   0.478   0.478  0.3858 -2.1329  0.3481
    3MOL   H695 2379   3.193   0.333   0.665 -0.0611  0.2483  1.3565
    3MOL   H696 2380   3.074   0.380   0.767  2.5353 -2.5352  1.4451
    3MOL   H697 2381   2.901   0.270   0.613 -0.9166  1.0186 -2.2662
    3MOL   H698 2382   3.026   0.221   0.505  0.2186  1.1657 -0.4883
    3MOL   H699 2383   2.965   0.045   0.655  0.6887 -0.7630 -0.1989
    3MOL   H700 2384   3.136   0.082   0.652  0.5702 -0.9303  2.6796
    3MOL   H701 2385   3.143   0.184   0.857  1.0466 -1.4281 -2.1561
    3MOL   H702 2386   2.969   0.201   0.871  1.4076  1.6193  1.0200
    3MOL   H703 2387   2.938   7.681   0.922 -0.8915  1.2385 -0.0450
    3MOL   H704 2388   3.084   7.616   0.860 -2.1951 -2.6398  2.2351
    3MOL   H705 2389   3.088   0.112   1.098 -0.7033 -1.5617  1.5495
    3MOL   H706 2390   3.223   0.046   1.019  1.0868  2.1702  5.4466
    3MOL   H707 2391   3.127   7.509   1.079  1.4811 -1.8872  2.4592
    3MOL   H708 2392   3.018   7.595   1.190 -0.1937  1.2208 -0.5190
    3MOL   H709 2393   3.249   7.687   1.295  0.4037 -0.1194  0.5066
    3MOL   H710 2394   3.319   7.566   1.194  0.2396  0.0233  1.8829
    3MOL   H711 2395   3.113   7.511   1.401  0.3836  0.0491 -0.0040
    3MOL   H712 2396   3.155   7.387   1.299  0.0315  0.2464 -0.3445
    3MOL   H713 2397   3.286   7.364   1.506 -3.1594  2.4548  1.9569
    3MOL   H714 2398   3.383   7.396   1.356 -0.2178  2.2091 -0.6206
    3MOL   H715 2399   3.353   7.526   1.488  0.2183  0.9016 -0.4333
    3MOL   C716 2400   3.160   0.817   0.578  0.2217 -0.9775 -0.4928
    3MOL   C717 2401   3.150   0.960   0.516 -0.2289 -1.0367 -0.2145
    3MOL   C718 2402   3.056   0.959   0.387 -0.1216 -0.4052  0.7073
    3MOL   C719 2403   3.081   1.080   0.300  0.1580 -0.7141  0.0863
    3MOL   C720 2404   3.016   1.080   0.159  0.0691  0.3095  0.1572
    3MOL   C721 2405   3.034   0.952   0.067  0.4024  0.0192 -0.3510
    3MOL   C722 2406   2.992   0.974   7.618 -0.4619  0.2215 -0.1836
    3MOL   C723 2407   2.842   1.013   7.599 -0.2152 -0.0802 -0.6322
    3MOL   C724 2408   2.782   0.987   7.462  0.1891 -0.2755 -0.3465
    3MOL   C725 2409   2.631   1.031   7.444  0.8943  0.1428  0.0554
    3MOL   C726 2410   2.580   1.006   7.303  0.2058 -0.2198  0.2771
    3MOL   C727 2411   2.437   1.040   7.277  0.3912  0.0165 -0.3922
    3MOL   C728 2412   2.404   1.006   7.132 -0.3026 -0.5664 -0.7689
    3MOL   C729 2413   2.262   1.041   7.078 -0.2391  0.5940 -1.2755
    3MOL   H730 2414   3.063   0.785   0.614  1.4822 -0.3817  3.7511
    3MOL   H731 2415   3.220   0.832   0.668  0.8819  0.5379 -1.1537
    3MOL   H732 2416   3.250   0.983   0.479  0.0870  1.7315  2.1344
    3MOL   H733 2417   2.954   0.931   0.411  0.1057 -0.7214  1.2997
    3MOL   H734 2418   3.087   0.876   0.324  2.0984  0.1430  1.0227
    3MOL   H735 2419   3.038   1.162   0.357  1.3427  0.9186 -1.3070
    3MOL   H736 2420   3.187   1.105   0.300 -0.5739  2.7438  2.1193
    3MOL   H737 2421   2.911   1.105   0.173  0.1169 -0.3367  1.8341
    3MOL   H738 2422   3.054   1.163   0.099  0.9304 -0.6034 -0.5877
    3MOL   H739 2423   3.141   0.930   0.059  0.8679  1.8893  0.5649
    3MOL   H740 2424   3.001   0.854   0.101 -0.5827  0.0483 -1.1933
    3MOL   H741 2425   3.062   1.044   7.572  0.3530 -0.4863 -0.0309
    3MOL   H742 2426   3.020   0.889   7.556 -1.2385  0.7654 -1.3057
    3MOL   H743 2427   2.835   1.119   7.622 -1.7525 -0.4475  0.5977
    3MOL   H744 2428   2.788   0.961   7.678 -1.3843 -0.6103 -1.7540
    3MOL   H745 2429   2.848   1.037   7.391 -1.3299  1.7992 -0.3211
    3MOL   H746 2430   2.787   0.880   7.442 -1.6748 -0.5711  0.6520
    3MOL   H747 2431   2.570   0.983   7.521 -0.2690 -1.7604 -1.9711
    3MOL   H748 2432   2.623   1.139   7.451 -3.0972 -0.0636  0.0275
    3MOL   H749 2433   2.650   1.054   7.235  0.5167  1.5822  1.8097
    3MOL   H750 2434   2.600   0.900   7.285  1.2288 -0.0041  0.1011
    3MOL   H751 2435   2.371   0.988   7.345  1.2034 -1.3525 -0.6373
    3MOL   H752 2436   2.410   1.142   7.306 -0.9744 -0.2963 -0.5738
    3MOL   H753 2437   2.419   0.899   7.122  1.7094 -0.4260  0.4095
    3MOL   H754 2438   2.477   1.052   7.066  1.4609 -1.8114  0.2617
    3MOL   H755 2439   2.246   1.147   7.063 -2.6087  0.5396  0.5868
    3MOL   H756 2440   2.185   1.001   7.144  0.3269  1.0071 -0.3492
    3MOL   H757 2441   2.256   0.997   6.979 -3.0280  2.3107 -1.9166
    3MOL   C758 2442   3.115   1.058   0.627  0.4027  0.5254  0.2743
    3MOL   C759 2443   3.228   1.068   0.737  0.2615 -0.4259 -0.6356
    3MOL   C760 2444   3.305   1.203   0.734 -0.4894  0.0369 -0.2281
    3MOL   C761 2445   3.377   1.242   0.600 -0.4244  0.0489  0.1193
    3MOL   C762 2446   3.498   1.162   0.558 -0.0529 -0.0535 -0.5148
    3MOL   C763 2447   3.560   1.224   0.433  0.2335 -0.1004 -0.2668
    3MOL   C764 2448   3.614   1.371   0.441  0.4716 -0.3454  0.7019
    3MOL   C765 2449   3.663   1.413   0.289 -0.3867 -0.4127 -0.1812
    3MOL   C766 2450   3.563   1.516   0.232 -0.0900  0.0027 -0.6559
    3MOL   C767 2451   3.606   1.584   0.099  0.0151 -0.1460  0.3145
    3MOL   C768 2452   3.517   1.703   0.063  0.2588  0.2239 -0.3752
    3MOL   C769 2453   3.561   1.777   7.630  0.3211  0.1635  0.2422
    3MOL   C770 2454   3.455   1.882   7.610 -0.1908  0.3085 -0.7482
    3MOL   C771 2455   3.464   1.968   7.477 -0.5145  0.1902  0.4267
    3MOL   H772 2456   3.097   1.154   0.578  0.0315  0.1451 -0.3379
    3MOL   H773 2457   3.015   1.047   0.668 -1.1890  2.0745 -2.9586
    3MOL   H774 2458   3.299   0.986   0.740 -0.2759 -0.8809 -0.0976
    3MOL   H775 2459   3.232   1.284   0.743 -0.1845  0.5524 -2.1694
    3MOL   H776 2460   3.379   1.210   0.814 -2.3106 -1.2600  1.6186
    3MOL   H777 2461   3.307   1.238   0.516 -0.4795  0.7958  0.1259
    3MOL   H778 2462   3.412   1.345   0.605 -1.3009  0.5573 -2.9098
    3MOL   H779 2463   3.473   1.059   0.535 -0.0898  0.1345 -1.3447
    3MOL   H780 2464   3.585   1.157   0.623 -1.0679  0.5300  0.9170
    3MOL   H781 2465   3.496   1.214   0.345  1.4714 -2.4026 -0.9595
    3MOL   H782 2466   3.650   1.166   0.412  0.1252 -1.1643  2.0783
    3MOL   H783 2467   3.534   1.432   0.482 -1.1813 -1.8199 -0.2250
    3MOL   H784 2468   3.691   1.382   0.517  2.2773 -0.5824 -1.0185
    3MOL   H785 2469   3.674   1.318   0.238 -2.0592 -0.0244 -1.3313
    3MOL   H786 2470   3.761   1.459   0.288  0.7901 -2.7867  1.1261
    3MOL   H787 2471   3.551   1.589   0.313 -0.3200 -1.0116  0.2434
    3MOL   H788 2472   3.467   1.466   0.222  0.3713 -0.8476 -0.8709
    3MOL   H789 2473   3.607   1.525   0.007  1.7079  0.4878 -0.0856
    3MOL   H790 2474   3.706   1.626   0.109 -0.4621  0.6933  1.7503
    3MOL   H791 2475   3.420   1.657   0.041  0.9960 -0.5371 -2.1553
    3MOL   H792 2476   3.505   1.773   0.146 -0.7614  2.4249 -2.3189
    3MOL   H793 2477   3.650   1.839   7.646  0.3135  0.2309  0.0206
    3MOL   H794 2478   3.571   1.717   7.540  0.1821 -0.6790  0.7870
    3MOL   H795 2479   3.358   1.832   7.609  0.7553 -1.5862 -2.0070
    3MOL   H796 2480   3.468   1.947   0.000 -1.8525 -1.2318  0.7427
    3MOL   H797 2481   3.557   2.023   7.463 -1.0708  1.9250  3.2613
    3MOL   H798 2482   3.451   1.898   7.394  0.1935 -1.0977  1.3885
    3MOL   H799 2483   3.387   2.041   7.454  1.0096  1.9098  0.7298
    3MOL   C800 2484   3.156   1.058   0.874  0.1406 -1.4170 -0.7269
    3MOL   C801 2485   3.079   0.926   0.904 -0.3192  0.2847 -0.5411
    3MOL   C802 2486   3.157   0.803   0.941 -0.7800 -0.2739  0.1117
    3MOL   C803 2487   3.063   0.681   0.943  0.3937 -0.1296  0.0890
    3MOL   C804 2488   3.117   0.567   1.022  0.6532  0.3050 -0.4507
    3MOL   C805 2489   3.107   0.584   1.171 -0.2940  0.2321  0.3328
    3MOL   C806 2490   3.122   0.452   1.251 -0.5336 -0.6343  0.1723
    3MOL   C807 2491   2.984   0.380   1.249 -0.5852  0.0040  0.0513
    3MOL   C808 2492   2.982   0.255   1.333  0.4353 -0.8825  0.0035
    3MOL   C809 2493   2.946   0.292   1.484 -0.6709 -0.3143  0.5257
    3MOL   C810 2494   2.894   0.173   1.564 -0.4501 -0.6660  0.3138
    3MOL   C811 2495   2.992   0.057   1.573  0.2337  1.0017 -0.4844
    3MOL   C812 2496   2.954   7.651   1.690  0.0315 -0.7526  0.1511
    3MOL   C813 2497   2.812   7.602   1.708 -0.1124  0.3627 -0.0686
    3MOL   H814 2498   3.089   1.144   0.880 -0.9287 -2.1604 -1.9555
    3MOL   H815 2499   3.220   1.084   0.958  2.4466 -0.4480 -2.7396
    3MOL   H816 2500   3.017   0.900   0.819 -1.8152 -2.0869  1.1988
    3MOL   H817 2501   3.204   0.827   1.037  0.5135 -0.0246 -0.5763
    3MOL   H818 2502   3.242   0.782   0.876 -0.2506 -0.7865  0.9566
    3MOL   H819 2503   3.043   0.648   0.841  0.2546  1.0747 -0.2748
    3MOL   H820 2504   2.968   0.703   0.991  1.8016  3.4193  1.3768
    3MOL   H821 2505   3.047   0.484   1.006 -0.5047  1.3556 -0.9186
    3MOL   H822 2506   3.219   0.541   0.993  1.0347  4.0685 -2.9245
    3MOL   H823 2507   3.009   0.626   1.193  0.2774  0.8028  1.8617
    3MOL   H824 2508   3.167   0.669   1.205 -1.6223  0.6052  1.7757
    3MOL   H825 2509   3.203   0.401   1.199 -0.5360  0.3853 -0.8475
    3MOL   H826 2510   3.160   0.476   1.350  1.1134 -0.5743 -0.4607
    3MOL   H827 2511   2.899   0.446   1.264  0.2538  0.9024  0.9310
    3MOL   H828 2512   2.972   0.344   1.147 -3.7614 -1.7415  0.9791
    3MOL   H829 2513   2.891   0.203   1.303 -0.0191 -0.1991  0.1848
    3MOL   H830 2514   3.070   0.193   1.311  0.7230 -0.8443  1.0259
    3MOL   H831 2515   2.870   0.370   1.471 -0.0403 -0.0059 -1.4342
    3MOL   H832 2516   3.033   0.338   1.532  0.7221 -3.5460  1.1758
    3MOL   H833 2517   2.863   0.210   1.662 -0.0111 -0.1726  0.2681
    3MOL   H834 2518   2.808   0.138   1.507  0.2383 -0.3574 -0.9241
    3MOL   H835 2519   3.090   0.096   1.600  0.6992 -1.8119  2.2314
    3MOL   H836 2520   2.991   7.689   1.484  0.6285  0.7346 -0.2973
    3MOL   H837 2521   3.022   7.566   1.684  1.4351  0.2349  1.5792
    3MOL   H838 2522   2.983   0.008   1.781 -1.7473 -0.2928  0.4849
    3MOL   H839 2523   2.758   0.001   1.711  1.9761  1.5567  0.6725
    3MOL   H840 2524   2.758   7.541   1.635  1.8642  0.1576 -1.3903
    3MOL   H841 2525   2.789   7.564   1.807  0.8391  1.2788  0.5049
    3MOL   H842 2526   3.008   0.945   0.985 -1.2247  1.6353 -1.6399
    4MOL     C1 2527   4.580   6.389   3.395  0.0810  0.8165  0.6694
    4MOL     C2 2528   4.432   6.381   3.354 -0.9235 -0.2803 -0.0631
    4MOL     C3 2529   4.389   6.513   3.291 -0.0313  0.3363 -0.2354
    4MOL     C4 2530   4.436   6.535   3.145  0.1509 -0.6615 -0.8061
    4MOL     C5 2531   4.380   6.666   3.088 -0.4245 -0.1616  0.5806
    4MOL     C6 2532   4.382   6.666   2.933 -0.5423  0.4955 -0.7363
    4MOL     C7 2533   4.334   6.805   2.890 -0.0073  0.0104  0.4316
    4MOL     C8 2534   4.356   6.837   2.739  0.7318 -0.0001  0.2072
    4MOL     C9 2535   4.483   6.916   2.712  0.3919  0.0740  0.4802
    4MOL    C10 2536   4.506   6.943   2.567  0.2954 -0.0854 -0.3609
    4MOL    C11 2537   4.631   7.018   2.538 -0.5668  0.4486  0.8876
    4MOL    C12 2538   4.701   6.980   2.405 -0.9324  0.3939  1.0772
    4MOL    C13 2539   4.838   7.047   2.398 -0.0036  0.4494 -0.6549
    4MOL    C14 2540   4.899   7.051   2.258 -0.0479  0.7994 -0.1748
    4MOL    H15 2541   4.641   6.377   3.305  0.9093  0.5295  1.2600
    4MOL    H16 2542   4.615   6.305   3.454  0.7187  1.1027  0.7055
    4MOL    H17 2543   4.378   6.375   3.449 -0.7627 -2.3037 -0.0720
    4MOL    H18 2544   4.280   6.514   3.280 -0.1623  2.3983  0.9203
    4MOL    H19 2545   4.408   6.604   3.348 -1.3682  0.6058 -0.2020
    4MOL    H20 2546   4.407   6.448   3.086 -0.3555 -0.7071 -0.4936
    4MOL    H21 2547   4.545   6.531   3.141  0.4241  2.6068  1.3553
    4MOL    H22 2548   4.445   6.747   3.120 -0.3745 -0.9772  2.5714
    4MOL    H23 2549   4.285   6.685   3.139  0.0610 -0.6968  1.7033
    4MOL    H24 2550   4.325   6.581   2.895 -0.9587  0.1544  0.6218
    4MOL    H25 2551   4.484   6.649   2.901 -0.7292  1.1485 -1.7134
    4MOL    H26 2552   4.227   6.809   2.914 -0.5319  0.0498 -1.8069
    4MOL    H27 2553   4.375   6.885   2.952  0.8705 -0.6338  0.6950
    4MOL    H28 2554   4.276   6.892   2.689 -0.0848  0.1031  1.6121
    4MOL    H29 2555   4.371   6.744   2.684  1.1345 -1.1660  2.2469
    4MOL    H30 2556   4.494   7.005   2.774  1.4546  0.5458 -0.3672
    4MOL    H31 2557   4.565   6.853   2.746 -0.5710 -0.7083  1.4022
    4MOL    H32 2558   4.508   6.846   2.517 -0.5525  0.3030 -1.1759
    4MOL    H33 2559   4.427   6.999   2.515  2.2121  1.6572 -1.4960
    4MOL    H34 2560   4.622   7.127   2.545  2.3652  0.8359 -0.5395
    4MOL    H35 2561   4.701   6.995   2.618  0.0562 -2.9051 -0.5360
    4MOL    H36 2562   4.647   7.006   2.314  1.2896  1.9971  0.1872
    4MOL    H37 2563   4.713   6.873   2.390  0.4455  0.8590 -1.4325
    4MOL    H38 2564   4.831   7.154   2.416 -2.3732  0.6561 -2.4385
    4MOL    H39 2565   4.908   7.010   2.473  1.2645  2.3370 -0.8773
    4MOL    H40 2566   4.891   6.955   2.207  1.0532  1.2088 -1.1426
    4MOL    H41 2567   4.832   7.113   2.198 -1.9534 -0.5718  0.4928
    4MOL    H42 2568   5.002   7.088   2.262 -0.9213  3.1402  2.3117
    4MOL    H43 2569   4.606   6.480   3.449  1.4620  1.2171 -0.6219
    4MOL    C44 2570   4.411   6.258   3.264  0.6279  0.7047  0.0145
    4MOL    C45 2571   4.263   6.236   3.225 -0.4167 -0.4310  0.1254
    4MOL    C46 2572   4.170   6.210   3.343  0.2396 -0.2426 -0.1521
    4MOL    C47 2573   4.217   6.091   3.424 -0.4186  0.1922  0.4912
    4MOL    C48 2574   4.115   6.065   3.536 -0.0626  0.8146 -0.5722
    4MOL    C49 2575   4.141   5.932   3.610  0.5016 -0.3121 -0.2881
    4MOL    C50 2576   4.067   5.916   3.744  0.7194 -0.3558 -0.3485
    4MOL    C51 2577   4.079   5.774   3.813 -0.3329 -0.3989 -0.6645
    4MOL    C52 2578   3.996   5.761   3.941  0.1416  0.0949 -0.6883
    4MOL    C53 2579   3.973   5.617   3.977  0.2378 -0.7285  0.1450
    4MOL    C54 2580   3.920   5.599   4.124  0.6160  0.2423  0.1944
    4MOL    C55 2581   3.875   5.454   4.159  0.1721  0.3924 -0.0153
    4MOL    C56 2582   3.795   5.422   4.284 -0.2638 -0.6049 -0.1126
    4MOL    C57 2583   3.763   5.269   4.303 -0.0218  0.7250 -0.4368
    4MOL    H58 2584   4.459   6.275   3.168 -0.8633 -1.3334 -1.1039
    4MOL    H59 2585   4.464   6.171   3.302  0.8165  0.9145  0.2364
    4MOL    H60 2586   4.226   6.329   3.182 -1.3175 -1.2170 -0.8577
    4MOL    H61 2587   4.155   6.294   3.410 -0.2437  0.2846 -0.9180
    4MOL    H62 2588   4.069   6.184   3.312  0.1088  0.8738 -0.6631
    4MOL    H63 2589   4.322   6.107   3.452 -0.1137  0.1093 -0.5888
    4MOL    H64 2590   4.224   6.003   3.360 -0.2159  1.2922 -1.0160
    4MOL    H65 2591   4.012   6.081   3.504 -0.4491 -1.2097 -0.4327
    4MOL    H66 2592   4.149   6.147   3.598  0.7582  0.0512  0.0063
    4MOL    H67 2593   4.105   5.856   3.540  1.1259  1.3683 -2.5137
    4MOL    H68 2594   4.247   5.910   3.620  0.1665 -3.7214 -3.0450
    4MOL    H69 2595   4.101   5.994   3.812  0.0312 -0.8432  0.5698
    4MOL    H70 2596   3.961   5.934   3.725  0.6230 -0.0588  0.4677
    4MOL    H71 2597   4.186   5.768   3.835 -0.1125 -0.1833 -1.6756
    4MOL    H72 2598   4.062   5.696   3.739  0.2407 -0.5563 -0.6339
    4MOL    H73 2599   4.045   5.828   4.012  1.8422 -0.2651 -1.5017
    4MOL    H74 2600   3.899   5.804   3.916 -0.2124 -1.4724 -2.0648
    4MOL    H75 2601   4.065   5.558   3.973  0.2137 -0.8941  1.7206
    4MOL    H76 2602   3.905   5.585   3.898  1.3641 -0.6741 -0.8709
    4MOL    H77 2603   3.845   5.676   4.143  1.4680  1.0533  0.2851
    4MOL    H78 2604   4.002   5.624   4.191  1.7985  2.7388 -2.1068
    4MOL    H79 2605   3.812   5.421   4.076  0.7098  0.0614 -0.3018
    4MOL    H80 2606   3.971   5.404   4.145  0.3098  1.3146 -2.8652
    4MOL    H81 2607   3.702   5.480   4.284  0.8831  1.2817 -0.7094
    4MOL    H82 2608   3.858   5.457   4.366 -0.6182  0.0435 -0.1123
    4MOL    H83 2609   3.693   5.262   4.387 -1.0487  1.2275 -1.2313
    4MOL    H84 2610   3.861   5.230   4.328 -1.4431 -0.9585  2.9134
    4MOL    H85 2611   3.719   5.210   4.223 -1.0441  0.4329  0.3280
    4MOL    C86 2612   4.249   6.130   3.117 -0.0705 -0.4366 -0.1250
    4MOL    C87 2613   4.288   6.179   2.980  0.0150  0.2416  0.0263
    4MOL    C88 2614   4.167   6.240   2.905 -0.0851  0.5839  0.2341
    4MOL    C89 2615   4.103   6.368   2.957  0.0468 -0.3249  0.4332
    4MOL    C90 2616   4.022   6.443   2.846 -0.1377  0.1069 -0.4061
    4MOL    C91 2617   3.950   6.568   2.901 -0.0800 -0.5698  0.3687
    4MOL    C92 2618   3.848   6.649   2.819  0.6097  0.0872 -0.3000
    4MOL    C93 2619   3.921   6.750   2.718 -0.3820 -0.8530  0.0474
    4MOL    C94 2620   3.818   6.802   2.620 -0.2962 -0.1353  0.0476
    4MOL    C95 2621   3.883   6.885   2.505 -0.0010  0.3582 -0.0557
    4MOL    C96 2622   3.795   6.914   2.381 -0.0681  0.3470 -0.4568
    4MOL    C97 2623   3.758   6.783   2.304 -0.4248 -0.6325  0.4406
    4MOL    C98 2624   3.668   6.816   2.189 -1.0894 -0.4788  0.7426
    4MOL    C99 2625   3.518   6.793   2.218 -0.1086  0.1412  0.6321
    4MOL   H100 2626   4.295   6.035   3.142  3.2828  1.4496  1.1336
    4MOL   H101 2627   4.144   6.098   3.121  0.2967 -1.4695  1.9994
    4MOL   H102 2628   4.372   6.247   2.966 -0.4740  1.0635  0.9904
    4MOL   H103 2629   4.196   6.267   2.803  0.3272  1.3127  0.5411
    4MOL   H104 2630   4.093   6.162   2.887  0.5469  0.4234 -1.8127
    4MOL   H105 2631   4.039   6.355   3.045  0.6459 -1.0967  0.7512
    4MOL   H106 2632   4.180   6.436   2.993 -0.0861 -0.5974  1.2464
    4MOL   H107 2633   3.946   6.372   2.812  0.7609  0.1455 -2.6129
    4MOL   H108 2634   4.082   6.458   2.756  0.5380  1.4227  0.2565
    4MOL   H109 2635   4.023   6.629   2.954 -1.0334 -2.1361  3.6752
    4MOL   H110 2636   3.888   6.527   2.981  0.8767 -1.2079  0.8130
    4MOL   H111 2637   3.797   6.578   2.755 -0.9646  0.0281  0.9994
    4MOL   H112 2638   3.772   6.697   2.880  0.5236 -0.8781  0.3703
    4MOL   H113 2639   3.993   6.690   2.663 -0.4969 -0.5756 -0.4059
    4MOL   H114 2640   3.984   6.816   2.778  0.2125 -0.9688 -0.4419
    4MOL   H115 2641   3.762   6.721   2.574 -1.9501 -0.5500  2.6459
    4MOL   H116 2642   3.748   6.874   2.666  1.6889  1.6086  0.4192
    4MOL   H117 2643   3.965   6.823   2.467  0.3823  0.1696  1.0737
    4MOL   H118 2644   3.931   6.971   2.551 -1.0046  0.2862  1.1201
    4MOL   H119 2645   3.704   6.967   2.408 -0.0886 -0.1682  0.5036
    4MOL   H120 2646   3.852   6.989   2.326  1.3219 -1.1074 -1.0295
    4MOL   H121 2647   3.851   6.747   2.260  0.3852  0.9997  0.7757
    4MOL   H122 2648   3.714   6.709   2.370  0.3904  0.7408  2.5725
    4MOL   H123 2649   3.701   6.750   2.109 -0.1518  0.7312  0.1141
    4MOL   H124 2650   3.693   6.913   2.146  1.5834 -1.3698  0.1747
    4MOL   H125 2651   3.511   6.685   2.229  3.3887 -0.0095  2.1423
    4MOL   H126 2652   3.484   6.841   2.310 -0.1005  0.7347  0.3274
    4MOL   H127 2653   3.450   6.835   2.144 -0.0512 -1.3830 -0.2990
    4MOL   C128 2654   4.332   6.058   2.893 -0.2700  0.1306  0.6548
    4MOL   C129 2655   4.476   6.005   2.923  0.4468  0.1525  0.0370
    4MOL   C130 2656   4.487   5.860   2.882 -0.4842 -0.1837  0.2279
    4MOL   C131 2657   4.401   5.764   2.951  0.1472  0.5621  0.0778
    4MOL   C132 2658   4.439   5.748   3.106  0.1465  1.2849  0.0714
    4MOL   C133 2659   4.338   5.653   3.169  0.1603  0.0794  0.0678
    4MOL   C134 2660   4.357   5.656   3.325  0.1846 -0.1150  0.2432
    4MOL   C135 2661   4.296   5.538   3.404  0.3846 -0.5220  0.0951
    4MOL   C136 2662   4.143   5.511   3.388  0.7050 -0.2490 -0.2264
    4MOL   C137 2663   4.109   5.379   3.447 -0.5091  0.6844 -0.4256
    4MOL   C138 2664   4.128   5.378   3.602  0.4859  0.1561 -0.6785
    4MOL   C139 2665   4.078   5.238   3.665  0.5114 -1.2130  0.3889
    4MOL   C140 2666   4.099   5.240   3.822 -0.0651 -0.0998  0.1642
    4MOL   C141 2667   4.036   5.115   3.896 -0.7916 -0.2046  0.9887
    4MOL   H142 2668   4.252   5.984   2.903  0.2355 -0.3240  1.4140
    4MOL   H143 2669   4.321   6.074   2.786 -3.4154 -1.6869  0.6532
    4MOL   H144 2670   4.480   6.023   3.031 -1.6945  0.9936  0.0178
    4MOL   H145 2671   4.476   5.857   2.774 -0.5047  0.9441  0.1952
    4MOL   H146 2672   4.590   5.833   2.909 -0.3514  1.6403  1.6680
    4MOL   H147 2673   4.296   5.785   2.932  0.3033 -1.9111 -4.2450
    4MOL   H148 2674   4.403   5.667   2.901  1.1324  0.7867 -0.3279
    4MOL   H149 2675   4.536   5.706   3.131  0.3716  1.0704 -1.1868
    4MOL   H150 2676   4.417   5.844   3.154  1.7640  0.1794  3.2050
    4MOL   H151 2677   4.236   5.679   3.144  0.8198  2.1961 -0.5178
    4MOL   H152 2678   4.364   5.549   3.150 -0.7185  0.1897 -1.8004
    4MOL   H153 2679   4.462   5.667   3.350  0.7035 -1.4231 -1.2553
    4MOL   H154 2680   4.317   5.749   3.365 -0.3761  1.1624 -3.1967
    4MOL   H155 2681   4.367   5.464   3.366  2.6394  1.4630  0.3300
    4MOL   H156 2682   4.319   5.552   3.509  0.5612  1.3174 -0.1875
    4MOL   H157 2683   4.074   5.582   3.432  1.0011  2.0202 -3.2940
    4MOL   H158 2684   4.118   5.502   3.282 -0.7245  0.2584  0.0538
    4MOL   H159 2685   4.151   5.293   3.393 -1.7341 -0.5786  0.6034
    4MOL   H160 2686   4.002   5.374   3.432 -0.9200  1.8928  1.8894
    4MOL   H161 2687   4.228   5.411   3.630  0.5202 -1.4738  1.2352
    4MOL   H162 2688   4.063   5.458   3.638  0.4374 -0.2883  0.2524
    4MOL   H163 2689   3.975   5.214   3.636  0.2378  1.2399 -0.8158
    4MOL   H164 2690   4.132   5.150   3.631  3.4522  0.9435 -0.7589
    4MOL   H165 2691   4.202   5.263   3.849  0.1849  0.0094 -0.8824
    4MOL   H166 2692   4.036   5.325   3.849  0.0638 -0.0194  0.2145
    4MOL   H167 2693   3.940   5.091   3.851 -0.6219  0.6845  0.1487
    4MOL   H168 2694   4.087   5.021   3.875  0.4243  0.9040 -1.2444
    4MOL   H169 2695   4.034   5.133   4.003  0.8879  0.8090  0.8775
    4MOL   C170 2696   4.582   6.087   2.864  0.1670  0.1392 -0.8479
    4MOL   C171 2697   4.734   6.080   2.915 -0.3864 -0.0247 -0.2183
    4MOL   C172 2698   4.847   6.151   2.829  0.8717  0.2657  0.4020
    4MOL   C173 2699   4.863   6.073   2.699  0.1535  0.1285  0.2199
    4MOL   C174 2700   4.916   6.160   2.573 -0.7386 -0.0425 -0.1757
    4MOL   C175 2701   4.964   6.082   2.450 -0.5169  0.0705 -0.0460
    4MOL   C176 2702   5.008   6.172   2.337 -0.1292  0.0705 -0.5502
    4MOL   C177 2703   5.074   6.104   2.223  0.9939  0.2507 -0.4558
    4MOL   C178 2704   5.100   6.205   2.112  0.4276 -0.8829 -0.1037
    4MOL   C179 2705   5.191   6.151   2.005  0.0603 -0.2199  0.2059
    4MOL   C180 2706   5.253   6.264   1.930 -0.5902 -0.5017  0.2791
    4MOL   C181 2707   5.322   6.226   1.795 -0.1602  0.1697 -0.4548
    4MOL   C182 2708   5.227   6.225   1.668  0.3455 -0.3600 -0.7620
    4MOL   C183 2709   5.313   6.184   1.552  0.1497  0.3227  0.1336
    4MOL   H184 2710   4.558   6.191   2.884 -0.1307 -0.1469  0.3305
    4MOL   H185 2711   4.592   6.062   2.758  0.6658  0.6416 -0.9226
    4MOL   H186 2712   4.776   5.980   2.913  1.0453  0.5721 -1.1563
    4MOL   H187 2713   4.824   6.256   2.811 -2.8525 -0.4641  0.5601
    4MOL   H188 2714   4.943   6.151   2.880  0.8367  0.8591  0.4782
    4MOL   H189 2715   4.940   5.998   2.714  0.4222  0.9738  3.3393
    4MOL   H190 2716   4.774   6.019   2.667 -1.3466  0.4795  3.5950
    4MOL   H191 2717   4.842   6.233   2.542  0.2234  0.1591 -2.0659
    4MOL   H192 2718   5.005   6.209   2.612  0.3388 -1.3273 -0.9863
    4MOL   H193 2719   4.901   6.004   2.407  0.1950 -0.9506  0.7370
    4MOL   H194 2720   5.054   6.031   2.485 -1.1892 -1.3290 -0.3563
    4MOL   H195 2721   5.078   6.245   2.378  0.5807 -1.2940  0.7573
    4MOL   H196 2722   4.918   6.223   2.303 -1.9589 -0.8406  2.6435
    4MOL   H197 2723   5.034   6.008   2.191 -1.6952  0.5331  1.8441
    4MOL   H198 2724   5.169   6.079   2.271  0.6219  1.1504  0.7661
    4MOL   H199 2725   5.152   6.290   2.158 -0.5609 -0.7986  0.8751
    4MOL   H200 2726   5.005   6.243   2.076 -0.1453 -0.4544  1.7800
    4MOL   H201 2727   5.138   6.083   1.938  0.9569 -0.4486 -0.2707
    4MOL   H202 2728   5.270   6.093   2.051 -0.4289 -0.9345  0.1552
    4MOL   H203 2729   5.325   6.313   1.995 -0.3330  0.0977 -0.4372
    4MOL   H204 2730   5.187   6.350   1.911  0.8496  1.3130  3.1729
    4MOL   H205 2731   5.400   6.302   1.784  0.1966 -0.0492  0.4741
    4MOL   H206 2732   5.381   6.135   1.790 -1.3355 -0.7444  1.6666
    4MOL   H207 2733   5.138   6.162   1.676 -0.5659  1.1772  1.4785
    4MOL   H208 2734   5.181   6.321   1.642 -1.6252 -1.1829 -0.4068
    4MOL   H209 2735   5.321   6.076   1.564 -0.0774  0.3300  0.3543
    4MOL   H210 2736   5.404   6.244   1.560  0.1529  0.5826 -1.6962
    4MOL   H211 2737   5.266   6.201   1.455 -1.3068 -0.6433  0.6517
    4MOL   C212 2738   4.742   6.141   3.062  0.1951 -0.3265 -0.3237
    4MOL   C213 2739   4.855   6.083   3.150  0.3568 -0.2354 -0.1311
    4MOL   C214 2740   4.884   6.171   3.278 -0.2010 -0.5993 -0.6646
    4MOL   C215 2741   4.958   6.302   3.221 -0.1937 -0.7220  0.0873
    4MOL   C216 2742   4.982   6.400   3.336  0.0285  0.6425 -0.3248
    4MOL   C217 2743   5.092   6.499   3.314 -0.2694 -0.3825 -0.3140
    4MOL   C218 2744   5.103   6.604   3.422 -0.4940 -0.8353 -0.4464
    4MOL   C219 2745   5.173   6.565   3.554  0.4991  0.1752  0.3049
    4MOL   C220 2746   5.164   6.678   3.660  0.7952 -0.4506 -0.3704
    4MOL   C221 2747   5.259   6.672   3.782  0.6412 -0.1414 -0.6537
    4MOL   C222 2748   5.222   6.779   3.892  0.3591 -0.3735 -0.6777
    4MOL   C223 2749   5.301   6.762   4.016 -1.0072 -0.6781 -0.0547
    4MOL   C224 2750   5.252   6.849   4.134 -0.3426  0.4585  0.9520
    4MOL   C225 2751   5.231   6.998   4.102 -0.5747 -0.1466  0.2493
    4MOL   H226 2752   4.646   6.116   3.109  0.1307  0.7808  0.1333
    4MOL   H227 2753   4.739   6.250   3.060  1.2349 -0.2945 -0.4132
    4MOL   H228 2754   4.947   6.088   3.090  0.1016 -0.1749 -0.5229
    4MOL   H229 2755   4.789   6.197   3.326  0.5646  0.6761  0.1875
    4MOL   H230 2756   4.940   6.126   3.360  0.9633  2.1550  0.1120
    4MOL   H231 2757   4.898   6.359   3.150  0.1166 -0.1114  0.3095
    4MOL   H232 2758   5.051   6.277   3.170 -1.5239 -1.1275 -2.2268
    4MOL   H233 2759   5.000   6.342   3.426  1.9286  2.0690  0.2344
    4MOL   H234 2760   4.889   6.453   3.359 -0.3457  0.4681 -1.3585
    4MOL   H235 2761   5.075   6.544   3.216 -1.1907 -2.0118 -0.9275
    4MOL   H236 2762   5.187   6.447   3.299 -0.3364 -0.2216 -1.3456
    4MOL   H237 2763   5.166   6.686   3.387 -1.5933  1.3980  2.6391
    4MOL   H238 2764   5.007   6.647   3.448  1.4548  3.3916  0.2830
    4MOL   H239 2765   5.114   6.477   3.582  1.7424  0.0904  2.7766
    4MOL   H240 2766   5.275   6.532   3.530  0.3274 -0.8529  0.9975
    4MOL   H241 2767   5.062   6.691   3.698 -0.1717  0.3086 -3.0919
    4MOL   H242 2768   5.195   6.774   3.619  0.8721 -0.7989 -1.1394
    4MOL   H243 2769   5.248   6.575   3.831  2.1293  0.1410  0.2593
    4MOL   H244 2770   5.364   6.681   3.754  1.2151 -1.2912  1.0185
    4MOL   H245 2771   5.116   6.780   3.914  0.9521  2.5653  2.4007
    4MOL   H246 2772   5.252   6.873   3.846 -1.4965  0.2102 -0.6971
    4MOL   H247 2773   5.405   6.789   3.997 -1.0206  0.7022  1.6726
    4MOL   H248 2774   5.292   6.660   4.052  0.8231 -0.4192  1.2547
    4MOL   H249 2775   5.312   6.833   4.224 -0.9805  0.3795  1.3643
    4MOL   H250 2776   5.161   6.798   4.165 -1.2764  0.9336 -0.9351
    4MOL   H251 2777   5.144   7.029   4.159  0.3093  1.2678  0.8634
    4MOL   H252 2778   5.311   7.070   4.124 -0.5473  0.4382 -1.6333
    4MOL   H253 2779   5.202   7.027   4.001  1.6052  0.5775 -0.2090
    4MOL   C254 2780   4.829   5.938   3.197 -0.5247 -0.0051  0.8592
    4MOL   C255 2781   4.952   5.851   3.242  0.2108 -0.4560  0.0358
    4MOL   C256 2782   4.895   5.728   3.324 -0.4910 -0.6320  0.1806
    4MOL   C257 2783   4.859   5.765   3.468 -0.1922  0.0985 -0.1015
    4MOL   C258 2784   4.810   5.659   3.563 -0.4562 -0.3238 -0.4332
    4MOL   C259 2785   4.671   5.609   3.524 -0.1690 -0.0443  0.3236
    4MOL   C260 2786   4.623   5.503   3.620  0.4103 -0.1079  0.0676
    4MOL   C261 2787   4.583   5.545   3.759  0.6940 -0.7700  0.1640
    4MOL   C262 2788   4.470   5.472   3.824  0.1050  0.2774 -0.1005
    4MOL   C263 2789   4.448   5.522   3.972  0.0535 -0.0435  0.3378
    4MOL   C264 2790   4.348   5.423   4.054  0.6712  0.5820 -0.7771
    4MOL   C265 2791   4.344   5.466   4.194 -0.1834 -0.1616 -0.4221
    4MOL   C266 2792   4.274   5.375   4.287 -0.1088  0.1424 -0.3229
    4MOL   C267 2793   4.291   5.416   4.433 -0.2936  0.3570 -0.6267
    4MOL   H268 2794   4.776   5.877   3.124  0.7768  0.7327 -0.7191
    4MOL   H269 2795   4.750   5.926   3.272  0.9728 -1.5191  2.2348
    4MOL   H270 2796   5.016   5.913   3.305 -0.8941  1.0142 -0.2684
    4MOL   H271 2797   4.962   5.641   3.327 -0.1883 -0.3316  2.6915
    4MOL   H272 2798   4.798   5.703   3.282 -0.4314  0.5026 -0.6603
    4MOL   H273 2799   4.787   5.847   3.476  0.3351  0.4606  1.0812
    4MOL   H274 2800   4.951   5.804   3.511 -0.2956  0.7483 -0.4713
    4MOL   H275 2801   4.821   5.688   3.667 -0.6236  1.6725 -0.9535
    4MOL   H276 2802   4.874   5.571   3.564 -0.9045 -0.6564 -0.6452
    4MOL   H277 2803   4.684   5.556   3.429 -1.2392  0.3873 -0.0718
    4MOL   H278 2804   4.597   5.685   3.499 -0.8576 -0.5638  0.7538
    4MOL   H279 2805   4.541   5.460   3.561 -1.0635  2.5045  0.1001
    4MOL   H280 2806   4.697   5.425   3.633  0.0491 -0.5106 -0.2632
    4MOL   H281 2807   4.539   5.644   3.748 -0.4023 -1.1585  0.9203
    4MOL   H282 2808   4.670   5.564   3.822 -2.0771 -1.3345  4.3469
    4MOL   H283 2809   4.388   5.498   3.756 -0.6125  0.4267  0.8051
    4MOL   H284 2810   4.480   5.364   3.816 -1.5992  0.0471  0.5198
    4MOL   H285 2811   4.440   5.631   3.977  0.0272 -0.0449  0.3255
    4MOL   H286 2812   4.545   5.499   4.015 -0.3031 -1.1385  0.5695
    4MOL   H287 2813   4.376   5.318   4.049 -3.0758 -0.4297 -1.5243
    4MOL   H288 2814   4.251   5.429   4.006  0.5570  0.1747 -0.5931
    4MOL   H289 2815   4.449   5.459   4.222 -0.0287 -0.0472 -0.9718
    4MOL   H290 2816   4.315   5.571   4.205  0.8592  0.0914 -0.0728
    4MOL   H291 2817   4.166   5.380   4.270 -0.2257 -3.1432 -0.8924
    4MOL   H292 2818   4.312   5.274   4.277 -3.1998 -0.9805 -1.4527
    4MOL   H293 2819   4.226   5.354   4.495  0.3761  1.6080  1.3848
    4MOL   H294 2820   4.271   5.519   4.461  1.0565  0.3559  0.3798
    4MOL   H295 2821   4.388   5.388   4.474 -0.4223 -0.0100 -0.5745
    4MOL   C296 2822   5.033   5.802   3.122 -0.8650 -0.2570  0.2091
    4MOL   C297 2823   5.164   5.728   3.152 -0.0955 -0.3485 -0.4161
    4MOL   C298 2824   5.239   5.663   3.027  0.5124 -0.6616  0.5129
    4MOL   C299 2825   5.178   5.526   2.982  1.7091  0.4231  0.2506
    4MOL   C300 2826   5.249   5.447   2.875 -0.5240  0.2771 -0.4965
    4MOL   C301 2827   5.154   5.377   2.784 -0.4386 -0.0480 -0.1934
    4MOL   C302 2828   5.216   5.264   2.694  0.9850  0.2237  0.5748
    4MOL   C303 2829   5.115   5.215   2.591  0.5049  0.0432  0.9266
    4MOL   C304 2830   5.168   5.117   2.481 -0.0332  0.8504  0.5237
    4MOL   C305 2831   5.254   5.171   2.369 -0.2497  0.6877 -0.2200
    4MOL   C306 2832   5.300   5.058   2.284 -0.7442 -0.3604 -0.4953
    4MOL   C307 2833   5.396   5.103   2.179  0.0296  0.6661 -0.4846
    4MOL   C308 2834   5.471   4.986   2.111 -0.2526 -0.1619 -0.5711
    4MOL   C309 2835   5.592   5.039   2.045 -0.1829 -0.8782  0.4303
    4MOL   H310 2836   5.052   5.886   3.055  2.2819  0.0216  1.3486
    4MOL   H311 2837   4.982   5.736   3.053 -0.1320 -0.6533  0.0395
    4MOL   H312 2838   5.140   5.636   3.205 -1.7057  0.5811  0.4958
    4MOL   H313 2839   5.344   5.636   3.042  0.9015 -0.4152 -1.5374
    4MOL   H314 2840   5.241   5.733   2.943 -1.4005 -0.1104  0.9158
    4MOL   H315 2841   5.074   5.542   2.956  1.5887 -0.2287  0.3426
    4MOL   H316 2842   5.172   5.464   3.072  1.4629  2.2813  1.5630
    4MOL   H317 2843   5.307   5.516   2.814 -0.5709 -0.6231 -1.5651
    4MOL   H318 2844   5.328   5.377   2.899 -1.4439 -0.8419 -0.7172
    4MOL   H319 2845   5.129   5.452   2.710  3.2990  0.9074 -0.5574
    4MOL   H320 2846   5.071   5.337   2.843 -0.3810 -1.0562 -0.7830
    4MOL   H321 2847   5.301   5.305   2.639 -1.1567  1.9558 -1.5899
    4MOL   H322 2848   5.243   5.176   2.752  0.8632  0.7028  1.3654
    4MOL   H323 2849   5.069   5.299   2.538  0.3323 -0.6652 -0.0553
    4MOL   H324 2850   5.033   5.177   2.651  2.1870  0.1719  3.3681
    4MOL   H325 2851   5.223   5.041   2.536 -0.2561  1.5174  1.6829
    4MOL   H326 2852   5.073   5.080   2.443 -0.3825  3.0807 -0.8658
    4MOL   H327 2853   5.342   5.212   2.418  0.3431 -1.8130  0.8698
    4MOL   H328 2854   5.215   5.255   2.312 -0.4135  0.8547  0.1383
    4MOL   H329 2855   5.212   5.006   2.245 -0.6555  0.4428 -1.8038
    4MOL   H330 2856   5.344   4.984   2.351  1.6325  0.5173 -1.0549
    4MOL   H331 2857   5.472   5.161   2.232  2.0497 -0.5998 -1.9563
    4MOL   H332 2858   5.358   5.179   2.111  1.5836  0.9465 -1.0728
    4MOL   H333 2859   5.420   4.927   2.036 -2.4013 -0.2044  0.8768
    4MOL   H334 2860   5.505   4.921   2.193  1.5972  0.3131 -0.9366
    4MOL   H335 2861   5.652   4.976   1.980  1.7194  2.8253 -1.5967
    4MOL   H336 2862   5.567   5.124   1.983 -0.5254 -0.0997  1.6100
    4MOL   H337 2863   5.662   5.082   2.117  0.6022  0.2939 -1.0132
    4MOL   C338 2864   5.269   5.816   3.240  0.1373 -0.3679 -0.4254
    4MOL   C339 2865   5.388   5.745   3.316 -0.6163  0.6835  0.4301
    4MOL   C340 2866   5.469   5.854   3.392 -0.3111  0.7738 -0.0168
    4MOL   C341 2867   5.578   5.921   3.310 -0.6407  0.4086 -0.1219
    4MOL   C342 2868   5.708   5.841   3.302  1.0802 -0.2900 -0.1273
    4MOL   C343 2869   5.798   5.855   3.424 -0.0415  0.0430  0.6875
    4MOL   C344 2870   5.913   5.756   3.427 -0.0330  0.0223 -0.6939
    4MOL   C345 2871   6.005   5.762   3.302 -0.4806 -0.2437  0.1407
    4MOL   C346 2872   6.125   5.668   3.312  0.6207  0.4949  0.0993
    4MOL   C347 2873   6.185   5.656   3.171 -0.0062  0.9803 -0.0915
    4MOL   C348 2874   6.315   5.578   3.167  1.4154 -0.0644 -0.2861
    4MOL   C349 2875   6.379   5.582   3.028 -0.0423  0.0133  0.1375
    4MOL   C350 2876   6.512   5.508   2.995  0.1824 -0.3551 -0.6351
    4MOL   C351 2877   6.523   5.371   3.069  0.1223 -0.8009 -0.6578
    4MOL   H352 2878   5.330   5.891   3.190  0.3555 -0.0221  0.3630
    4MOL   H353 2879   5.212   5.863   3.320  1.3118  1.7428 -0.8037
    4MOL   H354 2880   5.451   5.700   3.239 -1.0877 -1.0333  1.0406
    4MOL   H355 2881   5.399   5.930   3.427  0.7778  1.8366 -0.1183
    4MOL   H356 2882   5.518   5.820   3.483 -2.9178 -1.7743  0.5399
    4MOL   H357 2883   5.612   6.021   3.338  3.2888 -0.6126 -0.9236
    4MOL   H358 2884   5.547   5.926   3.206  0.3042 -0.3359 -0.4506
    4MOL   H359 2885   5.768   5.851   3.212 -0.5013 -0.5827 -1.2451
    4MOL   H360 2886   5.679   5.736   3.299  1.5700 -0.3962 -1.3214
    4MOL   H361 2887   5.837   5.957   3.427 -0.5736  0.2632  0.3223
    4MOL   H362 2888   5.737   5.837   3.512 -1.0593 -0.6522 -0.1525
    4MOL   H363 2889   5.973   5.772   3.516 -1.8406 -1.4722  0.8267
    4MOL   H364 2890   5.870   5.657   3.438  1.4062 -0.7524 -1.8165
    4MOL   H365 2891   5.950   5.738   3.212  1.4015 -1.9802 -0.5940
    4MOL   H366 2892   6.031   5.867   3.288 -1.5231  0.0574  0.3748
    4MOL   H367 2893   6.201   5.698   3.385  0.9183 -2.8302  1.2458
    4MOL   H368 2894   6.087   5.572   3.346 -4.8102  2.1044 -0.9731
    4MOL   H369 2895   6.114   5.597   3.112 -0.1656  2.1669 -1.1013
    4MOL   H370 2896   6.206   5.755   3.131  1.4956  0.5952 -0.2570
    4MOL   H371 2897   6.296   5.473   3.190  3.7131 -0.3341  0.5475
    4MOL   H372 2898   6.391   5.614   3.237  1.2803 -0.0911 -0.1253
    4MOL   H373 2899   6.384   5.690   3.013  1.6597  0.1899  1.7633
    4MOL   H374 2900   6.303   5.547   2.958 -0.5636 -0.1820  0.7898
    4MOL   H375 2901   6.501   5.489   2.889  1.3251  0.0055 -0.8255
    4MOL   H376 2902   6.600   5.569   3.018 -0.3219  0.7326 -1.5343
    4MOL   H377 2903   6.560   5.374   3.171  0.7239  0.2731 -0.8977
    4MOL   H378 2904   6.433   5.311   3.077  0.5349 -1.1145  2.0142
    4MOL   H379 2905   6.605   5.319   3.020 -2.1384 -2.0257 -3.3019
    4MOL   C380 2906   5.333   5.635   3.413 -0.2023 -0.5400  0.1748
    4MOL   C381 2907   5.444   5.538   3.454  0.1126  0.1502 -0.1064
    4MOL   C382 2908   5.416   5.482   3.594 -0.3811 -0.0827 -0.1857
    4MOL   C383 2909   5.288   5.396   3.607 -0.5654 -0.3292 -0.0531
    4MOL   C384 2910   5.247   5.358   3.749 -0.7520 -0.3661 -0.1323
    4MOL   C385 2911   5.204   5.464   3.848 -1.0942  0.0159 -0.4039
    4MOL   C386 2912   5.078   5.537   3.817 -0.0855  0.1110  0.9068
    4MOL   C387 2913   5.025   5.622   3.929  0.4041  0.2621 -0.6151
    4MOL   C388 2914   5.112   5.731   4.003 -0.1816  0.5231  0.3662
    4MOL   C389 2915   5.008   5.841   4.047  0.3620  0.0926  0.5862
    4MOL   C390 2916   5.067   5.968   4.115 -0.1101 -0.1075  0.0873
    4MOL   C391 2917   4.976   6.099   4.124  0.0313 -0.6826  0.1857
    4MOL   C392 2918   4.824   6.076   4.150  0.4784  0.4151  0.2484
    4MOL   C393 2919   4.726   6.193   4.163 -0.1579  0.0652 -0.6202
    4MOL   H394 2920   5.247   5.578   3.377 -0.5120  0.6329 -0.9333
    4MOL   H395 2921   5.303   5.689   3.503  0.2071 -0.5638  0.3236
    4MOL   H396 2922   5.538   5.589   3.471  1.4102 -2.6553  1.2694
    4MOL   H397 2923   5.403   5.570   3.657 -0.7683 -1.9360  2.3971
    4MOL   H398 2924   5.496   5.421   3.637  0.8533  0.0974 -2.1557
    4MOL   H399 2925   5.306   5.303   3.554  0.3391  0.2712 -0.8178
    4MOL   H400 2926   5.209   5.457   3.562  1.2415  1.1591 -1.2828
    4MOL   H401 2927   5.338   5.313   3.789 -0.1283 -0.1701 -1.3353
    4MOL   H402 2928   5.166   5.285   3.757 -1.0452 -0.2880 -2.1843
    4MOL   H403 2929   5.287   5.532   3.867 -1.3840  0.3031 -0.1724
    4MOL   H404 2930   5.181   5.416   3.944  1.7159 -0.2295  0.1976
    4MOL   H405 2931   5.109   5.597   3.731 -1.2824  0.5470  0.7565
    4MOL   H406 2932   4.996   5.477   3.778 -0.2960  0.1546  1.2807
    4MOL   H407 2933   4.940   5.667   3.878 -0.5829  0.1776  0.9382
    4MOL   H408 2934   4.989   5.559   4.010  2.5070  1.5826  1.3772
    4MOL   H409 2935   5.156   5.694   4.095 -0.6419 -2.4233 -0.5354
    4MOL   H410 2936   5.187   5.780   3.941 -1.7849 -0.1836 -2.2344
    4MOL   H411 2937   4.934   5.795   4.113 -0.5750  0.5614 -0.1338
    4MOL   H412 2938   4.955   5.880   3.960 -0.8812  0.2195  1.3723
    4MOL   H413 2939   5.103   5.936   4.213  1.0611  0.9956  0.0376
    4MOL   H414 2940   5.148   5.992   4.046  0.7753 -1.5911  0.5920
    4MOL   H415 2941   4.985   6.150   4.028 -2.7008  0.5918  0.5329
    4MOL   H416 2942   5.034   6.164   4.190  0.5554 -0.5414 -0.4097
    4MOL   H417 2943   4.775   6.023   4.068 -0.5396  1.1144  0.4015
    4MOL   H418 2944   4.810   6.015   4.238 -1.7679 -0.6598 -0.8199
    4MOL   H419 2945   4.625   6.156   4.183  0.5829  0.2609  3.9420
    4MOL   H420 2946   4.708   6.266   4.084 -0.6045 -0.1026 -0.6758
    4MOL   H421 2947   4.746   6.252   4.252 -0.2078  0.4710 -0.8750
    4MOL   C422 2948   5.456   5.426   3.341  0.5728 -0.6829 -0.2176
    4MOL   C423 2949   5.578   5.324   3.348 -0.6412  0.0936  0.0153
    4MOL   C424 2950   5.537   5.198   3.279 -0.4268 -0.2861  0.4934
    4MOL   C425 2951   5.527   5.211   3.128  0.1702  0.2513  0.6619
    4MOL   C426 2952   5.481   5.076   3.064  0.4912 -0.2520 -0.1858
    4MOL   C427 2953   5.462   5.082   2.916 -0.3369  0.1825  0.2170
    4MOL   C428 2954   5.397   4.955   2.856  0.2093 -0.1403  0.1576
    4MOL   C429 2955   5.255   4.937   2.901 -0.5512 -0.4627  0.2378
    4MOL   C430 2956   5.179   4.805   2.854 -0.6663 -0.0492 -0.4032
    4MOL   C431 2957   5.051   4.792   2.931  0.0935  0.1511 -0.1105
    4MOL   C432 2958   4.981   4.663   2.894 -0.3739 -0.1998 -0.3287
    4MOL   C433 2959   4.928   4.648   2.747 -0.6002 -0.0628 -0.1513
    4MOL   C434 2960   4.868   4.502   2.728 -0.0311 -0.0824  0.0958
    4MOL   C435 2961   4.850   4.461   2.582  0.6256 -0.6153  0.7943
    4MOL   H436 2962   5.472   5.479   3.247 -2.0461  0.2668 -0.1466
    4MOL   H437 2963   5.359   5.377   3.337  0.6293 -1.1143  2.5618
    4MOL   H438 2964   5.581   5.307   3.456 -2.4558 -2.0191 -0.2339
    4MOL   H439 2965   5.443   5.156   3.316 -0.3809 -1.5934 -0.8167
    4MOL   H440 2966   5.599   5.113   3.309 -0.8291 -0.0569  2.0126
    4MOL   H441 2967   5.460   5.293   3.101  1.3152  1.8146  2.5004
    4MOL   H442 2968   5.615   5.231   3.067  0.0620  1.7351  0.9798
    4MOL   H443 2969   5.382   5.057   3.106  1.0123 -2.5889  0.0519
    4MOL   H444 2970   5.544   4.992   3.092  0.0720 -1.2800 -2.2488
    4MOL   H445 2971   5.555   5.106   2.864 -0.4829 -1.1670 -0.6963
    4MOL   H446 2972   5.390   5.164   2.905 -0.0989  0.2468 -0.9346
    4MOL   H447 2973   5.410   4.955   2.747 -2.9353 -0.7415 -0.2571
    4MOL   H448 2974   5.451   4.863   2.878 -1.4343 -0.4220  3.2257
    4MOL   H449 2975   5.248   4.931   3.010 -1.6863 -1.8626  0.0978
    4MOL   H450 2976   5.200   5.029   2.883  0.1614 -0.1215 -0.2307
    4MOL   H451 2977   5.170   4.802   2.745 -0.5358 -1.3272 -0.3869
    4MOL   H452 2978   5.250   4.728   2.883 -1.4969 -0.3204  0.9164
    4MOL   H453 2979   5.078   4.794   3.037 -0.6612  1.8904  0.0661
    4MOL   H454 2980   4.978   4.871   2.912 -0.0865 -0.1135 -0.5320
    4MOL   H455 2981   5.050   4.580   2.911 -0.8295 -0.2419  1.3615
    4MOL   H456 2982   4.891   4.659   2.954  0.3831  0.6989  0.8903
    4MOL   H457 2983   5.013   4.662   2.680  1.7285  0.0160  2.7230
    4MOL   H458 2984   4.849   4.721   2.732 -0.1800  0.5485  0.5632
    4MOL   H459 2985   4.926   4.427   2.780 -0.7779 -0.8235 -0.1285
    4MOL   H460 2986   4.775   4.497   2.785  0.0647 -0.0741  0.2531
    4MOL   H461 2987   4.798   4.365   2.572 -0.2489 -0.0121 -0.6988
    4MOL   H462 2988   4.944   4.451   2.528  0.9880  2.2842  0.8169
    4MOL   H463 2989   4.779   4.532   2.540  1.9817 -0.0203 -0.5198
    4MOL   C464 2990   5.713   5.382   3.300 -0.3301  0.6481 -0.1021
    4MOL   C465 2991   5.841   5.303   3.351 -0.2309 -0.4920 -0.1851
    4MOL   C466 2992   5.963   5.349   3.266  0.8256 -0.4390  0.1889
    4MOL   C467 2993   5.972   5.262   3.147  0.0294 -0.1073  0.2342
    4MOL   C468 2994   6.088   5.299   3.052  0.5293 -0.7764 -0.4496
    4MOL   C469 2995   6.096   5.208   2.930 -0.0419 -0.0638 -0.9636
    4MOL   C470 2996   6.197   5.248   2.829 -0.6286  0.1295  0.7028
    4MOL   C471 2997   6.171   5.356   2.729  0.3426  0.1631 -0.4118
    4MOL   C472 2998   6.076   5.324   2.618  0.1902  0.0105  0.1661
    4MOL   C473 2999   6.106   5.192   2.532  0.7724 -0.2230 -0.0244
    4MOL   C474 3000   6.036   5.072   2.572 -0.4985  0.5522  0.6045
    4MOL   C475 3001   5.884   5.086   2.555 -0.9168  0.2444  0.0867
    4MOL   C476 3002   5.826   4.944   2.578  0.3111  0.1386 -0.0587
    4MOL   C477 3003   5.674   4.936   2.558 -0.1282  0.5070  0.5615
    4MOL   H478 3004   5.717   5.478   3.351  0.1825  1.0889 -0.9543
    4MOL   H479 3005   5.701   5.397   3.192 -1.4334  0.0932 -0.0648
    4MOL   H480 3006   5.828   5.196   3.332 -2.6869 -0.4137  0.7851
    4MOL   H481 3007   5.955   5.455   3.244  0.2443 -0.5210 -0.0095
    4MOL   H482 3008   6.054   5.347   3.326  0.2227  2.2357  1.2445
    4MOL   H483 3009   5.884   5.265   3.082  0.9120  2.2724 -0.9219
    4MOL   H484 3010   5.982   5.157   3.172  1.4999  0.0435  0.3149
    4MOL   H485 3011   6.186   5.298   3.101  0.1268  0.0573  0.3981
    4MOL   H486 3012   6.078   5.404   3.024 -0.7397 -0.6313  0.5216
    4MOL   H487 3013   6.127   5.110   2.966 -0.3843  0.7455  1.6460
    4MOL   H488 3014   6.001   5.204   2.877 -1.9071 -0.3284  2.2846
    4MOL   H489 3015   6.285   5.280   2.884 -0.2021 -0.1724  0.1967
    4MOL   H490 3016   6.243   5.171   2.768  1.3052  0.9733  1.0740
    4MOL   H491 3017   6.152   5.447   2.786  0.9576  1.1839 -1.8121
    4MOL   H492 3018   6.268   5.375   2.682  1.0578 -0.3898  0.8017
    4MOL   H493 3019   5.973   5.318   2.655  0.5238 -4.1351  0.7111
    4MOL   H494 3020   6.078   5.408   2.549  1.4275 -0.3707 -0.2703
    4MOL   H495 3021   6.087   5.215   2.427 -0.7545 -1.7192 -0.0953
    4MOL   H496 3022   6.213   5.176   2.524  0.5270 -1.4909 -1.0137
    4MOL   H497 3023   6.076   5.002   2.499  0.5038  1.0526  0.6731
    4MOL   H498 3024   6.052   5.032   2.672 -0.9320  2.8108  1.6051
    4MOL   H499 3025   5.858   5.112   2.452  1.0533  0.3804 -0.3969
    4MOL   H500 3026   5.843   5.168   2.614 -1.1972  0.0235  0.1969
    4MOL   H501 3027   5.879   4.877   2.510 -0.0344  1.3776 -1.5672
    4MOL   H502 3028   5.844   4.901   2.676 -1.5319 -1.3914 -0.3669
    4MOL   H503 3029   5.646   4.831   2.559 -0.4595  0.5461 -1.6089
    4MOL   H504 3030   5.614   4.988   2.633 -1.8988  4.0511 -3.0843
    4MOL   H505 3031   5.651   4.987   2.464 -0.9495 -0.0712  0.4413
    4MOL   C506 3032   5.870   5.325   3.504 -0.1089  0.1742 -0.4653
    4MOL   C507 3033   5.950   5.209   3.580  0.4242  1.0077 -0.1089
    4MOL   C508 3034   5.973   5.240   3.725 -0.2992 -0.3813 -0.2546
    4MOL   C509 3035   6.087   5.342   3.739 -0.1916 -1.3600 -0.3074
    4MOL   C510 3036   6.091   5.429   3.865  0.1280 -0.0694  0.3933
    4MOL   C511 3037   6.076   5.341   3.992  0.8091 -0.8943  0.4303
    4MOL   C512 3038   6.056   5.412   4.119 -0.4772 -0.0538 -0.4825
    4MOL   C513 3039   6.025   5.332   4.250  0.2850  0.5322 -0.1309
    4MOL   C514 3040   5.988   5.425   4.368  0.2332 -0.9240  0.5737
    4MOL   C515 3041   5.950   5.351   4.500 -0.6930 -0.6582  0.1072
    4MOL   C516 3042   5.891   5.450   4.597 -0.2738 -0.1575 -0.5525
    4MOL   C517 3043   5.914   5.401   4.743 -1.0933  0.0838  0.1768
    4MOL   C518 3044   5.816   5.295   4.795 -0.0254 -0.0343  0.5409
    4MOL   C519 3045   5.844   5.271   4.945  0.2421  0.5972  1.0260
    4MOL   H520 3046   5.791   5.349   3.575  0.1709  0.3872 -0.2205
    4MOL   H521 3047   5.930   5.416   3.497  0.9542 -0.6416 -2.4373
    4MOL   H522 3048   6.050   5.195   3.538 -0.0202 -0.3536 -0.7242
    4MOL   H523 3049   5.879   5.264   3.775  0.6550 -0.8586  1.8560
    4MOL   H524 3050   6.006   5.151   3.779 -0.5138  0.0546  0.6123
    4MOL   H525 3051   6.182   5.291   3.724  0.4628 -0.2327  0.0072
    4MOL   H526 3052   6.080   5.410   3.654  0.0177  1.4761  1.8713
    4MOL   H527 3053   6.011   5.503   3.867 -1.4618 -1.7987  1.7024
    4MOL   H528 3054   6.182   5.489   3.866 -0.6989  1.2848 -1.9345
    4MOL   H529 3055   6.161   5.275   4.002  0.8457 -0.8165  0.6264
    4MOL   H530 3056   6.000   5.264   3.977  0.6587 -0.2108 -2.6241
    4MOL   H531 3057   6.138   5.482   4.138 -0.2380 -0.2097 -0.9244
    4MOL   H532 3058   5.976   5.486   4.107  0.2793  0.8370 -0.0857
    4MOL   H533 3059   6.111   5.274   4.283 -2.4270 -2.0613  2.7067
    4MOL   H534 3060   5.947   5.257   4.233 -0.7060  1.3366  0.7576
    4MOL   H535 3061   5.902   5.484   4.338  1.0646  0.1262  0.2691
    4MOL   H536 3062   6.072   5.490   4.389 -0.2283  0.0451 -0.5869
    4MOL   H537 3063   5.877   5.274   4.478 -1.7288 -0.0723  1.4408
    4MOL   H538 3064   6.035   5.295   4.539  0.4751  0.9399 -0.0523
    4MOL   H539 3065   5.947   5.544   4.591 -0.5760 -0.0769 -2.2877
    4MOL   H540 3066   5.787   5.469   4.571  0.6920  2.7782 -2.4719
    4MOL   H541 3067   5.897   5.486   4.808  0.7650  0.8175 -0.2688
    4MOL   H542 3068   6.019   5.383   4.765 -1.0216 -0.6245 -0.7232
    4MOL   H543 3069   5.831   5.201   4.741 -1.1052 -0.7810  1.4971
    4MOL   H544 3070   5.714   5.331   4.786  1.0263  2.6075 -1.3277
    4MOL   H545 3071   5.937   5.217   4.965 -0.5874 -0.3980  2.3195
    4MOL   H546 3072   5.854   5.362   5.003 -1.2236  1.8293 -0.6246
    4MOL   H547 3073   5.759   5.217   4.988 -0.8370  1.1438 -0.3909
    4MOL   C548 3074   5.895   5.061   3.572 -0.9654 -0.3964 -0.9873
    4MOL   C549 3075   5.995   4.942   3.558 -0.8802  0.5333 -0.0672
    4MOL   C550 3076   6.072   4.899   3.689 -0.1307  0.0865  0.6572
    4MOL   C551 3077   5.987   4.861   3.808  0.3085 -0.3139 -0.1495
    4MOL   C552 3078   6.067   4.819   3.930 -0.4521  0.1116 -0.5039
    4MOL   C553 3079   6.139   4.936   4.001  0.3261  0.1276  0.2451
    4MOL   C554 3080   6.222   4.907   4.129  0.3665 -0.4579  0.0153
    4MOL   C555 3081   6.268   5.028   4.223 -0.4405  0.1891 -0.0643
    4MOL   C556 3082   6.369   4.974   4.328  0.3949 -0.6222 -0.1764
    4MOL   C557 3083   6.404   5.078   4.433 -0.0912  0.3273 -0.2700
    4MOL   C558 3084   6.536   5.039   4.498  0.2076  0.2052 -0.6833
    4MOL   C559 3085   6.663   5.115   4.439 -0.1632 -0.4530 -0.4176
    4MOL   C560 3086   6.673   5.265   4.459  0.0306 -0.2969  0.2620
    4MOL   C561 3087   6.806   5.329   4.450 -0.6039 -0.4704  0.1156
    4MOL   H562 3088   5.828   5.046   3.657 -1.2981 -1.6934 -1.4742
    4MOL   H563 3089   5.827   5.055   3.487 -1.6989 -2.2998 -0.2947
    4MOL   H564 3090   6.073   4.977   3.490 -1.3668  0.1473 -0.8172
    4MOL   H565 3091   6.132   4.816   3.649  1.6087  1.2041  0.9203
    4MOL   H566 3092   6.142   4.975   3.724 -0.1055  0.3707  0.0040
    4MOL   H567 3093   5.916   4.787   3.770 -0.9790  1.2090 -0.7572
    4MOL   H568 3094   5.921   4.944   3.833  0.0439 -0.2705 -0.9696
    4MOL   H569 3095   6.011   4.771   4.011  0.1875 -0.7957 -0.5935
    4MOL   H570 3096   6.135   4.737   3.905 -0.1312  0.6943 -1.5670
    4MOL   H571 3097   6.070   5.016   4.025 -0.0743 -0.7376  2.0391
    4MOL   H572 3098   6.209   4.990   3.937 -0.9890 -0.5880 -1.8543
    4MOL   H573 3099   6.167   4.833   4.187 -0.7568 -1.0151 -1.7479
    4MOL   H574 3100   6.305   4.845   4.096 -1.0969 -0.6722 -3.4373
    4MOL   H575 3101   6.175   5.066   4.266  0.1003  1.1831  0.2319
    4MOL   H576 3102   6.299   5.113   4.162 -2.0814  0.8888  0.0280
    4MOL   H577 3103   6.461   4.945   4.276 -0.1381 -2.1475 -0.2811
    4MOL   H578 3104   6.322   4.890   4.379  1.9928 -2.1741 -1.2057
    4MOL   H579 3105   6.410   5.182   4.402  1.6741  0.1236 -0.6822
    4MOL   H580 3106   6.327   5.071   4.509  0.8630 -1.2231  0.5809
    4MOL   H581 3107   6.542   4.931   4.487 -2.1434 -0.1917  1.4550
    4MOL   H582 3108   6.525   5.039   4.606  1.4518 -1.3825 -0.5449
    4MOL   H583 3109   6.751   5.061   4.475 -0.4436 -2.6277 -2.8219
    4MOL   H584 3110   6.653   5.096   4.332 -0.9743 -2.2409 -0.0425
    4MOL   H585 3111   6.593   5.306   4.397 -0.2986  0.5909  1.2678
    4MOL   H586 3112   6.646   5.274   4.565 -1.3097 -1.5365  0.0569
    4MOL   H587 3113   6.854   5.294   4.359  0.6292  1.4239  0.0069
    4MOL   H588 3114   6.806   5.438   4.452  0.6137 -0.4784  1.1202
    4MOL   H589 3115   6.880   5.300   4.525 -1.6985  0.7605  1.7114
    4MOL   C590 3116   5.927   4.820   3.490  0.0939 -0.3444 -0.5579
    4MOL   C591 3117   5.897   4.816   3.339  0.3929 -0.1556  0.0219
    4MOL   C592 3118   6.006   4.763   3.260 -0.0476  0.0762  0.1504
    4MOL   C593 3119   5.992   4.786   3.107  0.5624  1.0224  0.0056
    4MOL   C594 3120   6.093   4.719   3.016  0.0842 -0.9425 -0.2452
    4MOL   C595 3121   6.102   4.781   2.873 -0.0222 -0.3628 -0.1956
    4MOL   C596 3122   6.202   4.702   2.788 -0.4586 -0.2589  0.5073
    4MOL   C597 3123   6.230   4.782   2.658 -0.4176 -0.2778  0.0663
    4MOL   C598 3124   6.344   4.725   2.578 -0.4121  0.1989 -0.0927
    4MOL   C599 3125   6.378   4.811   2.457 -0.2267 -0.1195  0.3909
    4MOL   C600 3126   6.490   4.734   2.382  0.0844  0.0586 -0.0495
    4MOL   C601 3127   6.557   4.808   2.267  0.2676 -0.3354  0.2464
    4MOL   C602 3128   6.678   4.730   2.216  0.0051  0.2774 -0.2810
    4MOL   C603 3129   6.746   4.796   2.100  0.1366 -0.2390 -0.0587
    4MOL   H604 3130   5.845   4.779   3.548  1.0212 -0.3707  0.7323
    4MOL   H605 3131   5.994   4.736   3.504  0.8990  0.0621 -1.8186
    4MOL   H606 3132   5.895   4.923   3.321  0.1033 -0.1081  0.3278
    4MOL   H607 3133   6.036   4.661   3.282 -0.4050  0.0064  0.3029
    4MOL   H608 3134   6.096   4.820   3.284  0.1051 -0.0266 -0.1710
    4MOL   H609 3135   6.004   4.893   3.089  0.2741  0.8680 -1.1392
    4MOL   H610 3136   5.894   4.762   3.066 -0.4151  0.7531  2.4103
    4MOL   H611 3137   6.067   4.613   3.013 -2.1556 -0.5323  2.3806
    4MOL   H612 3138   6.190   4.705   3.063  0.8150  4.4201  0.1184
    4MOL   H613 3139   6.131   4.886   2.865 -0.4247 -0.4429 -3.1106
    4MOL   H614 3140   6.001   4.772   2.834 -0.6521 -0.9409  1.5357
    4MOL   H615 3141   6.295   4.685   2.842  0.1918 -1.8108 -1.0685
    4MOL   H616 3142   6.167   4.600   2.776  0.1678 -0.2986 -0.9971
    4MOL   H617 3143   6.141   4.764   2.599  0.0495  2.6138 -1.6247
    4MOL   H618 3144   6.251   4.889   2.665 -1.7225 -0.0721  1.1133
    4MOL   H619 3145   6.438   4.717   2.633 -0.7722  1.1824  0.6747
    4MOL   H620 3146   6.328   4.620   2.551 -0.9843 -0.1643  1.5968
    4MOL   H621 3147   6.295   4.825   2.388  0.6193 -1.0605 -0.8464
    4MOL   H622 3148   6.413   4.904   2.502  1.5739 -1.0313  0.9201
    4MOL   H623 3149   6.445   4.642   2.344 -1.8307 -0.1454  2.6027
    4MOL   H624 3150   6.574   4.714   2.448 -0.6594  0.0153  0.8819
    4MOL   H625 3151   6.589   4.900   2.317 -2.2147  0.6648  0.0795
    4MOL   H626 3152   6.488   4.831   2.186 -1.3893 -2.2491  1.0618
    4MOL   H627 3153   6.754   4.723   2.294 -0.7142 -0.7337  0.3405
    4MOL   H628 3154   6.653   4.628   2.186 -0.6084  0.0345  1.0116
    4MOL   H629 3155   6.849   4.763   2.088  0.9840  1.6682  1.5461
    4MOL   H630 3156   6.745   4.905   2.099  1.7162 -0.2176 -0.6122
    4MOL   H631 3157   6.697   4.761   2.008  0.5465  0.7269 -0.6535
    4MOL   C632 3158   5.757   4.758   3.306 -0.1516  0.0388 -0.1412
    4MOL   C633 3159   5.744   4.600   3.305 -0.0254 -0.2546 -0.4590
    4MOL   C634 3160   5.791   4.523   3.432  0.1635 -0.1781 -0.4897
    4MOL   C635 3161   5.785   4.373   3.418  0.2087 -0.0366 -0.8456
    4MOL   C636 3162   5.869   4.291   3.521  0.1248 -0.5595 -1.4957
    4MOL   C637 3163   5.862   4.142   3.492  0.5961 -0.5113 -0.0412
    4MOL   C638 3164   5.948   4.054   3.585  0.0189  0.0409 -0.4025
    4MOL   C639 3165   5.903   3.907   3.571  0.5526 -0.5184 -0.3212
    4MOL   C640 3166   6.000   3.801   3.637 -0.6148  0.3790 -0.0728
    4MOL   C641 3167   6.123   3.764   3.550  0.2335  0.4698 -0.3760
    4MOL   C642 3168   6.186   3.632   3.598  0.0540  0.1329 -0.0990
    4MOL   C643 3169   6.301   3.598   3.504 -0.5638 -0.3148 -0.0060
    4MOL   C644 3170   6.428   3.684   3.540 -0.9438  1.1249 -0.2524
    4MOL   C645 3171   6.535   3.667   3.434 -0.9494  0.4594 -0.2655
    4MOL   H646 3172   5.725   4.805   3.213 -2.5297 -0.3492  0.4440
    4MOL   H647 3173   5.686   4.794   3.381 -1.0041 -1.1088 -0.3874
    4MOL   H648 3174   5.813   4.583   3.222  1.5994  1.5155  0.4997
    4MOL   H649 3175   5.894   4.547   3.458 -0.6922  3.2483 -0.0785
    4MOL   H650 3176   5.733   4.554   3.519  0.7008 -0.5271 -0.0002
    4MOL   H651 3177   5.827   4.363   3.318  0.0791 -3.5405 -0.6216
    4MOL   H652 3178   5.680   4.344   3.425 -0.2195  1.8261  0.7241
    4MOL   H653 3179   5.839   4.329   3.619  0.3383  0.2825 -1.7471
    4MOL   H654 3180   5.970   4.332   3.522 -0.5620  1.3381  4.1287
    4MOL   H655 3181   5.756   4.115   3.495  0.7228 -1.0683 -0.5336
    4MOL   H656 3182   5.902   4.119   3.393 -0.5656  2.1028 -1.1738
    4MOL   H657 3183   6.056   4.058   3.568  0.3435  1.0504  1.7048
    4MOL   H658 3184   5.934   4.098   3.684  1.8845  0.6509 -0.3879
    4MOL   H659 3185   5.889   3.879   3.466 -2.2318 -0.3045 -0.0614
    4MOL   H660 3186   5.801   3.904   3.610  0.9696 -0.6315  0.7665
    4MOL   H661 3187   5.939   3.712   3.656  0.6514 -0.9443 -2.0591
    4MOL   H662 3188   6.019   3.840   3.737 -1.1414  0.1028  0.1383
    4MOL   H663 3189   6.103   3.748   3.445 -0.3899  1.2893 -0.3855
    4MOL   H664 3190   6.179   3.857   3.550 -0.3959  0.8501 -1.4142
    4MOL   H665 3191   6.232   3.644   3.696  0.3873  0.9148 -0.3500
    4MOL   H666 3192   6.112   3.552   3.604  1.1400 -0.9591 -0.8640
    4MOL   H667 3193   6.283   3.601   3.396 -0.2990  0.2591 -0.0343
    4MOL   H668 3194   6.324   3.493   3.519 -0.5995 -0.2497  0.4987
    4MOL   H669 3195   6.455   3.657   3.642 -0.4415  0.9908 -0.4190
    4MOL   H670 3196   6.397   3.788   3.530 -1.1304  0.9427 -1.7982
    4MOL   H671 3197   6.591   3.575   3.450 -0.3744  0.5416 -1.7441
    4MOL   H672 3198   6.489   3.647   3.338 -1.2473 -3.1161  0.5168
    4MOL   H673 3199   6.609   3.747   3.431  1.6261 -1.8652 -0.8632
    4MOL   C674 3200   5.597   4.554   3.254 -0.4108  0.0661 -0.0627
    4MOL   C675 3201   5.582   4.476   3.121  0.1738 -0.3068 -0.3939
    4MOL   C676 3202   5.460   4.379   3.125 -0.9972  0.4885 -0.3437
    4MOL   C677 3203   5.325   4.442   3.142 -0.0652  0.2487  0.1138
    4MOL   C678 3204   5.210   4.337   3.171  0.2154 -0.2508  0.2364
    4MOL   C679 3205   5.074   4.416   3.185  0.4585 -0.3597  0.0642
    4MOL   C680 3206   5.050   4.513   3.298 -0.4268  0.0456 -0.0025
    4MOL   C681 3207   4.918   4.595   3.276  0.0400  0.4042 -0.3572
    4MOL   C682 3208   4.871   4.670   3.404  0.4910 -0.2553  0.1417
    4MOL   C683 3209   4.751   4.769   3.378  0.2030  0.0530 -0.4863
    4MOL   C684 3210   4.719   4.855   3.505  0.0104 -0.5004 -0.0915
    4MOL   C685 3211   4.632   4.974   3.462 -0.4322  1.3958 -0.3758
    4MOL   C686 3212   4.556   5.035   3.586  0.4550  0.0081 -0.0347
    4MOL   C687 3213   4.478   5.159   3.556 -0.8344  0.4839 -0.0024
    4MOL   H688 3214   5.536   4.643   3.241 -1.3936 -0.5932  0.0032
    4MOL   H689 3215   5.542   4.503   3.333  1.1911 -1.3621  0.1591
    4MOL   H690 3216   5.669   4.411   3.108  0.4850 -0.2713  1.3471
    4MOL   H691 3217   5.457   4.311   3.040  1.6177  1.2246 -1.0777
    4MOL   H692 3218   5.470   4.305   3.204  1.7294 -0.7522 -1.8198
    4MOL   H693 3219   5.323   4.524   3.213  0.7139  0.4330 -0.0703
    4MOL   H694 3220   5.284   4.478   3.047  0.4019  0.7535  0.0998
    4MOL   H695 3221   5.200   4.272   3.084 -1.9427  2.4127 -1.5983
    4MOL   H696 3222   5.226   4.287   3.266  2.3210  2.7135  1.4908
    4MOL   H697 3223   5.066   4.459   3.086  2.5434 -0.5949 -0.2275
    4MOL   H698 3224   4.994   4.342   3.184 -0.4970  0.6800 -2.1463
    4MOL   H699 3225   5.054   4.462   3.394  0.3055  0.2921  0.0982
    4MOL   H700 3226   5.135   4.582   3.295  0.7500 -1.4418 -1.5179
    4MOL   H701 3227   4.922   4.668   3.195 -0.7082  0.7999 -0.0423
    4MOL   H702 3228   4.835   4.528   3.253 -1.1984  2.5887 -2.4563
    4MOL   H703 3229   4.833   4.594   3.472  0.5152 -1.0552 -0.7433
    4MOL   H704 3230   4.951   4.726   3.453 -0.5715 -0.7363  2.5129
    4MOL   H705 3231   4.665   4.718   3.335  0.3420 -0.9123  0.3715
    4MOL   H706 3232   4.783   4.839   3.300  0.5317  1.2694  0.7164
    4MOL   H707 3233   4.806   4.885   3.562 -0.6577  0.2543  0.5466
    4MOL   H708 3234   4.661   4.790   3.571 -1.3996  1.6943  0.8986
    4MOL   H709 3235   4.572   4.947   3.375 -1.1071  1.0947  0.1703
    4MOL   H710 3236   4.695   5.048   3.414  1.6474 -2.4449 -3.8971
    4MOL   H711 3237   4.494   4.953   3.624  1.6479  0.6894  3.4863
    4MOL   H712 3238   4.626   5.067   3.662  1.5379 -1.6859 -0.2812
    4MOL   H713 3239   4.520   5.204   3.465  0.1263  0.2399  0.3169
    4MOL   H714 3240   4.370   5.148   3.549 -0.8806 -0.4310  1.9450
    4MOL   H715 3241   4.484   5.235   3.634 -0.5054  0.3892  0.0629
    4MOL   C716 3242   5.583   4.570   2.995  0.4149 -0.4362  0.9696
    4MOL   C717 3243   5.634   4.506   2.862  0.2646 -0.3716 -0.5965
    4MOL   C718 3244   5.597   4.595   2.738  0.4895 -0.3755  0.5038
    4MOL   C719 3245   5.455   4.573   2.678  0.4074  0.3115  0.2349
    4MOL   C720 3246   5.416   4.672   2.568 -0.1731  0.0944 -0.1209
    4MOL   C721 3247   5.283   4.627   2.511 -0.9878  0.0324 -0.2371
    4MOL   C722 3248   5.228   4.731   2.405 -0.6725  0.5844 -0.9343
    4MOL   C723 3249   5.107   4.659   2.345 -0.1680 -0.7684  0.3109
    4MOL   C724 3250   5.033   4.735   2.238  0.4753  0.1343 -0.3181
    4MOL   C725 3251   4.921   4.830   2.295 -0.0944 -0.1571  0.6048
    4MOL   C726 3252   4.830   4.879   2.179 -0.7068  0.1073  0.0967
    4MOL   C727 3253   4.757   4.779   2.087 -0.5118 -0.6114  0.0311
    4MOL   C728 3254   4.670   4.844   1.982  0.4336 -0.7630  0.3319
    4MOL   C729 3255   4.617   4.735   1.884  0.2505 -0.1877  0.4214
    4MOL   H730 3256   5.486   4.618   2.982 -0.0178 -1.3873  0.6937
    4MOL   H731 3257   5.651   4.652   3.021  0.8529  0.0014 -1.3970
    4MOL   H732 3258   5.580   4.412   2.859 -1.9526  0.8430  0.4083
    4MOL   H733 3259   5.673   4.576   2.662  0.5259 -2.3144  1.0087
    4MOL   H734 3260   5.613   4.701   2.757 -0.7794  0.1478 -1.1754
    4MOL   H735 3261   5.441   4.469   2.648  0.1788  0.5025 -0.3302
    4MOL   H736 3262   5.381   4.586   2.758 -0.2463  2.2539 -0.6597
    4MOL   H737 3263   5.403   4.777   2.593 -2.6736 -0.7922  2.4780
    4MOL   H738 3264   5.500   4.670   2.498 -0.1912 -0.2458 -0.1333
    4MOL   H739 3265   5.298   4.533   2.458 -1.3163  0.9563 -2.0417
    4MOL   H740 3266   5.209   4.605   2.588  0.8660  2.5343  2.3527
    4MOL   H741 3267   5.194   4.821   2.455 -0.5523 -0.3502  0.8486
    4MOL   H742 3268   5.310   4.759   2.338  2.0103  0.0317  2.0275
    4MOL   H743 3269   5.038   4.647   2.429 -1.2162  1.3570 -0.2118
    4MOL   H744 3270   5.138   4.561   2.308  0.2287 -0.1487 -1.0336
    4MOL   H745 3271   5.103   4.795   2.180  1.5785  2.4137  3.1934
    4MOL   H746 3272   4.984   4.658   2.179 -1.5278  1.2419 -0.1472
    4MOL   H747 3273   4.847   4.796   2.367 -0.3203 -0.8444  0.0502
    4MOL   H748 3274   4.981   4.911   2.338  1.9568 -0.8179 -0.9100
    4MOL   H749 3275   4.755   4.946   2.221 -1.7911 -0.7491 -0.4380
    4MOL   H750 3276   4.897   4.944   2.122 -0.5464  1.1487  1.4542
    4MOL   H751 3277   4.831   4.718   2.035 -1.5419 -0.5807 -1.5236
    4MOL   H752 3278   4.693   4.713   2.144  0.3574 -2.9910 -1.6648
    4MOL   H753 3279   4.726   4.918   1.925 -2.0960 -1.5369 -3.3129
    4MOL   H754 3280   4.587   4.900   2.026 -0.1229  0.4497 -2.1823
    4MOL   H755 3281   4.705   4.688   1.839  3.8272  3.2582  3.3861
    4MOL   H756 3282   4.556   4.778   1.805  2.3975  0.0396 -1.1763
    4MOL   H757 3283   4.549   4.663   1.928 -0.9372  0.7812  0.1845
    4MOL   C758 3284   5.788   4.495   2.872  0.1678 -0.7081  0.4054
    4MOL   C759 3285   5.831   4.357   2.813  0.1560  0.9719  0.1286
    4MOL   C760 3286   5.937   4.378   2.709 -0.0262  0.3619 -0.4447
    4MOL   C761 3287   5.959   4.260   2.618  0.5701  0.1062  0.1562
    4MOL   C762 3288   6.074   4.276   2.513  0.3265 -0.5018 -0.1535
    4MOL   C763 3289   6.040   4.385   2.411 -0.2432  0.0785  0.0779
    4MOL   C764 3290   6.150   4.402   2.308 -0.7035 -0.1240 -0.8285
    4MOL   C765 3291   6.148   4.516   2.205 -0.4560  0.2487  0.3345
    4MOL   C766 3292   6.261   4.517   2.097  0.1995 -0.0361 -0.2658
    4MOL   C767 3293   6.274   4.646   2.011 -0.2619 -0.1707  0.7665
    4MOL   C768 3294   6.395   4.643   1.927 -0.3769 -0.7779  0.2132
    4MOL   C769 3295   6.417   4.779   1.847  0.0524  0.4198 -0.0692
    4MOL   C770 3296   6.314   4.819   1.740 -0.0994 -0.8364  0.7237
    4MOL   C771 3297   6.294   4.707   1.636  0.3401 -0.0841 -0.0863
    4MOL   H772 3298   5.843   4.581   2.833 -1.9493 -0.3947 -1.9778
    4MOL   H773 3299   5.814   4.494   2.978 -1.5074 -1.3743  0.8108
    4MOL   H774 3300   5.750   4.303   2.765  0.1415  1.4327 -0.3689
    4MOL   H775 3301   5.892   4.458   2.650  0.3235  0.1815 -0.9585
    4MOL   H776 3302   6.034   4.410   2.747 -0.9609  1.8246  0.7921
    4MOL   H777 3303   5.996   4.179   2.681  3.6869  0.7975 -0.7191
    4MOL   H778 3304   5.869   4.228   2.564  1.7404 -0.7502 -1.3408
    4MOL   H779 3305   6.069   4.183   2.456  1.1600 -0.7569  0.1794
    4MOL   H780 3306   6.177   4.288   2.547 -0.0037  1.2826  0.3155
    4MOL   H781 3307   6.030   4.485   2.452  1.7655  0.3273  0.0108
    4MOL   H782 3308   5.951   4.357   2.355 -0.4360  0.4721  0.1837
    4MOL   H783 3309   6.249   4.400   2.355 -0.9299 -1.2790 -0.3855
    4MOL   H784 3310   6.142   4.305   2.259  1.2735 -0.1850 -1.1006
    4MOL   H785 3311   6.153   4.612   2.257  2.3059  0.7913 -0.8319
    4MOL   H786 3312   6.055   4.512   2.149  0.4927  1.3022 -1.3784
    4MOL   H787 3313   6.264   4.425   2.039 -0.9351  0.7066 -1.5217
    4MOL   H788 3314   6.353   4.515   2.156 -2.1905  0.1362  3.6072
    4MOL   H789 3315   6.261   4.735   2.072 -1.1753  0.2473 -0.0169
    4MOL   H790 3316   6.192   4.643   1.940  0.5332 -1.5830 -0.1159
    4MOL   H791 3317   6.484   4.636   1.990 -1.4022  0.4385  1.8529
    4MOL   H792 3318   6.399   4.558   1.859  1.7511 -0.9183  0.4849
    4MOL   H793 3319   6.406   4.857   1.922 -0.5623  0.7720 -0.5160
    4MOL   H794 3320   6.522   4.785   1.819 -0.0566  1.7534 -0.2432
    4MOL   H795 3321   6.219   4.842   1.789 -0.4337  1.1033 -0.8130
    4MOL   H796 3322   6.355   4.907   1.691  0.0733 -1.2123  0.1935
    4MOL   H797 3323   6.397   4.689   1.605  0.8744  2.7735 -0.0418
    4MOL   H798 3324   6.248   4.625   1.692  0.7131 -0.0206  0.3070
    4MOL   H799 3325   6.230   4.721   1.548 -1.6568 -0.7519  1.2079
    4MOL   C800 3326   5.869   4.256   2.929  0.1437  0.3994  0.3090
    4MOL   C801 3327   6.010   4.271   2.995  0.0169 -0.1353  0.3157
    4MOL   C802 3328   6.033   4.170   3.104 -0.6482  0.3088 -0.5656
    4MOL   C803 3329   6.078   4.032   3.056  0.1663 -0.4125 -0.5239
    4MOL   C804 3330   6.125   3.945   3.182 -0.0501 -0.5970 -0.2442
    4MOL   C805 3331   6.245   3.999   3.265  0.1464  0.2103  0.5011
    4MOL   C806 3332   6.371   3.997   3.188 -0.1898  0.5747 -0.4657
    4MOL   C807 3333   6.485   4.050   3.264  1.5073 -0.9255  0.1236
    4MOL   C808 3334   6.621   4.032   3.192  0.6550 -0.1876  0.1675
    4MOL   C809 3335   6.619   4.069   3.047  0.1661  0.0407  0.3086
    4MOL   C810 3336   6.761   4.062   2.984 -0.6559  0.0439 -1.0301
    4MOL   C811 3337   6.768   4.114   2.840  0.3327  0.4961 -0.0438
    4MOL   C812 3338   6.907   4.149   2.797  0.1066 -0.1280  0.0677
    4MOL   C813 3339   6.968   4.268   2.873  0.3804 -0.0898 -0.6575
    4MOL   H814 3340   5.877   4.156   2.886 -0.3372  0.7824 -0.6904
    4MOL   H815 3341   5.791   4.254   3.005 -0.5166 -3.3047 -0.3929
    4MOL   H816 3342   6.009   4.374   3.031 -0.6863  0.1591 -0.5336
    4MOL   H817 3343   5.953   4.166   3.178  0.3802  1.2014  0.6040
    4MOL   H818 3344   6.114   4.212   3.164 -0.7931 -1.2065  0.7129
    4MOL   H819 3345   6.160   4.045   2.986  1.0726  0.4283  0.6609
    4MOL   H820 3346   5.992   3.983   3.011  0.8332 -1.2743 -0.8612
    4MOL   H821 3347   6.037   3.943   3.245  0.7463  2.6642  1.0723
    4MOL   H822 3348   6.145   3.840   3.160  0.5247 -0.7238  0.8466
    4MOL   H823 3349   6.255   3.930   3.349  0.6546 -0.7067 -0.3200
    4MOL   H824 3350   6.221   4.096   3.311 -0.1833  1.3026 -1.9253
    4MOL   H825 3351   6.393   3.895   3.157  2.6799  0.8226  0.5905
    4MOL   H826 3352   6.355   4.043   3.091 -0.7307 -2.9495 -2.1044
    4MOL   H827 3353   6.466   4.156   3.275  0.2036 -1.1035 -0.3084
    4MOL   H828 3354   6.482   4.012   3.366  0.6615 -0.2967  0.3346
    4MOL   H829 3355   6.693   4.093   3.247 -0.9699  2.0521 -0.1582
    4MOL   H830 3356   6.654   3.930   3.212  1.5832 -0.2842 -1.7290
    4MOL   H831 3357   6.578   4.170   3.038 -0.0522  0.2401  2.9670
    4MOL   H832 3358   6.552   4.011   2.984  0.4141  1.6420 -1.4623
    4MOL   H833 3359   6.830   4.120   3.045  0.2930  0.3765 -2.3877
    4MOL   H834 3360   6.792   3.959   3.002 -0.2197  0.4293  0.5210
    4MOL   H835 3361   6.703   4.202   2.836 -1.6402 -0.9503 -0.5170
    4MOL   H836 3362   6.724   4.038   2.776 -0.2931  1.9644 -1.4050
    4MOL   H837 3363   6.971   4.064   2.821 -0.5335 -0.7692 -0.4919
    4MOL   H838 3364   6.901   4.186   2.695  0.1402  1.1042  0.5086
    4MOL   H839 3365   7.054   4.310   2.820 -0.5693  0.1808 -1.9917
    4MOL   H840 3366   6.896   4.345   2.901  0.6156  0.0943 -0.5497
    4MOL   H841 3367   6.996   4.229   2.971 -2.0550  1.3957  0.6798
    4MOL   H842 3368   6.087   4.267   2.918 -2.0411  2.0419 -1.9633
    5MOL     C1 3369   3.515   5.737   6.507  0.4052 -0.0008 -0.2531
    5MOL     C2 3370   3.530   5.883   6.447  0.3627 -0.7084 -0.0118
    5MOL     C3 3371   3.394   5.952   6.460 -0.3178 -0.3827  0.4744
    5MOL     C4 3372   3.286   5.897   6.369 -0.2077 -0.2170  0.1016
    5MOL     C5 3373   3.166   5.996   6.354  0.6807 -0.8483  0.2470
    5MOL     C6 3374   3.034   5.928   6.321  0.1222  0.0560  0.6085
    5MOL     C7 3375   3.043   5.823   6.206 -0.3780 -0.5277 -0.3127
    5MOL     C8 3376   2.902   5.783   6.164 -1.1151 -0.3794 -0.0786
    5MOL     C9 3377   2.901   5.676   6.048 -0.5110  0.2715  0.5905
    5MOL    C10 3378   2.951   5.529   6.073 -0.1201  0.9903 -0.1538
    5MOL    C11 3379   2.893   5.431   5.971 -0.3119 -0.8093 -0.0396
    5MOL    C12 3380   2.956   5.288   5.998 -0.3999  0.4341  0.7099
    5MOL    C13 3381   2.930   5.201   5.874 -0.7143 -0.1351  0.5250
    5MOL    C14 3382   3.018   5.082   5.885 -0.2127  0.0412 -0.2454
    5MOL    H15 3383   3.469   5.660   6.445 -1.4385  1.5243 -0.8198
    5MOL    H16 3384   3.483   5.734   6.611 -0.9490  1.0826 -0.6319
    5MOL    H17 3385   3.546   5.865   6.341 -2.2667 -2.7444 -0.1018
    5MOL    H18 3386   3.352   5.958   6.561 -1.7369 -2.1018 -0.0011
    5MOL    H19 3387   3.405   6.059   6.443  1.6413 -0.5591  0.5282
    5MOL    H20 3388   3.249   5.808   6.419  1.5526 -0.1982  1.4885
    5MOL    H21 3389   3.332   5.868   6.274  0.2306 -1.2733  0.6312
    5MOL    H22 3390   3.205   6.062   6.277  0.3648 -0.8140  0.1198
    5MOL    H23 3391   3.142   6.054   6.444  0.7961  2.0664 -1.5315
    5MOL    H24 3392   2.966   6.009   6.293  1.4743  0.6058 -1.1761
    5MOL    H25 3393   2.999   5.889   6.416 -0.8328  1.1326  0.7159
    5MOL    H26 3394   3.102   5.871   6.128 -1.6440  1.9214  0.1751
    5MOL    H27 3395   3.100   5.734   6.233 -1.7312 -0.9492  1.2456
    5MOL    H28 3396   2.847   5.870   6.126 -0.3201 -0.3534 -1.2245
    5MOL    H29 3397   2.848   5.731   6.242 -0.2663 -0.4140  0.4932
    5MOL    H30 3398   2.802   5.670   6.003  0.2094 -0.2296 -0.9906
    5MOL    H31 3399   2.966   5.718   5.972 -3.3438  3.1940 -0.3173
    5MOL    H32 3400   3.060   5.527   6.076 -0.1299  0.1028 -0.5283
    5MOL    H33 3401   2.917   5.497   6.171  0.1204  0.3443 -0.2819
    5MOL    H34 3402   2.786   5.429   5.986 -0.7454 -1.7029 -2.9358
    5MOL    H35 3403   2.912   5.469   5.871 -2.4452  0.9117  0.1830
    5MOL    H36 3404   2.902   5.244   6.082  1.6064  0.0340  1.8215
    5MOL    H37 3405   3.060   5.302   6.027  0.6415 -1.3875 -2.0288
    5MOL    H38 3406   2.826   5.173   5.859 -0.3482 -0.4906 -1.6224
    5MOL    H39 3407   2.954   5.248   5.779 -3.3320 -2.6570 -1.4731
    5MOL    H40 3408   3.020   5.036   5.984  1.7647 -0.6086 -0.5505
    5MOL    H41 3409   2.980   5.004   5.819 -1.4581  0.7615 -0.3848
    5MOL    H42 3410   3.123   5.095   5.856  0.9459  0.1915  3.6826
    5MOL    H43 3411   3.611   5.689   6.527  0.0584 -0.1518  1.1121
    5MOL    C44 3412   3.649   5.960   6.503  0.1173  1.1686  0.1105
    5MOL    C45 3413   3.791   5.899   6.520 -1.2367 -0.4252 -0.0796
    5MOL    C46 3414   3.879   5.994   6.613 -0.0496  0.4401  0.0934
    5MOL    C47 3415   4.005   5.925   6.666  0.0444  0.8001 -0.4030
    5MOL    C48 3416   4.096   6.021   6.750 -0.5465  0.6324 -0.1921
    5MOL    C49 3417   4.237   5.962   6.790 -0.2894 -0.1795  1.0670
    5MOL    C50 3418   4.236   5.843   6.891  0.4036 -0.0012  0.3433
    5MOL    C51 3419   4.378   5.779   6.889  0.7269 -0.0890 -0.1288
    5MOL    C52 3420   4.387   5.648   6.961  0.6195  0.3213 -0.2520
    5MOL    C53 3421   4.526   5.587   6.956 -0.1997  0.1759 -0.0360
    5MOL    C54 3422   4.570   5.558   6.810 -0.4798 -0.7338 -1.0780
    5MOL    C55 3423   4.705   5.484   6.794  0.2112  0.3917  0.2640
    5MOL    C56 3424   4.703   5.434   6.643 -0.4406 -0.5590  0.4230
    5MOL    C57 3425   4.834   5.370   6.585  0.6812 -0.3552  0.1954
    5MOL    H58 3426   3.652   6.049   6.441  1.4420  0.8630 -0.2909
    5MOL    H59 3427   3.623   5.993   6.603 -0.6803  1.2505 -0.1201
    5MOL    H60 3428   3.784   5.807   6.578 -0.8430 -0.6417 -0.3674
    5MOL    H61 3429   3.905   6.087   6.563  1.2407  1.1327  1.9852
    5MOL    H62 3430   3.824   6.010   6.705  0.4898  2.1621  0.1436
    5MOL    H63 3431   4.061   5.882   6.583  1.7739  3.3990 -0.6326
    5MOL    H64 3432   3.981   5.834   6.721  2.9523 -1.3792 -2.6045
    5MOL    H65 3433   4.034   6.058   6.832  0.0899 -0.5216  0.8444
    5MOL    H66 3434   4.112   6.111   6.691  0.7985  0.6351  0.1560
    5MOL    H67 3435   4.276   5.938   6.691 -2.5063 -1.0451  0.3624
    5MOL    H68 3436   4.304   6.038   6.829  0.7249 -0.7513  0.4589
    5MOL    H69 3437   4.219   5.877   6.993  4.2231  0.5443  0.8948
    5MOL    H70 3438   4.165   5.764   6.867  2.0090 -1.7631  1.1889
    5MOL    H71 3439   4.453   5.843   6.936 -0.1176 -0.4078  1.6815
    5MOL    H72 3440   4.404   5.770   6.783  2.4501  1.7155  0.1134
    5MOL    H73 3441   4.353   5.677   7.061 -0.7804 -0.8476 -0.3616
    5MOL    H74 3442   4.310   5.583   6.918 -0.1089  1.5256 -0.8015
    5MOL    H75 3443   4.536   5.495   7.014 -1.4864 -0.1379 -0.2898
    5MOL    H76 3444   4.596   5.653   7.008  0.4374 -1.4701  1.2738
    5MOL    H77 3445   4.569   5.647   6.747 -0.4166 -0.7593 -1.1139
    5MOL    H78 3446   4.495   5.491   6.768 -2.2519 -0.0449  0.8375
    5MOL    H79 3447   4.795   5.534   6.829 -0.0359  0.3030  1.0317
    5MOL    H80 3448   4.710   5.395   6.856 -0.0535 -0.5186 -1.0039
    5MOL    H81 3449   4.669   5.513   6.576  0.8041  1.7791  2.4848
    5MOL    H82 3450   4.622   5.363   6.625 -2.2454  1.8672 -1.4040
    5MOL    H83 3451   4.924   5.431   6.582 -0.2183  1.0271  0.9794
    5MOL    H84 3452   4.809   5.339   6.483  2.0536 -3.0431  0.6131
    5MOL    H85 3453   4.850   5.273   6.634  0.5525 -0.1190  0.7097
    5MOL    C86 3454   3.844   5.848   6.382  0.1218 -0.4700 -0.5455
    5MOL    C87 3455   3.890   5.955   6.285  0.0853 -0.0008 -0.0841
    5MOL    C88 3456   3.781   6.002   6.190 -0.4564 -0.3604  0.0537
    5MOL    C89 3457   3.807   6.110   6.085  0.1839  0.6253  0.7562
    5MOL    C90 3458   3.673   6.136   6.002 -0.4123 -0.1933 -0.1979
    5MOL    C91 3459   3.610   6.272   6.025  0.0513  0.4630 -0.7972
    5MOL    C92 3460   3.537   6.280   6.164 -0.2409  1.0168  0.5398
    5MOL    C93 3461   3.445   6.410   6.165  0.8547  0.3491  0.4366
    5MOL    C94 3462   3.395   6.443   6.298 -0.2907  0.9022 -0.1465
    5MOL    C95 3463   3.310   6.574   6.303  0.2274  0.1672  0.6928
    5MOL    C96 3464   3.232   6.581   6.438 -0.6084 -0.1915  0.3824
    5MOL    C97 3465   3.160   6.715   6.457 -0.3697 -0.5809  0.0176
    5MOL    C98 3466   3.068   6.721   6.570 -0.2252 -0.3943  0.0711
    5MOL    C99 3467   3.121   6.713   6.721  0.7365  0.1281  0.2416
    5MOL   H100 3468   3.928   5.784   6.407 -1.1059 -0.9256  2.5856
    5MOL   H101 3469   3.763   5.787   6.341 -0.2948  0.9303 -1.8666
    5MOL   H102 3470   3.915   6.046   6.340  0.4858 -0.5875  0.7297
    5MOL   H103 3471   3.740   5.909   6.150 -0.9835  0.3785 -1.1276
    5MOL   H104 3472   3.693   6.037   6.244  0.2491  1.0197  0.3344
    5MOL   H105 3473   3.841   6.202   6.132  1.2105  0.5010  0.2839
    5MOL   H106 3474   3.890   6.095   6.016  0.9961  4.7711  0.6788
    5MOL   H107 3475   3.590   6.065   6.014 -1.4891  0.8597 -1.2782
    5MOL   H108 3476   3.699   6.135   5.896 -0.8520  0.4082 -0.3125
    5MOL   H109 3477   3.540   6.300   5.947 -0.5996 -1.0417 -0.7707
    5MOL   H110 3478   3.689   6.348   6.023 -2.3382  2.9996 -0.6232
    5MOL   H111 3479   3.462   6.203   6.183 -0.5685  0.9860 -0.8640
    5MOL   H112 3480   3.611   6.287   6.243 -0.7752 -0.5541  1.1971
    5MOL   H113 3481   3.363   6.394   6.096 -0.4550  0.9245  1.8346
    5MOL   H114 3482   3.495   6.499   6.127 -0.9770  1.3242  0.2690
    5MOL   H115 3483   3.338   6.358   6.337  0.4716 -1.1457 -3.2868
    5MOL   H116 3484   3.483   6.439   6.362  0.8571 -1.0131 -1.7849
    5MOL   H117 3485   3.239   6.584   6.221  0.7690 -3.0196 -0.2503
    5MOL   H118 3486   3.377   6.659   6.304  0.1918  0.1924  1.5991
    5MOL   H119 3487   3.156   6.504   6.447  0.1814 -0.9296  0.7525
    5MOL   H120 3488   3.311   6.577   6.513  0.1932  2.5678 -0.2530
    5MOL   H121 3489   3.220   6.806   6.458 -0.1512 -0.7268  1.0132
    5MOL   H122 3490   3.093   6.726   6.371 -0.0907 -1.2123 -0.2875
    5MOL   H123 3491   2.992   6.646   6.552  0.6661 -1.5768  1.1462
    5MOL   H124 3492   3.017   6.815   6.548 -1.1465 -0.1403  3.0646
    5MOL   H125 3493   3.050   6.759   6.789  2.9506  4.4752 -0.2450
    5MOL   H126 3494   3.158   6.614   6.749 -0.0869 -0.3801 -0.4416
    5MOL   H127 3495   3.211   6.771   6.741  1.1122 -0.5190  0.4595
    5MOL   C128 3496   4.022   5.905   6.209  0.4156  0.2848 -0.0033
    5MOL   C129 3497   4.168   5.912   6.278  0.1611 -0.1469  0.4027
    5MOL   C130 3498   4.222   5.772   6.303  0.3503  0.3642 -0.3231
    5MOL   C131 3499   4.340   5.758   6.393 -0.5014 -0.2512 -0.7150
    5MOL   C132 3500   4.382   5.614   6.419  0.4506 -0.4509  0.5973
    5MOL   C133 3501   4.281   5.530   6.489  0.1804  0.1079  0.4011
    5MOL   C134 3502   4.227   5.570   6.630 -0.0062 -0.0646  1.3421
    5MOL   C135 3503   4.124   5.477   6.682 -0.6831 -0.0029  0.3547
    5MOL   C136 3504   3.983   5.479   6.616 -0.3767 -0.6367 -0.1009
    5MOL   C137 3505   3.893   5.385   6.695  0.0735 -0.4109 -0.6068
    5MOL   C138 3506   3.751   5.387   6.639 -0.0940 -0.2879  0.0767
    5MOL   C139 3507   3.666   5.276   6.710  0.9591  0.3727 -0.2082
    5MOL   C140 3508   3.520   5.281   6.665 -0.6693  0.5086  0.1790
    5MOL   C141 3509   3.428   5.204   6.761 -0.1935 -0.5013 -0.2610
    5MOL   H142 3510   3.994   5.803   6.183 -1.1527  0.6490  0.1656
    5MOL   H143 3511   4.023   5.958   6.114 -0.7491  1.5860  0.6949
    5MOL   H144 3512   4.156   5.957   6.377  2.6322 -0.5669  0.9158
    5MOL   H145 3513   4.140   5.719   6.352  1.2768 -1.2523 -0.5146
    5MOL   H146 3514   4.238   5.710   6.215 -1.0273  0.0028 -0.3327
    5MOL   H147 3515   4.417   5.821   6.349  0.2953 -1.4618 -1.0862
    5MOL   H148 3516   4.323   5.810   6.488 -2.7793 -1.4119 -0.4482
    5MOL   H149 3517   4.389   5.572   6.318 -0.3718 -0.4289  0.5286
    5MOL   H150 3518   4.477   5.595   6.469 -0.2598  1.8165  2.8736
    5MOL   H151 3519   4.198   5.518   6.419  0.3928  1.7869 -0.1504
    5MOL   H152 3520   4.322   5.429   6.495  3.2331  1.2826  0.1326
    5MOL   H153 3521   4.309   5.572   6.701  0.4616  0.9407  0.7762
    5MOL   H154 3522   4.189   5.672   6.623 -1.6485 -0.7086  0.6633
    5MOL   H155 3523   4.177   5.381   6.678 -1.8191 -0.8387  3.8540
    5MOL   H156 3524   4.120   5.487   6.790 -0.3167 -1.1291  0.4872
    5MOL   H157 3525   3.943   5.580   6.613  1.6413  0.2656  1.7316
    5MOL   H158 3526   3.985   5.445   6.513  0.8692 -0.5337 -0.1098
    5MOL   H159 3527   3.883   5.429   6.794  3.0974 -1.3756  0.1635
    5MOL   H160 3528   3.947   5.291   6.703  1.5394  0.6157  2.0659
    5MOL   H161 3529   3.712   5.488   6.653  0.2785  0.1838 -2.1910
    5MOL   H162 3530   3.764   5.358   6.535 -0.3224 -3.4220  0.8679
    5MOL   H163 3531   3.700   5.175   6.688  0.2515 -0.2357  1.3587
    5MOL   H164 3532   3.661   5.281   6.819 -0.2646  1.8594 -0.3204
    5MOL   H165 3533   3.491   5.385   6.651 -0.2919  0.4725 -0.9520
    5MOL   H166 3534   3.493   5.230   6.572  0.4391 -1.8541  1.0907
    5MOL   H167 3535   3.464   5.102   6.779  1.7339 -0.2937 -2.5973
    5MOL   H168 3536   3.416   5.243   6.862 -1.8971  0.7387 -0.9180
    5MOL   H169 3537   3.327   5.197   6.720  0.3042 -0.7764 -1.4958
    5MOL   C170 3538   4.257   6.006   6.188 -0.7557 -0.1947 -0.5552
    5MOL   C171 3539   4.242   6.160   6.212  0.3714  0.8860 -0.5878
    5MOL   C172 3540   4.288   6.207   6.350 -0.6288 -0.1351 -0.3555
    5MOL   C173 3541   4.440   6.229   6.355  0.3236 -0.0680 -0.1717
    5MOL   C174 3542   4.482   6.298   6.486 -0.3949 -0.5806 -1.3112
    5MOL   C175 3543   4.445   6.450   6.496 -0.2763  1.1550 -0.4969
    5MOL   C176 3544   4.470   6.514   6.635 -0.2037  0.8588 -1.0025
    5MOL   C177 3545   4.378   6.467   6.741  0.6327 -0.1364 -1.2300
    5MOL   C178 3546   4.428   6.489   6.890 -0.2495  0.0487 -0.0445
    5MOL   C179 3547   4.308   6.507   6.981 -0.3749 -0.5347 -0.1239
    5MOL   C180 3548   4.349   6.529   7.127  0.3146  0.0989 -0.0431
    5MOL   C181 3549   4.234   6.512   7.232 -0.5168  0.1571 -0.4595
    5MOL   C182 3550   4.279   6.542   7.377 -0.4472 -0.5376 -0.7560
    5MOL   C183 3551   4.335   6.685   7.394 -0.6463 -0.2530 -0.4219
    5MOL   H184 3552   4.243   5.981   6.083 -0.9223  1.6184 -0.9643
    5MOL   H185 3553   4.360   5.976   6.208 -1.5450 -3.4727 -1.1167
    5MOL   H186 3554   4.135   6.167   6.230  0.4657  0.1402  0.3169
    5MOL   H187 3555   4.236   6.301   6.371  2.0550  1.0835  1.2379
    5MOL   H188 3556   4.265   6.129   6.423 -3.3300  0.0515 -0.9541
    5MOL   H189 3557   4.494   6.135   6.351 -0.0422 -0.3231  0.9468
    5MOL   H190 3558   4.485   6.291   6.276 -1.7500  1.9800  0.1900
    5MOL   H191 3559   4.452   6.235   6.570  1.6789  0.1155 -0.0055
    5MOL   H192 3560   4.590   6.302   6.500 -0.8868 -0.0306  3.1455
    5MOL   H193 3561   4.339   6.465   6.477 -0.4359  2.2767  1.2123
    5MOL   H194 3562   4.510   6.503   6.426 -1.4342 -0.5138 -2.9292
    5MOL   H195 3563   4.465   6.622   6.629 -1.1668  1.3195  4.7573
    5MOL   H196 3564   4.574   6.487   6.652 -0.6483  0.9193  2.1704
    5MOL   H197 3565   4.351   6.361   6.731 -1.5802  0.0319  2.3941
    5MOL   H198 3566   4.284   6.520   6.724  0.1863 -0.1587  1.0418
    5MOL   H199 3567   4.505   6.567   6.897  0.1530 -0.5434  3.2700
    5MOL   H200 3568   4.469   6.394   6.925  0.6582  0.1438 -0.8326
    5MOL   H201 3569   4.241   6.421   6.979 -1.4528  0.2867  0.1435
    5MOL   H202 3570   4.243   6.588   6.948 -0.0204 -1.4433 -3.1258
    5MOL   H203 3571   4.396   6.627   7.132  0.7413 -0.1599  1.2163
    5MOL   H204 3572   4.420   6.451   7.155  0.4011  0.2096  0.0442
    5MOL   H205 3573   4.158   6.584   7.201  1.0682  1.9872 -0.2190
    5MOL   H206 3574   4.185   6.415   7.224 -2.0268  1.0345 -2.3517
    5MOL   H207 3575   4.190   6.555   7.439 -0.2334 -0.0550 -0.5475
    5MOL   H208 3576   4.328   6.453   7.418  0.1267  1.1847  2.5116
    5MOL   H209 3577   4.265   6.761   7.359 -1.0522  1.6349  4.0919
    5MOL   H210 3578   4.430   6.699   7.344 -1.4252 -2.0273 -2.4953
    5MOL   H211 3579   4.351   6.704   7.500 -1.0704 -1.0667 -0.2076
    5MOL   C212 3580   4.269   6.242   6.086  0.0566  0.3483 -0.3750
    5MOL   C213 3581   4.184   6.205   5.967  0.2762  0.0159  0.3551
    5MOL   C214 3582   4.079   6.310   5.943  0.2511  0.0639  0.2358
    5MOL   C215 3583   4.130   6.449   5.910  0.4023  0.2376  0.4370
    5MOL   C216 3584   4.033   6.534   5.819  0.3872  0.4544 -0.1786
    5MOL   C217 3585   4.077   6.671   5.770  0.8657 -0.0717  0.0998
    5MOL   C218 3586   4.184   6.673   5.655  0.1043  0.9180  0.1981
    5MOL   C219 3587   4.152   6.575   5.543  0.7380 -0.1722 -0.3700
    5MOL   C220 3588   4.227   6.589   5.420  0.2147 -0.3165  0.1630
    5MOL   C221 3589   4.377   6.563   5.435  0.1322  0.7189 -0.5252
    5MOL   C222 3590   4.450   6.529   5.307  0.2737 -0.3745 -0.5642
    5MOL   C223 3591   4.467   6.655   5.217 -0.3618 -0.8268 -0.8304
    5MOL   C224 3592   4.503   6.602   5.074  0.5473  0.7408  0.1827
    5MOL   C225 3593   4.530   6.711   4.977 -0.1779 -0.0665  0.1425
    5MOL   H226 3594   4.374   6.237   6.055  0.4620 -2.2623  1.2673
    5MOL   H227 3595   4.255   6.345   6.118  0.2908 -0.3153  1.9523
    5MOL   H228 3596   4.124   6.124   6.007 -0.5828 -0.5531 -1.9664
    5MOL   H229 3597   4.010   6.275   5.867 -0.3120  1.0186  0.3068
    5MOL   H230 3598   4.015   6.313   6.031  0.7020 -2.3793  0.6880
    5MOL   H231 3599   4.218   6.440   5.847 -0.0327 -0.1317 -0.1153
    5MOL   H232 3600   4.157   6.505   6.000 -0.8268  0.7241  0.5182
    5MOL   H233 3601   3.943   6.551   5.879  0.0867  2.1253 -1.0616
    5MOL   H234 3602   3.996   6.469   5.740  2.4367  0.1425 -0.8976
    5MOL   H235 3603   4.121   6.731   5.849 -0.9036 -2.1783  2.8032
    5MOL   H236 3604   3.994   6.729   5.733  0.4191 -0.8019 -0.0586
    5MOL   H237 3605   4.197   6.773   5.613 -0.7933  0.0055 -2.3805
    5MOL   H238 3606   4.285   6.648   5.687 -0.2788  1.8954  2.2669
    5MOL   H239 3607   4.149   6.472   5.576 -1.9123  0.3810  1.2540
    5MOL   H240 3608   4.045   6.578   5.520  0.9524 -2.0924 -1.7292
    5MOL   H241 3609   4.202   6.686   5.377 -1.6566 -1.7687 -2.1854
    5MOL   H242 3610   4.182   6.511   5.358  1.9815  0.8531 -2.6965
    5MOL   H243 3611   4.428   6.654   5.469  1.4270 -0.1674 -0.0782
    5MOL   H244 3612   4.387   6.485   5.510  1.0848 -0.0577 -1.4520
    5MOL   H245 3613   4.401   6.446   5.255  3.2396 -3.2612  1.0325
    5MOL   H246 3614   4.545   6.478   5.322 -0.0337  0.0928  3.3938
    5MOL   H247 3615   4.553   6.710   5.255 -0.8384  0.3747 -1.4513
    5MOL   H248 3616   4.383   6.724   5.218  0.5554  0.3036 -1.4851
    5MOL   H249 3617   4.418   6.545   5.036  0.5684  0.2857  0.8152
    5MOL   H250 3618   4.586   6.533   5.086 -1.6547 -1.7678  1.7205
    5MOL   H251 3619   4.448   6.782   4.969 -0.1226 -0.1786 -1.6677
    5MOL   H252 3620   4.612   6.755   5.034  2.8092 -3.3203 -1.3889
    5MOL   H253 3621   4.573   6.683   4.881 -0.6648  0.9283 -0.3700
    5MOL   C254 3622   4.252   6.166   5.835  0.1222  0.3858  0.3181
    5MOL   C255 3623   4.166   6.096   5.725 -0.6097  0.0880 -0.2716
    5MOL   C256 3624   4.272   6.064   5.619  0.1096 -0.1843  0.4195
    5MOL   C257 3625   4.309   6.192   5.527  0.5059  0.4434 -0.4543
    5MOL   C258 3626   4.410   6.161   5.417  0.1873  0.0364  0.0161
    5MOL   C259 3627   4.352   6.102   5.289 -0.5425  0.1998 -0.0736
    5MOL   C260 3628   4.473   6.062   5.185  0.4964  0.0281 -0.1412
    5MOL   C261 3629   4.433   5.971   5.068 -0.3951  0.5590 -0.6171
    5MOL   C262 3630   4.357   6.047   4.958  1.0185  0.4201 -0.4921
    5MOL   C263 3631   4.452   6.134   4.870  0.5252 -0.5365 -0.1291
    5MOL   C264 3632   4.375   6.207   4.762 -0.2328  0.2175  0.3081
    5MOL   C265 3633   4.453   6.326   4.704 -0.9496 -0.8316 -0.2280
    5MOL   C266 3634   4.363   6.438   4.653 -0.0716 -0.1160  0.5911
    5MOL   C267 3635   4.292   6.518   4.764  0.2113 -0.1519  0.1850
    5MOL   H268 3636   4.340   6.110   5.864 -0.6075 -1.5800 -1.1504
    5MOL   H269 3637   4.309   6.254   5.802  1.3728 -0.2422  0.7829
    5MOL   H270 3638   4.097   6.173   5.689 -1.3672 -0.0260  0.8905
    5MOL   H271 3639   4.233   5.995   5.544  2.0591 -0.6168 -0.2181
    5MOL   H272 3640   4.359   6.010   5.657 -1.4471 -1.2840  2.5365
    5MOL   H273 3641   4.348   6.273   5.589  0.7820 -0.4722  0.5617
    5MOL   H274 3642   4.218   6.231   5.481 -1.1098 -2.3014  0.3287
    5MOL   H275 3643   4.495   6.111   5.463 -0.4039  1.9185  3.3460
    5MOL   H276 3644   4.458   6.253   5.383  0.6723  0.6287  2.1982
    5MOL   H277 3645   4.266   6.151   5.244 -0.6882  0.0279  0.0157
    5MOL   H278 3646   4.299   6.011   5.319 -0.6904  0.4563  0.4555
    5MOL   H279 3647   4.507   6.158   5.147 -0.0274  1.4198  2.7546
    5MOL   H280 3648   4.546   6.012   5.249  0.8521  0.4055 -0.2486
    5MOL   H281 3649   4.371   5.891   5.107 -0.6725  1.1090  0.0814
    5MOL   H282 3650   4.524   5.932   5.021 -0.2293 -1.1026  1.0770
    5MOL   H283 3651   4.318   5.972   4.889  1.2395  0.5787 -0.7893
    5MOL   H284 3652   4.274   6.110   4.992  2.0360  1.3088  0.4026
    5MOL   H285 3653   4.536   6.078   4.829 -0.5804 -1.3036 -1.3634
    5MOL   H286 3654   4.500   6.204   4.939  2.4944 -0.9811 -1.0221
    5MOL   H287 3655   4.277   6.245   4.792 -0.1477  1.3312 -0.7738
    5MOL   H288 3656   4.347   6.132   4.688  1.3419 -1.5521  1.4842
    5MOL   H289 3657   4.514   6.373   4.781 -1.3940 -0.5464 -0.0432
    5MOL   H290 3658   4.516   6.296   4.620  0.4697  0.4925  0.3412
    5MOL   H291 3659   4.408   6.509   4.583  0.9441 -1.5802 -0.2610
    5MOL   H292 3660   4.293   6.378   4.596 -0.0438  0.8548 -0.4792
    5MOL   H293 3661   4.359   6.591   4.811  2.2066  0.5112 -3.5703
    5MOL   H294 3662   4.241   6.460   4.841  0.2775 -1.6751 -0.9020
    5MOL   H295 3663   4.223   6.585   4.714 -0.4646 -0.2244  1.0039
    5MOL   C296 3664   4.104   5.964   5.769  0.0302 -0.0105 -0.2453
    5MOL   C297 3665   3.991   5.925   5.676 -0.4422 -0.0606 -0.0271
    5MOL   C298 3666   3.931   5.787   5.726 -0.6603  0.4299 -0.5443
    5MOL   C299 3667   3.818   5.725   5.642 -0.2328  0.3257 -0.5856
    5MOL   C300 3668   3.747   5.608   5.720 -0.4161  0.1465  0.7659
    5MOL   C301 3669   3.645   5.543   5.626 -0.2685  0.2107  0.3851
    5MOL   C302 3670   3.558   5.449   5.715  0.2463  0.3305  0.3615
    5MOL   C303 3671   3.454   5.373   5.630  1.3537 -0.4243 -0.4385
    5MOL   C304 3672   3.381   5.266   5.713 -0.2302 -0.4080  0.0958
    5MOL   C305 3673   3.476   5.146   5.739 -0.0737 -0.0296 -0.0652
    5MOL   C306 3674   3.410   5.030   5.822 -0.3010  0.6331  0.0316
    5MOL   C307 3675   3.508   4.920   5.867  0.3025 -0.0590  0.0877
    5MOL   C308 3676   3.460   4.862   6.007  0.4113 -0.6448  0.1388
    5MOL   C309 3677   3.327   4.782   5.987 -0.2092 -0.3073 -0.4759
    5MOL   H310 3678   4.051   5.971   5.865  0.5066  0.1852  0.0055
    5MOL   H311 3679   4.176   5.885   5.791 -1.6303 -0.9764  1.9764
    5MOL   H312 3680   4.036   5.902   5.580  1.9832 -0.6605  1.2283
    5MOL   H313 3681   3.892   5.801   5.827 -0.6837 -1.4490 -0.2742
    5MOL   H314 3682   4.007   5.708   5.732 -2.2568 -1.1856 -1.1320
    5MOL   H315 3683   3.848   5.698   5.541  0.5176 -1.4477  0.0755
    5MOL   H316 3684   3.747   5.806   5.632 -1.8442 -1.0519 -0.5126
    5MOL   H317 3685   3.821   5.535   5.752 -1.6412 -1.3390  0.2266
    5MOL   H318 3686   3.694   5.651   5.805 -0.8051  0.4435  0.3811
    5MOL   H319 3687   3.695   5.468   5.563 -0.5122 -1.0906  1.6982
    5MOL   H320 3688   3.583   5.615   5.573  0.4902  0.8723  0.3948
    5MOL   H321 3689   3.630   5.387   5.769  0.1600 -0.3955 -0.3509
    5MOL   H322 3690   3.508   5.516   5.785 -2.0171 -0.6635 -0.2557
    5MOL   H323 3691   3.498   5.332   5.539 -1.6612 -1.8642 -1.2814
    5MOL   H324 3692   3.376   5.443   5.602  0.9979 -0.8518 -0.5163
    5MOL   H325 3693   3.343   5.312   5.805 -0.2616  1.5425 -0.8778
    5MOL   H326 3694   3.301   5.231   5.648  0.5119  0.0494 -1.0744
    5MOL   H327 3695   3.564   5.167   5.800  0.8073 -2.2451 -0.4943
    5MOL   H328 3696   3.519   5.094   5.653 -1.3414 -2.1916  0.5811
    5MOL   H329 3697   3.326   4.980   5.774 -0.4428 -0.5574  1.4860
    5MOL   H330 3698   3.362   5.082   5.905 -0.2463  0.6644  0.0428
    5MOL   H331 3699   3.606   4.965   5.879 -0.1328  0.7628  0.5616
    5MOL   H332 3700   3.513   4.837   5.797  0.9273 -4.4325  4.9925
    5MOL   H333 3701   3.463   4.935   6.088 -0.1162  0.3497 -0.7185
    5MOL   H334 3702   3.538   4.795   6.042  2.9370  1.8453 -0.5045
    5MOL   H335 3703   3.344   4.719   5.900  0.7829  0.6730 -1.0186
    5MOL   H336 3704   3.301   4.728   6.077 -0.9306 -0.3245 -0.6927
    5MOL   H337 3705   3.242   4.845   5.962  0.2262  1.1313  1.5500
    5MOL   C338 3706   3.872   6.032   5.667  0.9559 -0.5277 -0.3233
    5MOL   C339 3707   3.826   6.057   5.521  0.1572 -0.2439  0.2711
    5MOL   C340 3708   3.684   6.111   5.518  0.4801 -0.1502 -0.2835
    5MOL   C341 3709   3.670   6.257   5.579 -0.9518  0.3096 -0.1078
    5MOL   C342 3710   3.526   6.294   5.602 -0.0545 -0.3116  0.1780
    5MOL   C343 3711   3.527   6.441   5.661  0.1156 -0.5832 -0.2587
    5MOL   C344 3712   3.397   6.514   5.678 -0.3513 -0.2051 -0.6138
    5MOL   C345 3713   3.422   6.650   5.732  0.9180 -0.3103  0.0443
    5MOL   C346 3714   3.286   6.727   5.770 -0.4059 -0.6047 -0.3936
    5MOL   C347 3715   3.306   6.867   5.846 -0.0696  0.2399  0.9060
    5MOL   C348 3716   3.317   6.850   6.000  0.3469 -1.0364  0.1426
    5MOL   C349 3717   3.350   6.991   6.054  0.0657  0.1704  0.0252
    5MOL   C350 3718   3.362   7.009   6.209  0.3485  0.0734 -0.0958
    5MOL   C351 3719   3.401   7.148   6.250 -0.4718  0.5201  0.2471
    5MOL   H352 3720   3.791   5.998   5.731  1.0645  0.9357  0.6188
    5MOL   H353 3721   3.904   6.127   5.709 -2.0386 -0.2504  1.4637
    5MOL   H354 3722   3.830   5.963   5.466  2.8863  0.0585 -0.1013
    5MOL   H355 3723   3.639   6.110   5.418 -1.4793 -1.1841  0.5746
    5MOL   H356 3724   3.621   6.033   5.562 -1.6035 -0.0686 -2.9192
    5MOL   H357 3725   3.725   6.332   5.521 -1.3911  0.4005 -0.4153
    5MOL   H358 3726   3.707   6.249   5.681  2.6682  0.2204 -1.3505
    5MOL   H359 3727   3.483   6.223   5.673 -0.0205  1.0692  1.6115
    5MOL   H360 3728   3.464   6.298   5.512  1.0728 -0.2479 -0.6000
    5MOL   H361 3729   3.581   6.447   5.756 -1.0297 -1.2626  0.4435
    5MOL   H362 3730   3.573   6.509   5.589  0.7212  0.5310  1.1413
    5MOL   H363 3731   3.345   6.523   5.583 -1.8797  0.8803  0.3022
    5MOL   H364 3732   3.341   6.459   5.754  0.6043 -0.8448 -0.3642
    5MOL   H365 3733   3.488   6.630   5.817  1.1422 -1.4345 -0.3799
    5MOL   H366 3734   3.479   6.713   5.664  0.8100 -0.5473 -0.2652
    5MOL   H367 3735   3.240   6.753   5.675  1.9252 -1.6375 -1.8461
    5MOL   H368 3736   3.211   6.665   5.821 -1.4325 -1.1004 -2.4495
    5MOL   H369 3737   3.390   6.913   5.794  0.1321 -0.3298  0.7191
    5MOL   H370 3738   3.218   6.926   5.820 -0.2717 -0.0922  0.8294
    5MOL   H371 3739   3.387   6.771   6.030  1.4290  0.7376  2.4064
    5MOL   H372 3740   3.224   6.827   6.051 -0.7481 -0.0026 -1.3372
    5MOL   H373 3741   3.290   7.068   6.005 -0.5401  0.3671  1.0686
    5MOL   H374 3742   3.453   7.011   6.023  0.0070  1.8742  0.8507
    5MOL   H375 3743   3.275   6.974   6.265  1.2934 -0.4394  1.0612
    5MOL   H376 3744   3.435   6.932   6.234  1.0159  1.6052  2.8723
    5MOL   H377 3745   3.314   7.214   6.254 -2.2150 -1.6077 -1.5420
    5MOL   H378 3746   3.440   7.150   6.352 -1.3786 -1.4683  0.6458
    5MOL   H379 3747   3.475   7.189   6.182  0.8230 -0.6339  0.9358
    5MOL   C380 3748   3.927   6.164   5.457  0.4948  0.0079 -0.3030
    5MOL   C381 3749   3.910   6.196   5.302  0.1013  0.4487 -0.2308
    5MOL   C382 3750   3.987   6.326   5.275  0.2028  0.5193  0.4556
    5MOL   C383 3751   3.959   6.377   5.134 -0.0526 -0.2377 -0.1166
    5MOL   C384 3752   4.014   6.522   5.135  0.3480 -0.0400  0.2405
    5MOL   C385 3753   3.980   6.584   5.004  0.1376 -0.0995  0.5486
    5MOL   C386 3754   4.049   6.718   4.980  0.2679 -0.3831 -0.0876
    5MOL   C387 3755   3.990   6.830   5.070 -0.8213  0.7065  0.1809
    5MOL   C388 3756   4.082   6.952   5.078  0.0292  0.4352 -0.6226
    5MOL   C389 3757   4.034   7.063   5.175  0.4169 -0.0151  1.0923
    5MOL   C390 3758   4.067   7.024   5.324 -0.3700 -0.8038  0.1121
    5MOL   C391 3759   3.967   7.092   5.425 -0.1280 -0.1230  0.1130
    5MOL   C392 3760   4.005   7.039   5.566 -0.7149 -0.0723  0.5096
    5MOL   C393 3761   3.896   7.081   5.659  0.2192 -0.3257 -0.2353
    5MOL   H394 3762   4.028   6.125   5.462  0.6392  0.2543 -1.1480
    5MOL   H395 3763   3.928   6.255   5.518 -0.9134  0.8007 -1.4203
    5MOL   H396 3764   3.806   6.222   5.283  0.4231  0.9100 -1.3774
    5MOL   H397 3765   4.094   6.317   5.293  0.5233  0.1281 -1.5140
    5MOL   H398 3766   3.955   6.402   5.346  1.5677  1.0004  0.5621
    5MOL   H399 3767   3.853   6.378   5.110 -0.4889  0.8786  1.7035
    5MOL   H400 3768   4.022   6.326   5.061 -0.2444 -0.5545 -0.0606
    5MOL   H401 3769   4.122   6.532   5.143  0.3006  0.7236 -0.0462
    5MOL   H402 3770   3.965   6.576   5.216 -0.9016 -0.2329 -0.3706
    5MOL   H403 3771   3.872   6.593   4.993  0.0413 -0.9160  0.7909
    5MOL   H404 3772   4.015   6.518   4.924 -1.0629  0.0331 -0.0953
    5MOL   H405 3773   4.151   6.700   5.013  0.0015 -2.1784 -0.1986
    5MOL   H406 3774   4.044   6.746   4.875 -1.0478 -1.0713 -0.2250
    5MOL   H407 3775   3.887   6.849   5.040 -1.0009 -1.1980 -0.4774
    5MOL   H408 3776   3.992   6.796   5.174  1.8437  0.6995  0.1554
    5MOL   H409 3777   4.187   6.922   5.085 -0.2492 -0.7892 -1.6367
    5MOL   H410 3778   4.080   6.996   4.978 -0.1166  0.4422 -0.6175
    5MOL   H411 3779   3.928   7.080   5.154  0.2678 -1.1220  0.8811
    5MOL   H412 3780   4.093   7.148   5.142 -0.1036 -0.9514 -2.4667
    5MOL   H413 3781   4.057   6.916   5.339 -2.6038 -0.8157 -1.2867
    5MOL   H414 3782   4.172   7.030   5.353  0.0700  0.2876 -1.6302
    5MOL   H415 3783   3.865   7.074   5.393 -0.2384 -0.1634  0.4824
    5MOL   H416 3784   3.979   7.200   5.427  0.4401 -0.1928  1.9155
    5MOL   H417 3785   3.996   6.930   5.565  0.3187 -0.1447 -0.8599
    5MOL   H418 3786   4.106   7.073   5.586  0.1617 -1.4573 -1.4565
    5MOL   H419 3787   3.806   7.024   5.637 -0.1308  0.8073 -1.8742
    5MOL   H420 3788   3.877   7.188   5.645 -2.7393 -0.4413  2.2711
    5MOL   H421 3789   3.929   7.067   5.762  0.2302  1.9556  0.1060
    5MOL   C422 3790   3.962   6.075   5.211 -0.0902 -0.2751 -0.1962
    5MOL   C423 3791   3.856   5.987   5.150  0.5411  0.3357  0.0834
    5MOL   C424 3792   3.770   6.042   5.037 -0.7466 -0.6755 -0.0090
    5MOL   C425 3793   3.852   6.076   4.907  0.9402 -1.3790  1.5108
    5MOL   C426 3794   3.754   6.127   4.790  0.0305 -0.6226 -0.4090
    5MOL   C427 3795   3.799   6.116   4.646 -0.1011 -0.1880 -0.3087
    5MOL   C428 3796   3.887   6.229   4.596 -0.4098  0.0133  0.6037
    5MOL   C429 3797   3.922   6.239   4.452  0.3022  0.0208 -0.2836
    5MOL   C430 3798   4.011   6.360   4.409  0.0991 -0.4792 -0.4445
    5MOL   C431 3799   4.128   6.303   4.330  0.5952 -0.2201 -0.3657
    5MOL   C432 3800   4.223   6.407   4.283 -0.7974 -0.1516  0.1331
    5MOL   C433 3801   4.344   6.354   4.204  0.6229  0.4599 -0.0455
    5MOL   C434 3802   4.464   6.448   4.195  0.0913  0.4467 -0.0867
    5MOL   C435 3803   4.548   6.465   4.319 -0.2214  0.1684  0.2833
    5MOL   H436 3804   4.043   6.022   5.260 -1.1154 -2.0280 -0.3678
    5MOL   H437 3805   4.021   6.117   5.129 -1.6420 -1.3407 -1.8996
    5MOL   H438 3806   3.787   5.969   5.233  0.5767  2.0537  0.5134
    5MOL   H439 3807   3.720   6.133   5.071  1.5314  0.5964  0.0729
    5MOL   H440 3808   3.686   5.975   5.022 -0.0423 -1.2856 -1.2807
    5MOL   H441 3809   3.929   6.151   4.925  0.9436 -1.0492  0.2243
    5MOL   H442 3810   3.906   5.988   4.870 -0.3200 -1.2661 -0.7193
    5MOL   H443 3811   3.712   6.226   4.811 -0.0742 -0.7490 -0.0145
    5MOL   H444 3812   3.676   6.053   4.805 -1.8371  1.3701  0.0652
    5MOL   H445 3813   3.702   6.114   4.597 -1.9228  1.8256  3.0370
    5MOL   H446 3814   3.853   6.022   4.631  0.6653  0.2597 -0.4084
    5MOL   H447 3815   3.848   6.328   4.620 -0.0488  0.5001 -0.7958
    5MOL   H448 3816   3.977   6.220   4.657  0.0995  0.5959 -0.0515
    5MOL   H449 3817   3.960   6.140   4.426  2.5767  1.2969 -1.9524
    5MOL   H450 3818   3.828   6.259   4.399 -1.2799 -0.9610  2.0418
    5MOL   H451 3819   3.953   6.424   4.342  1.1211  0.0700 -0.8279
    5MOL   H452 3820   4.046   6.403   4.502  0.7539 -0.0142 -0.8987
    5MOL   H453 3821   4.181   6.232   4.394 -3.2300 -4.0643 -1.1912
    5MOL   H454 3822   4.103   6.230   4.253  0.3537  0.9202 -1.3925
    5MOL   H455 3823   4.161   6.476   4.226 -0.6047 -1.3522 -1.5427
    5MOL   H456 3824   4.254   6.456   4.376 -0.9449 -2.0035  1.1772
    5MOL   H457 3825   4.313   6.319   4.106 -1.2032 -0.3133  0.7673
    5MOL   H458 3826   4.387   6.267   4.253  2.3269  0.9230 -0.6816
    5MOL   H459 3827   4.529   6.422   4.111 -0.3404 -1.1571  0.0463
    5MOL   H460 3828   4.427   6.547   4.170  2.6091  0.8950 -2.2416
    5MOL   H461 3829   4.598   6.376   4.357 -2.3015 -1.5252 -0.8089
    5MOL   H462 3830   4.485   6.506   4.398 -0.9466  0.1500 -0.2757
    5MOL   H463 3831   4.621   6.545   4.305 -1.3772  1.2011  0.0515
    5MOL   C464 3832   3.911   5.849   5.103  0.4068 -0.6977  0.6938
    5MOL   C465 3833   3.913   5.741   5.206  0.1723  0.2072  0.1869
    5MOL   C466 3834   3.771   5.699   5.252  0.2598  0.1940 -0.6486
    5MOL   C467 3835   3.681   5.660   5.140 -0.2183  0.3530  0.4638
    5MOL   C468 3836   3.553   5.602   5.199  0.1561  0.0672 -0.3602
    5MOL   C469 3837   3.471   5.525   5.103  0.1386 -0.7719 -0.0618
    5MOL   C470 3838   3.368   5.427   5.154  0.5420 -0.7942  0.2959
    5MOL   C471 3839   3.440   5.306   5.226  0.2116  0.2052 -0.3230
    5MOL   C472 3840   3.336   5.207   5.285  0.8053  0.0665  0.0236
    5MOL   C473 3841   3.404   5.090   5.356 -0.3454 -0.1034  0.7879
    5MOL   C474 3842   3.305   4.989   5.418 -1.0686 -1.0809  0.0509
    5MOL   C475 3843   3.374   4.863   5.482 -0.2774  0.0216 -0.0959
    5MOL   C476 3844   3.262   4.753   5.497 -0.2442  0.3730 -0.2657
    5MOL   C477 3845   3.320   4.625   5.537 -0.1852  0.5937  1.2088
    5MOL   H478 3846   4.015   5.862   5.075  0.7589 -0.9133  1.8703
    5MOL   H479 3847   3.852   5.810   5.020 -1.1012  1.9085  0.4879
    5MOL   H480 3848   3.966   5.777   5.294  1.2834 -0.6292 -0.1383
    5MOL   H481 3849   3.776   5.623   5.330 -0.2425  1.3409  0.5288
    5MOL   H482 3850   3.725   5.781   5.308  1.5023 -1.3069  2.6952
    5MOL   H483 3851   3.737   5.591   5.078 -0.8693  0.5487 -0.3404
    5MOL   H484 3852   3.647   5.739   5.073  0.5292  1.2001  1.0719
    5MOL   H485 3853   3.499   5.676   5.258  0.4369  1.3666 -1.7238
    5MOL   H486 3854   3.580   5.539   5.284 -0.3134  0.3357 -0.0078
    5MOL   H487 3855   3.432   5.594   5.027  1.3281 -0.9418 -0.8369
    5MOL   H488 3856   3.543   5.467   5.045 -1.0035  0.6813 -3.0753
    5MOL   H489 3857   3.309   5.474   5.233 -0.0250 -0.5475 -0.2727
    5MOL   H490 3858   3.302   5.388   5.077 -1.0594  1.1248  0.6586
    5MOL   H491 3859   3.510   5.259   5.157  0.6290 -0.0571  0.2748
    5MOL   H492 3860   3.504   5.336   5.308  0.9884 -2.3281  0.0526
    5MOL   H493 3861   3.265   5.248   5.357 -2.5720 -0.6867 -2.6947
    5MOL   H494 3862   3.279   5.162   5.204 -0.2470 -1.1517  1.4045
    5MOL   H495 3863   3.476   5.043   5.289 -0.5765  0.4838  0.1223
    5MOL   H496 3864   3.467   5.127   5.437  1.2054 -1.1833  0.0949
    5MOL   H497 3865   3.259   5.049   5.497 -0.5675  1.1391 -1.2975
    5MOL   H498 3866   3.229   4.956   5.347  0.9603 -4.7158 -0.5454
    5MOL   H499 3867   3.415   4.879   5.581  1.3868 -0.3945 -0.6947
    5MOL   H500 3868   3.451   4.823   5.416 -0.6336 -2.0147  0.7104
    5MOL   H501 3869   3.186   4.776   5.573 -0.0348  1.0699 -0.2573
    5MOL   H502 3870   3.198   4.749   5.409 -0.9940  0.1212  0.2816
    5MOL   H503 3871   3.378   4.645   5.627  0.9698  3.5805 -0.1392
    5MOL   H504 3872   3.238   4.556   5.561  1.3728 -1.7987 -0.1404
    5MOL   H505 3873   3.383   4.575   5.464  0.0572 -0.0777  1.8601
    5MOL   C506 3874   4.006   5.619   5.166 -0.6485 -0.0838 -0.2560
    5MOL   C507 3875   4.156   5.636   5.209  0.4861 -0.5736  0.0441
    5MOL   C508 3876   4.182   5.622   5.364 -0.0104  0.1047 -0.6049
    5MOL   C509 3877   4.324   5.668   5.404  0.0894  0.1991 -0.6690
    5MOL   C510 3878   4.335   5.662   5.562 -0.5449 -0.8050 -0.3696
    5MOL   C511 3879   4.476   5.707   5.611  0.1453 -0.1853 -0.3473
    5MOL   C512 3880   4.474   5.750   5.760  0.3322 -0.6613 -0.0936
    5MOL   C513 3881   4.608   5.828   5.798  0.5822 -0.2582  0.2629
    5MOL   C514 3882   4.593   5.891   5.937 -0.1187 -0.2164  0.0401
    5MOL   C515 3883   4.717   5.952   5.981 -0.5522 -0.0026 -0.0953
    5MOL   C516 3884   4.713   6.033   6.110  0.8041  0.3797  0.5622
    5MOL   C517 3885   4.842   6.097   6.148  0.0099 -0.1451  0.3529
    5MOL   C518 3886   4.818   6.204   6.254  0.0877 -0.7160 -0.1981
    5MOL   C519 3887   4.950   6.271   6.281 -0.3858  0.4037 -0.2484
    5MOL   H520 3888   3.999   5.612   5.057 -0.7685  2.0601 -0.4007
    5MOL   H521 3889   3.961   5.526   5.200  0.2371 -1.2338 -2.1573
    5MOL   H522 3890   4.176   5.737   5.172 -0.3166 -0.5007 -0.2048
    5MOL   H523 3891   4.118   5.689   5.422 -0.2852 -0.1904 -0.5678
    5MOL   H524 3892   4.158   5.522   5.400 -1.0254  0.6826  0.3522
    5MOL   H525 3893   4.390   5.593   5.359 -0.8252 -0.5926 -0.7250
    5MOL   H526 3894   4.354   5.767   5.370  1.1444 -0.1686 -0.8151
    5MOL   H527 3895   4.314   5.565   5.607 -2.1185 -0.8313 -1.1234
    5MOL   H528 3896   4.270   5.739   5.605  0.3461 -0.4875  0.4289
    5MOL   H529 3897   4.512   5.800   5.567 -1.7712 -0.3949 -2.4335
    5MOL   H530 3898   4.561   5.641   5.593 -1.0349 -1.6835 -0.4267
    5MOL   H531 3899   4.396   5.822   5.784  0.7592 -0.2878  0.1679
    5MOL   H532 3900   4.442   5.671   5.828 -0.4252 -0.2790  0.0004
    5MOL   H533 3901   4.617   5.919   5.738 -0.8099  0.5751  1.2792
    5MOL   H534 3902   4.697   5.765   5.792  0.6205 -0.0449 -2.2629
    5MOL   H535 3903   4.567   5.818   6.015  0.1295  0.3574  0.6639
    5MOL   H536 3904   4.506   5.956   5.935 -0.2179 -0.3777 -1.1954
    5MOL   H537 3905   4.786   5.871   6.002 -0.7997  0.0081  0.7987
    5MOL   H538 3906   4.764   6.013   5.904  0.4767 -0.4035  0.2044
    5MOL   H539 3907   4.632   6.105   6.107 -0.7380 -1.3681 -1.5242
    5MOL   H540 3908   4.695   5.966   6.194  0.2884  0.2373  0.3402
    5MOL   H541 3909   4.886   6.145   6.060 -0.2242 -0.7866 -0.1159
    5MOL   H542 3910   4.911   6.028   6.196 -1.0227 -0.7221  1.0283
    5MOL   H543 3911   4.777   6.159   6.344  0.3972 -1.6928 -0.5373
    5MOL   H544 3912   4.739   6.273   6.224  0.1697 -0.6343 -0.2265
    5MOL   H545 3913   4.931   6.334   6.368 -0.0278  0.0185  0.1124
    5MOL   H546 3914   5.027   6.197   6.304 -1.3503 -0.4452  0.3073
    5MOL   H547 3915   4.991   6.333   6.201 -0.8138  0.9281 -0.0588
    5MOL   C548 3916   4.250   5.541   5.134 -0.1863 -0.4608 -0.1287
    5MOL   C549 3917   4.254   5.538   4.970  0.6124  0.4797 -0.0309
    5MOL   C550 3918   4.275   5.670   4.901  0.0722 -0.5079  0.0010
    5MOL   C551 3919   4.261   5.667   4.745  0.4328  0.6204 -0.6648
    5MOL   C552 3920   4.240   5.810   4.676 -0.9583 -0.0336 -0.5565
    5MOL   C553 3921   4.226   5.790   4.520 -0.6180 -0.4038  0.2813
    5MOL   C554 3922   4.189   5.924   4.456  0.4230 -0.2853 -0.4040
    5MOL   C555 3923   4.175   5.909   4.301 -0.6025 -0.1955  0.1782
    5MOL   C556 3924   4.311   5.889   4.231  0.3364 -0.5475 -0.0359
    5MOL   C557 3925   4.294   5.891   4.079  0.5473  0.3239 -0.5528
    5MOL   C558 3926   4.427   5.939   4.013  0.1762  0.3582  1.4935
    5MOL   C559 3927   4.428   5.934   3.862 -0.2845 -0.0901 -0.4418
    5MOL   C560 3928   4.552   5.994   3.801  0.4862  0.1307 -0.6165
    5MOL   C561 3929   4.561   5.961   3.653 -0.4160  0.5844  0.5711
    5MOL   H562 3930   4.350   5.543   5.178 -0.4769  3.0344  0.5111
    5MOL   H563 3931   4.212   5.443   5.163 -0.6446  0.0535  1.0378
    5MOL   H564 3932   4.161   5.503   4.926  1.3431  0.3440 -1.4901
    5MOL   H565 3933   4.190   5.732   4.928 -1.7897 -3.2426  0.6904
    5MOL   H566 3934   4.367   5.716   4.937 -0.0841  0.6693 -1.1039
    5MOL   H567 3935   4.196   5.586   4.713  0.4994 -0.9799  2.9050
    5MOL   H568 3936   4.357   5.630   4.711  0.6250 -0.7058  1.2021
    5MOL   H569 3937   4.162   5.875   4.717 -0.2176  0.6591 -0.2454
    5MOL   H570 3938   4.331   5.866   4.696 -0.6868 -0.0935 -1.6124
    5MOL   H571 3939   4.150   5.720   4.486  1.1586 -2.9231  1.3641
    5MOL   H572 3940   4.325   5.763   4.484 -0.0462 -0.4136  1.8110
    5MOL   H573 3941   4.091   5.960   4.486  0.6998 -0.5549  0.8232
    5MOL   H574 3942   4.258   6.005   4.479 -1.4289  0.4886  2.6363
    5MOL   H575 3943   4.116   5.991   4.260 -0.2706  1.0190  2.0948
    5MOL   H576 3944   4.118   5.820   4.274 -0.3584 -0.2093 -0.3077
    5MOL   H577 3945   4.368   5.801   4.258  3.2379  1.5400  0.8620
    5MOL   H578 3946   4.374   5.975   4.254  2.2568 -1.9652  0.1150
    5MOL   H579 3947   4.267   5.789   4.051  1.0582 -0.0081  0.1694
    5MOL   H580 3948   4.217   5.959   4.043  0.0122 -0.3425 -0.6725
    5MOL   H581 3949   4.508   5.871   4.040 -1.0063 -1.3426  0.8306
    5MOL   H582 3950   4.463   6.037   4.043  1.3509  0.7006 -0.9407
    5MOL   H583 3951   4.419   5.828   3.834  1.8132 -0.6817  1.0326
    5MOL   H584 3952   4.342   5.981   3.815 -1.4007 -2.0549 -0.4115
    5MOL   H585 3953   4.554   6.102   3.812  0.9920  0.2489 -1.8440
    5MOL   H586 3954   4.638   5.953   3.854 -0.0735 -1.7223 -1.0820
    5MOL   H587 3955   4.594   5.858   3.647  0.0806  0.8605 -2.7102
    5MOL   H588 3956   4.469   5.972   3.595  0.9584  0.4247 -1.6996
    5MOL   H589 3957   4.649   6.005   3.606 -1.1755  0.6472 -0.8492
    5MOL   C590 3958   4.347   5.425   4.914  0.0770 -0.2479 -0.2432
    5MOL   C591 3959   4.491   5.421   4.949 -0.0671 -0.1623 -0.7313
    5MOL   C592 3960   4.552   5.285   4.907  0.2764 -1.4098  0.1644
    5MOL   C593 3961   4.543   5.233   4.767  0.6170  0.1651  0.5022
    5MOL   C594 3962   4.588   5.080   4.763  0.3896  0.6774 -0.1704
    5MOL   C595 3963   4.740   5.052   4.787 -0.3829 -0.0147 -0.2339
    5MOL   C596 3964   4.776   4.907   4.786  0.3663 -0.0493 -0.4170
    5MOL   C597 3965   4.929   4.898   4.811  0.0169  0.3471  0.8585
    5MOL   C598 3966   4.991   4.757   4.808  0.0865 -0.3901  0.0473
    5MOL   C599 3967   5.140   4.743   4.856 -0.0560  0.0476 -0.0358
    5MOL   C600 3968   5.181   4.593   4.862  0.1433 -0.2048  0.0440
    5MOL   C601 3969   5.241   4.563   5.005 -0.0380  0.3862 -0.7155
    5MOL   C602 3970   5.384   4.627   5.029 -0.4110 -0.2619  0.0739
    5MOL   C603 3971   5.444   4.566   5.151 -0.6511  0.1796  0.0757
    5MOL   H604 3972   4.351   5.425   4.805 -1.0842 -1.3246 -0.2984
    5MOL   H605 3973   4.314   5.323   4.933  0.1740 -0.0743  0.8603
    5MOL   H606 3974   4.506   5.426   5.057 -0.2586 -0.6605 -0.6813
    5MOL   H607 3975   4.501   5.215   4.973 -1.3991 -0.7073 -0.3800
    5MOL   H608 3976   4.655   5.273   4.943  1.1278  1.1777 -1.3118
    5MOL   H609 3977   4.606   5.284   4.694 -2.2113  3.5887  0.3466
    5MOL   H610 3978   4.440   5.240   4.733 -0.5265 -2.4697  3.1617
    5MOL   H611 3979   4.572   5.035   4.666 -2.2628 -0.0604  0.5571
    5MOL   H612 3980   4.508   5.025   4.814 -0.0515  1.2881 -0.1893
    5MOL   H613 3981   4.777   5.096   4.880  1.9982 -0.4995 -0.9358
    5MOL   H614 3982   4.794   5.105   4.709  1.1831 -0.1947  0.7185
    5MOL   H615 3983   4.723   4.846   4.859 -2.1399  2.4986 -0.0383
    5MOL   H616 3984   4.758   4.858   4.691  0.2341  1.2768 -1.0888
    5MOL   H617 3985   4.993   4.949   4.738 -0.0199 -1.7520 -0.6750
    5MOL   H618 3986   4.950   4.936   4.911  1.7227  0.4166  0.4956
    5MOL   H619 3987   4.924   4.693   4.865 -0.4192  0.6245  0.6070
    5MOL   H620 3988   4.997   4.721   4.705  0.4632 -0.6289  0.1519
    5MOL   H621 3989   5.208   4.788   4.783 -0.1039  2.3810  1.3075
    5MOL   H622 3990   5.167   4.801   4.944  2.4372  0.1729 -0.8160
    5MOL   H623 3991   5.251   4.567   4.783 -0.1966  1.7225 -0.9149
    5MOL   H624 3992   5.095   4.529   4.842 -0.6349  0.6106  0.7111
    5MOL   H625 3993   5.238   4.456   5.026 -1.9890  0.4412 -0.6600
    5MOL   H626 3994   5.168   4.593   5.080  0.3928  0.1473 -0.1974
    5MOL   H627 3995   5.437   4.611   4.935 -0.5536 -0.2484 -0.0085
    5MOL   H628 3996   5.378   4.735   5.042 -0.5635 -0.2279 -0.2829
    5MOL   H629 3997   5.447   4.457   5.142  0.8090  0.0973  1.4895
    5MOL   H630 3998   5.386   4.601   5.236 -1.2987 -0.3356 -0.1403
    5MOL   H631 3999   5.546   4.600   5.165 -0.9847  2.2376 -2.1059
    5MOL   C632 4000   4.590   5.530   4.896 -0.2915 -0.3048 -0.8027
    5MOL   C633 4001   4.721   5.548   4.977  0.1644  0.1555  0.2755
    5MOL   C634 4002   4.845   5.589   4.897 -0.0761 -0.3531 -0.9219
    5MOL   C635 4003   4.889   5.470   4.815 -0.6437  0.6423 -0.0996
    5MOL   C636 4004   5.017   5.503   4.749 -0.3320  0.6154  0.4926
    5MOL   C637 4005   5.081   5.381   4.681 -1.1588  0.7826  0.3953
    5MOL   C638 4006   5.036   5.345   4.541  0.0908  0.1549  0.2105
    5MOL   C639 4007   5.118   5.247   4.446  0.1790  0.2578 -0.4329
    5MOL   C640 4008   5.242   5.307   4.373  0.2162  0.2138 -0.3347
    5MOL   C641 4009   5.212   5.410   4.261 -0.7449 -0.0562 -0.1840
    5MOL   C642 4010   5.349   5.446   4.194 -0.0409 -0.0007  0.1568
    5MOL   C643 4011   5.418   5.339   4.099 -1.0281  0.1650 -0.3478
    5MOL   C644 4012   5.529   5.394   4.013 -0.3609  0.3600 -0.4960
    5MOL   C645 4013   5.650   5.445   4.082 -0.3053  0.5338  0.3164
    5MOL   H646 4014   4.537   5.626   4.890  0.9343  0.5101  0.8295
    5MOL   H647 4015   4.604   5.497   4.793  0.3497  0.6518 -1.0318
    5MOL   H648 4016   4.747   5.453   5.025  3.5726  1.5262  1.2720
    5MOL   H649 4017   4.822   5.669   4.827 -0.1952  0.0865 -0.3817
    5MOL   H650 4018   4.928   5.622   4.959 -0.6326  2.1770 -1.4756
    5MOL   H651 4019   4.823   5.448   4.731  1.0284  0.4189 -1.3750
    5MOL   H652 4020   4.893   5.376   4.870 -0.5629 -0.5276 -2.0580
    5MOL   H653 4021   5.089   5.546   4.819  0.1315 -1.8478  1.5989
    5MOL   H654 4022   5.012   5.573   4.667 -3.5053  0.8834  0.8586
    5MOL   H655 4023   5.186   5.404   4.665 -1.3528  2.0136  0.9019
    5MOL   H656 4024   5.068   5.290   4.740 -0.1775  0.1501 -0.3443
    5MOL   H657 4025   4.939   5.295   4.550 -0.4109  0.9937 -0.4533
    5MOL   H658 4026   5.003   5.435   4.488  0.0205 -0.0913 -0.1721
    5MOL   H659 4027   5.051   5.191   4.381 -2.1330  1.2222  1.0581
    5MOL   H660 4028   5.158   5.165   4.506  0.9794 -1.1566 -2.8297
    5MOL   H661 4029   5.295   5.224   4.325  0.1417  0.2925 -0.5552
    5MOL   H662 4030   5.300   5.355   4.451  0.3337 -2.1219  1.0582
    5MOL   H663 4031   5.154   5.376   4.175  0.4361 -0.4687 -0.8311
    5MOL   H664 4032   5.165   5.502   4.295  0.2324  0.7535 -0.9989
    5MOL   H665 4033   5.333   5.537   4.136 -0.7645  0.3840  0.9420
    5MOL   H666 4034   5.422   5.464   4.273 -0.0969  0.5013  0.0985
    5MOL   H667 4035   5.343   5.292   4.035 -0.2062 -1.5546 -0.0782
    5MOL   H668 4036   5.443   5.254   4.163  1.2787  1.8491  1.0916
    5MOL   H669 4037   5.500   5.460   3.931  0.9570  1.1389 -0.3570
    5MOL   H670 4038   5.563   5.301   3.969 -2.0102 -0.4162 -0.1715
    5MOL   H671 4039   5.697   5.367   4.142  1.0263  2.1386  1.4184
    5MOL   H672 4040   5.727   5.486   4.017 -0.4513 -0.5358 -0.5395
    5MOL   H673 4041   5.619   5.526   4.148  1.3977  1.3903  0.1073
    5MOL   C674 4042   4.697   5.642   5.101  0.2668  0.1725 -0.3741
    5MOL   C675 4043   4.762   5.597   5.235  0.1903  0.4911 -0.1907
    5MOL   C676 4044   4.738   5.710   5.342  0.4996  0.6830  0.9942
    5MOL   C677 4045   4.773   5.862   5.312 -0.9952 -0.6683 -0.1921
    5MOL   C678 4046   4.753   5.945   5.441  0.1249  0.0940 -0.2583
    5MOL   C679 4047   4.785   6.093   5.420 -0.4488  0.4415  0.0563
    5MOL   C680 4048   4.770   6.167   5.549 -0.1910  0.5472  0.7297
    5MOL   C681 4049   4.782   6.313   5.523 -0.3517  0.5241  0.5951
    5MOL   C682 4050   4.788   6.396   5.659 -0.2841 -0.0867  0.1418
    5MOL   C683 4051   4.650   6.412   5.732  0.3800  0.2627  0.2492
    5MOL   C684 4052   4.658   6.477   5.866 -0.7333 -0.6050 -0.2493
    5MOL   C685 4053   4.516   6.508   5.928 -0.2142  0.0992 -0.0926
    5MOL   C686 4054   4.531   6.589   6.057  0.1101  0.0697  0.5282
    5MOL   C687 4055   4.407   6.624   6.138 -0.7849 -0.2449 -0.3211
    5MOL   H688 4056   4.590   5.654   5.120  0.2200 -1.3350  0.3480
    5MOL   H689 4057   4.719   5.745   5.071 -2.7722  0.4331 -1.8781
    5MOL   H690 4058   4.869   5.598   5.218  0.4301  0.2563  1.2583
    5MOL   H691 4059   4.632   5.710   5.365  0.4925 -0.8792  1.0162
    5MOL   H692 4060   4.794   5.685   5.432  0.4313 -0.3030  0.7782
    5MOL   H693 4061   4.880   5.864   5.290 -0.3788  1.4926  2.6109
    5MOL   H694 4062   4.724   5.901   5.224 -1.3286 -2.4620 -0.8222
    5MOL   H695 4063   4.648   5.941   5.471  0.0333 -1.6487 -0.7167
    5MOL   H696 4064   4.817   5.901   5.518  0.6115  0.7754 -0.2709
    5MOL   H697 4065   4.884   6.094   5.375 -0.5225 -1.9417 -0.2123
    5MOL   H698 4066   4.717   6.136   5.346 -1.8906  0.6453  1.4704
    5MOL   H699 4067   4.678   6.140   5.601 -0.4219 -0.1985 -0.0634
    5MOL   H700 4068   4.854   6.136   5.611  0.5590 -0.2678 -0.6551
    5MOL   H701 4069   4.870   6.334   5.461 -0.5466 -0.0981  0.1012
    5MOL   H702 4070   4.708   6.355   5.455  1.3104 -0.2789 -1.8260
    5MOL   H703 4071   4.856   6.363   5.737  0.0821 -1.5551 -0.7595
    5MOL   H704 4072   4.825   6.493   5.625 -0.9520 -0.5387 -1.9483
    5MOL   H705 4073   4.606   6.313   5.745  0.3597  0.5334  2.3531
    5MOL   H706 4074   4.583   6.456   5.658 -2.0424  1.0330  2.8326
    5MOL   H707 4075   4.715   6.569   5.855  0.0260 -0.6982  2.4949
    5MOL   H708 4076   4.721   6.412   5.927 -0.3969  1.1786  1.3356
    5MOL   H709 4077   4.468   6.413   5.951  1.0890 -0.1415  1.6965
    5MOL   H710 4078   4.461   6.564   5.852 -0.5762 -0.6441 -0.3904
    5MOL   H711 4079   4.601   6.545   6.128 -1.0129  0.4185  1.8607
    5MOL   H712 4080   4.573   6.686   6.029  1.3666  0.0428  2.2087
    5MOL   H713 4081   4.354   6.530   6.153 -1.9392  0.4173 -0.1569
    5MOL   H714 4082   4.428   6.669   6.235  0.2107  0.4735 -0.8578
    5MOL   H715 4083   4.348   6.693   6.079  1.2621  0.6272 -1.3845
    5MOL   C716 4084   4.724   5.454   5.281  0.5742 -0.4746  0.2463
    5MOL   C717 4085   4.847   5.366   5.336  0.1042  0.4981  0.5653
    5MOL   C718 4086   4.938   5.316   5.225 -0.3782 -0.1813  0.0102
    5MOL   C719 4087   5.029   5.194   5.263  0.1502  0.6410 -0.9197
    5MOL   C720 4088   5.105   5.126   5.150 -0.8376  0.3738  0.1854
    5MOL   C721 4089   5.225   5.194   5.076  0.0524  0.1553 -0.2401
    5MOL   C722 4090   5.248   5.111   4.951 -0.0592 -0.0477  0.2325
    5MOL   C723 4091   5.368   5.174   4.882 -0.7087 -0.0455  0.0106
    5MOL   C724 4092   5.384   5.102   4.745 -0.0315  0.3463  0.1120
    5MOL   C725 4093   5.512   5.137   4.669  1.1854  0.1032  0.0449
    5MOL   C726 4094   5.500   5.067   4.528 -0.3392  0.0276 -0.1714
    5MOL   C727 4095   5.603   5.110   4.424 -0.1353  0.0072  0.8278
    5MOL   C728 4096   5.610   5.005   4.305  0.4212 -0.8653 -0.1761
    5MOL   C729 4097   5.701   5.052   4.195 -0.0356 -0.0404  0.1944
    5MOL   H730 4098   4.648   5.454   5.359  0.6150  0.8681  0.3008
    5MOL   H731 4099   4.667   5.390   5.214 -0.8387 -1.2268  2.1263
    5MOL   H732 4100   4.789   5.281   5.371  2.3097 -0.4913  1.9868
    5MOL   H733 4101   5.005   5.394   5.189 -2.6866  2.1986  0.6402
    5MOL   H734 4102   4.873   5.278   5.146 -2.4123  0.2886  1.4064
    5MOL   H735 4103   5.094   5.230   5.343  0.4055 -2.7198  0.4609
    5MOL   H736 4104   4.961   5.127   5.315  2.7002  0.0992  1.8302
    5MOL   H737 4105   5.145   5.030   5.182  0.1640  0.3957 -0.9226
    5MOL   H738 4106   5.030   5.108   5.073  0.9677 -1.4080 -1.2340
    5MOL   H739 4107   5.191   5.292   5.042  0.6044  0.4592  0.0792
    5MOL   H740 4108   5.315   5.217   5.132 -1.8157  0.3873  2.7530
    5MOL   H741 4109   5.267   5.008   4.981 -2.0366 -0.6433 -0.4743
    5MOL   H742 4110   5.164   5.107   4.882 -0.3547  0.5987  0.5499
    5MOL   H743 4111   5.455   5.160   4.945 -0.6970  0.5778  0.1355
    5MOL   H744 4112   5.355   5.281   4.865  2.5531  0.1423 -1.6693
    5MOL   H745 4113   5.381   4.993   4.751 -0.3803  0.3628  0.2697
    5MOL   H746 4114   5.293   5.131   4.691  1.3726  1.3641 -1.7546
    5MOL   H747 4115   5.520   5.246   4.660  1.0895  0.1948  0.9370
    5MOL   H748 4116   5.598   5.102   4.726  1.7739  1.6977  0.1759
    5MOL   H749 4117   5.505   4.958   4.530  2.0718  0.0679 -1.5434
    5MOL   H750 4118   5.403   5.094   4.487  0.6972  3.6772 -0.4074
    5MOL   H751 4119   5.583   5.211   4.388  0.2764  0.3961  1.6688
    5MOL   H752 4120   5.700   5.122   4.471  0.4962 -0.4698 -0.3428
    5MOL   H753 4121   5.511   4.993   4.261 -0.1869  2.0022  0.3418
    5MOL   H754 4122   5.651   4.911   4.343  0.0775 -0.8639  0.1969
    5MOL   H755 4123   5.651   5.129   4.136  0.8578  0.7379  0.4467
    5MOL   H756 4124   5.740   4.980   4.123  1.7846 -0.2722  1.3917
    5MOL   H757 4125   5.784   5.110   4.234 -0.8799  1.4224 -0.1459
    5MOL   C758 4126   4.920   5.411   5.464 -0.0384  0.0711 -0.6242
    5MOL   C759 4127   4.833   5.435   5.586  0.1724  0.8053 -0.1041
    5MOL   C760 4128   4.752   5.314   5.641  0.5685  0.1457  0.6833
    5MOL   C761 4129   4.833   5.192   5.670  0.3307  0.3256  0.0554
    5MOL   C762 4130   4.744   5.079   5.722  0.4082 -0.5990 -0.3420
    5MOL   C763 4131   4.716   4.976   5.613  0.0985  0.6215 -0.0256
    5MOL   C764 4132   4.620   4.858   5.661 -0.4908  0.6407 -1.2339
    5MOL   C765 4133   4.469   4.892   5.672 -0.4300 -0.6869 -0.2485
    5MOL   C766 4134   4.367   4.781   5.698  0.4364 -0.1693  0.0185
    5MOL   C767 4135   4.220   4.825   5.671  0.4966 -0.2505 -0.1378
    5MOL   C768 4136   4.133   4.707   5.623  0.0336 -0.2540  0.0946
    5MOL   C769 4137   4.006   4.761   5.547 -0.5199 -0.2862 -0.6386
    5MOL   C770 4138   3.916   4.663   5.465  0.1978  0.3494 -0.2074
    5MOL   C771 4139   3.795   4.732   5.396  0.4638  0.5243 -0.4583
    5MOL   H772 4140   5.007   5.353   5.494 -0.3248  0.4671  1.0345
    5MOL   H773 4141   4.982   5.496   5.436  0.9033  0.6892  3.0822
    5MOL   H774 4142   4.765   5.516   5.561  0.0543 -0.1283 -3.0679
    5MOL   H775 4143   4.691   5.334   5.730 -2.5253  0.2394 -1.3824
    5MOL   H776 4144   4.674   5.282   5.572  1.9074  0.6010 -1.0683
    5MOL   H777 4145   4.886   5.160   5.581 -0.6689 -1.3547  0.0379
    5MOL   H778 4146   4.917   5.214   5.736  1.1544 -2.1511 -0.1314
    5MOL   H779 4147   4.656   5.134   5.757  0.7824 -1.7495  2.5202
    5MOL   H780 4148   4.791   5.023   5.802 -1.2977 -1.0995  0.3375
    5MOL   H781 4149   4.812   4.927   5.596 -0.5284 -1.4238  1.9588
    5MOL   H782 4150   4.696   5.020   5.515 -1.6953  0.8258  0.4087
    5MOL   H783 4151   4.629   4.770   5.597  1.4479 -0.7482  0.8917
    5MOL   H784 4152   4.660   4.827   5.758  1.9368 -0.3325 -2.4952
    5MOL   H785 4153   4.449   4.936   5.574 -1.4702  1.2435  0.7902
    5MOL   H786 4154   4.461   4.972   5.746  0.0181  0.3380 -1.2969
    5MOL   H787 4155   4.374   4.732   5.795  2.0815 -1.4622 -0.7241
    5MOL   H788 4156   4.404   4.701   5.632 -0.3974 -1.8484  1.5503
    5MOL   H789 4157   4.214   4.905   5.596 -1.8746 -0.6819 -0.4415
    5MOL   H790 4158   4.184   4.874   5.762 -2.1354 -0.7423 -0.8739
    5MOL   H791 4159   4.196   4.643   5.561 -0.3256  0.6787 -1.2452
    5MOL   H792 4160   4.103   4.638   5.703  0.6338 -1.5200 -0.7546
    5MOL   H793 4161   3.944   4.812   5.621 -2.0934 -0.4000 -1.8472
    5MOL   H794 4162   4.043   4.836   5.477  0.8812  0.2051  0.6002
    5MOL   H795 4163   3.977   4.624   5.383  0.1991 -0.9038  0.3802
    5MOL   H796 4164   3.884   4.583   5.531  1.7411  1.0500  1.4321
    5MOL   H797 4165   3.708   4.736   5.462  1.0412  1.7803  0.2617
    5MOL   H798 4166   3.803   4.831   5.350  1.9210  1.8632  2.5338
    5MOL   H799 4167   3.758   4.658   5.325 -0.8116  0.3578  0.3526
    5MOL   C800 4168   4.913   5.501   5.702  0.2744  0.1991 -0.2574
    5MOL   C801 4169   4.959   5.645   5.678 -0.2294  0.0977  0.5023
    5MOL   C802 4170   5.029   5.711   5.797  0.3403 -0.1291 -0.0997
    5MOL   C803 4171   5.051   5.868   5.768  0.9383  0.8545  0.2211
    5MOL   C804 4172   5.116   5.929   5.889 -0.0815 -0.5363 -0.0869
    5MOL   C805 4173   5.134   6.083   5.882  0.3643 -0.3356 -0.0974
    5MOL   C806 4174   5.232   6.137   5.990  0.2292 -0.6880  0.3664
    5MOL   C807 4175   5.250   6.289   5.986  0.4757  0.3493 -0.6460
    5MOL   C808 4176   5.314   6.341   6.121 -0.5358 -0.0745 -0.5485
    5MOL   C809 4177   5.361   6.491   6.112  0.4829  0.3313 -0.6358
    5MOL   C810 4178   5.382   6.566   6.242  0.1055  0.3893 -1.4151
    5MOL   C811 4179   5.387   6.723   6.241  0.0713 -0.4782  0.0445
    5MOL   C812 4180   5.414   6.789   6.375 -0.5316 -0.4821 -0.1868
    5MOL   C813 4181   5.316   6.752   6.488  1.1367  0.6797 -0.4306
    5MOL   H814 4182   4.997   5.446   5.745 -1.4750 -1.9931  0.4387
    5MOL   H815 4183   4.845   5.510   5.787 -0.3579 -0.3696 -0.6995
    5MOL   H816 4184   4.875   5.704   5.641 -2.0124 -1.1178  2.5029
    5MOL   H817 4185   5.126   5.668   5.822 -1.2406 -3.2443  1.0170
    5MOL   H818 4186   4.957   5.714   5.879  0.3305  3.8051 -0.1514
    5MOL   H819 4187   4.955   5.914   5.743 -0.3460 -1.8286  0.0663
    5MOL   H820 4188   5.118   5.886   5.684  1.6598 -1.0790  0.3692
    5MOL   H821 4189   5.063   5.901   5.980  1.4176 -1.9173  0.3860
    5MOL   H822 4190   5.212   5.878   5.898 -1.2885 -2.8048  0.1703
    5MOL   H823 4191   5.036   6.130   5.888  1.4075  1.6601  3.0306
    5MOL   H824 4192   5.184   6.109   5.789  1.8676 -0.4500  0.6558
    5MOL   H825 4193   5.203   6.113   6.092  0.6877  0.0793  0.6834
    5MOL   H826 4194   5.332   6.095   5.980  0.1687 -0.4121 -1.5037
    5MOL   H827 4195   5.302   6.307   5.892  1.3533 -1.3111 -0.5051
    5MOL   H828 4196   5.148   6.328   5.984 -0.9837 -3.1836  0.2413
    5MOL   H829 4197   5.234   6.341   6.194 -0.2409 -0.6210 -0.2191
    5MOL   H830 4198   5.391   6.268   6.148 -0.1981  0.3610 -0.3264
    5MOL   H831 4199   5.293   6.545   6.046 -1.6649 -1.8869 -0.3109
    5MOL   H832 4200   5.463   6.497   6.072  0.5771  0.0618 -0.4367
    5MOL   H833 4201   5.295   6.536   6.300  2.7961 -0.3300  2.3979
    5MOL   H834 4202   5.471   6.527   6.291 -0.5679  0.5699 -0.0381
    5MOL   H835 4203   5.290   6.750   6.198 -0.8395 -1.9760  1.1401
    5MOL   H836 4204   5.471   6.742   6.173  0.0226  0.0252  0.1184
    5MOL   H837 4205   5.515   6.769   6.410 -0.5656 -0.2865  0.0174
    5MOL   H838 4206   5.409   6.895   6.355  1.2734  0.2113  2.6767
    5MOL   H839 4207   5.211   6.744   6.461  0.4313 -1.9358  2.6791
    5MOL   H840 4208   5.341   6.656   6.534  0.8216  0.5834 -0.4645
    5MOL   H841 4209   5.326   6.819   6.573  1.7217  0.2248 -0.1332
    5MOL   H842 4210   5.034   5.644   5.599 -0.5217  0.8900  0.2150
    6MOL     C1 4211   1.517   3.510   6.709 -0.5111 -0.4313  0.0706
    6MOL     C2 4212   1.455   3.651   6.714  0.3712  0.0884 -0.5123
    6MOL     C3 4213   1.570   3.755   6.718  0.4509 -0.0447 -0.6735
    6MOL     C4 4214   1.663   3.750   6.838  0.2130  0.4676 -0.0102
    6MOL     C5 4215   1.603   3.786   6.975 -0.0106 -0.3499  0.4145
    6MOL     C6 4216   1.698   3.852   7.073  0.2463 -0.4765 -1.1143
    6MOL     C7 4217   1.626   3.946   7.172 -0.9249 -0.2774  0.4894
    6MOL     C8 4218   1.715   3.999   7.282 -0.1815 -0.7582  0.1759
    6MOL     C9 4219   1.645   4.076   7.392 -0.0517 -0.0483  0.0529
    6MOL    C10 4220   1.748   4.115   7.498  0.5444 -0.0937  0.8852
    6MOL    C11 4221   1.693   4.200   7.611 -0.6825  0.2937 -0.3317
    6MOL    C12 4222   1.791   4.213   0.038  0.1886 -0.5745  0.9570
    6MOL    C13 4223   1.752   4.337   0.129 -0.0099 -0.0707 -0.1482
    6MOL    C14 4224   1.828   4.342   0.258 -0.5026  0.0212  0.4053
    6MOL    H15 4225   1.580   3.483   6.793  0.6156  0.0935 -0.5894
    6MOL    H16 4226   1.583   3.493   6.624  0.7699 -0.5374  1.0661
    6MOL    H17 4227   1.392   3.664   6.802 -0.6205  0.7417 -1.3111
    6MOL    H18 4228   1.638   3.738   6.635  0.5967  0.3567 -0.6405
    6MOL    H19 4229   1.532   3.856   6.703  1.8438  0.3836 -1.4720
    6MOL    H20 4230   1.739   3.828   6.838  0.0152  0.6765 -1.3623
    6MOL    H21 4231   1.724   3.659   6.843  0.4720  0.5118 -1.8621
    6MOL    H22 4232   1.567   3.689   7.009  1.0572 -0.9793 -0.2439
    6MOL    H23 4233   1.518   3.853   6.960 -0.3335 -0.5255  1.4101
    6MOL    H24 4234   1.771   3.912   7.018  1.2521 -0.9192 -0.2874
    6MOL    H25 4235   1.760   3.773   7.115 -0.1066  0.4101  1.1339
    6MOL    H26 4236   1.594   4.032   7.115 -0.1402 -0.5952 -0.4450
    6MOL    H27 4237   1.532   3.909   7.212 -0.4686 -2.6805 -0.5763
    6MOL    H28 4238   1.787   4.062   7.231  0.3935 -1.0901  0.5809
    6MOL    H29 4239   1.782   3.927   7.328 -0.4543 -0.7359  0.6155
    6MOL    H30 4240   1.598   4.169   7.360  0.7753 -0.1250 -1.4238
    6MOL    H31 4241   1.573   4.014   7.446  0.8190  0.0507  1.3335
    6MOL    H32 4242   1.803   4.029   7.535 -1.4773 -0.7392  2.4253
    6MOL    H33 4243   1.818   4.180   7.445 -0.7136  0.7978  0.2675
    6MOL    H34 4244   1.665   4.294   7.565  1.7698  0.1055 -2.2964
    6MOL    H35 4245   1.600   4.157   7.649 -0.1773 -1.3830 -0.9218
    6MOL    H36 4246   1.891   4.219   7.691 -1.6237  0.1163 -3.4463
    6MOL    H37 4247   1.781   4.123   0.098 -0.8477 -0.1007  1.5133
    6MOL    H38 4248   1.776   4.432   0.081  0.3201 -0.2365 -0.3165
    6MOL    H39 4249   1.645   4.339   0.145 -0.1102  0.1217 -0.8331
    6MOL    H40 4250   1.815   4.250   0.315 -0.4742 -0.1292  0.1691
    6MOL    H41 4251   1.933   4.367   0.248  0.0795 -2.0684  1.0008
    6MOL    H42 4252   1.795   4.422   0.325 -2.8019 -0.2686 -0.3309
    6MOL    H43 4253   1.440   3.433   6.702 -0.4062 -0.7716  2.3199
    6MOL    C44 4254   1.363   3.689   6.601  0.3700  0.5255  1.0040
    6MOL    C45 4255   1.245   3.586   6.579  0.3476  0.1092  0.0973
    6MOL    C46 4256   1.192   3.598   6.433  0.2895 -0.1705 -0.2214
    6MOL    C47 4257   1.282   3.520   6.331 -0.1858 -0.2286  0.1532
    6MOL    C48 4258   1.202   3.517   6.199  0.1182 -0.7319 -0.4158
    6MOL    C49 4259   1.255   3.445   6.079 -0.2792 -0.3332 -0.6086
    6MOL    C50 4260   1.194   3.485   5.946  0.5569 -0.1004 -0.5458
    6MOL    C51 4261   1.280   3.437   5.820 -0.2744  0.0612 -0.6116
    6MOL    C52 4262   1.204   3.482   5.694 -0.2689 -0.2301 -0.0330
    6MOL    C53 4263   1.270   3.434   5.569 -0.0831 -0.4399  0.2786
    6MOL    C54 4264   1.196   3.461   5.438  0.3318 -0.4666 -0.1437
    6MOL    C55 4265   1.257   3.409   5.308 -0.5524 -0.0350 -0.2239
    6MOL    C56 4266   1.170   3.426   5.185  0.2464  0.2421 -0.1975
    6MOL    C57 4267   1.145   3.574   5.158 -0.1927 -0.0998 -0.5205
    6MOL    H58 4268   1.320   3.789   6.600  0.5351  0.6030 -0.7098
    6MOL    H59 4269   1.428   3.688   6.514  0.3856 -1.8961  0.9888
    6MOL    H60 4270   1.279   3.483   6.570  0.9544  0.3539 -0.4049
    6MOL    H61 4271   1.095   3.548   6.425 -0.0446  0.3265  0.6617
    6MOL    H62 4272   1.176   3.700   6.396 -1.2489 -0.0881  0.5971
    6MOL    H63 4273   1.308   3.420   6.366 -2.2819 -1.0360 -0.4712
    6MOL    H64 4274   1.379   3.567   6.321 -1.1087  1.4576 -0.9846
    6MOL    H65 4275   1.190   3.624   6.179  2.4608 -0.5978 -1.2799
    6MOL    H66 4276   1.099   3.482   6.212  0.1205 -0.7914 -0.5665
    6MOL    H67 4277   1.362   3.464   6.070 -0.0594 -1.6293 -0.7924
    6MOL    H68 4278   1.252   3.336   6.080  0.3825 -0.3501 -0.0375
    6MOL    H69 4279   1.093   3.444   5.941  0.2190  0.7456 -0.9106
    6MOL    H70 4280   1.184   3.594   5.951 -0.3303 -0.2180  0.2655
    6MOL    H71 4281   1.278   3.329   5.830 -2.5798  0.1154 -0.1600
    6MOL    H72 4282   1.382   3.476   5.818 -0.5603  0.7926 -4.1116
    6MOL    H73 4283   1.102   3.444   5.706 -0.3773  0.4571  1.3006
    6MOL    H74 4284   1.200   3.591   5.691  1.6147 -0.1320  0.3255
    6MOL    H75 4285   1.277   3.326   5.576 -0.5189 -0.6086 -1.6193
    6MOL    H76 4286   1.374   3.469   5.570  0.2998 -1.4750 -0.8799
    6MOL    H77 4287   1.168   3.566   5.434  0.6287 -0.3750  0.0964
    6MOL    H78 4288   1.105   3.401   5.449  0.9727 -1.3981  0.1888
    6MOL    H79 4289   1.356   3.454   5.292  0.0535 -1.2999 -0.0905
    6MOL    H80 4290   1.275   3.302   5.319 -0.4973 -0.0947 -0.8498
    6MOL    H81 4291   1.076   3.372   5.199  0.6782  0.3209  3.4608
    6MOL    H82 4292   1.220   3.388   5.096 -0.6266  0.7727 -0.9206
    6MOL    H83 4293   1.114   3.585   5.054  2.2707  1.7646 -1.0977
    6MOL    H84 4294   1.235   3.631   5.181 -1.0082  1.4014 -0.9703
    6MOL    H85 4295   1.062   3.614   5.217 -0.8799 -0.7710 -1.0283
    6MOL    C86 4296   1.138   3.589   6.693  0.1168 -0.3125  0.4871
    6MOL    C87 4297   1.021   3.488   6.688  0.6389  0.6178 -0.3589
    6MOL    C88 4298   0.878   3.553   6.693  0.2438 -0.3307 -0.5886
    6MOL    C89 4299   0.832   3.638   6.568 -0.2424  0.7235  0.2329
    6MOL    C90 4300   0.797   3.562   6.445  0.4211 -0.1949 -0.6263
    6MOL    C91 4301   0.799   3.640   6.313  0.1197  0.1856  0.1755
    6MOL    C92 4302   0.782   3.553   6.189 -0.2498  0.4366  0.0860
    6MOL    C93 4303   0.819   3.618   6.056  0.4267  0.2734  0.1329
    6MOL    C94 4304   0.789   3.540   5.935 -0.0399  0.2989 -0.0035
    6MOL    C95 4305   0.808   3.614   5.798 -0.2474 -0.3429  0.3619
    6MOL    C96 4306   0.769   3.521   5.686 -0.3070  0.1525  0.1005
    6MOL    C97 4307   0.787   3.587   5.542  0.1008 -0.0773 -0.1565
    6MOL    C98 4308   0.693   3.522   5.433 -0.2818 -0.1794 -0.2886
    6MOL    C99 4309   0.768   3.537   5.297  1.0010  0.3761  0.5120
    6MOL   H100 4310   1.189   3.574   6.788 -1.7744 -2.9966  1.1607
    6MOL   H101 4311   1.092   3.685   6.712 -1.6066 -0.9165 -0.4927
    6MOL   H102 4312   1.019   3.430   6.596 -3.0792 -0.8022  0.5088
    6MOL   H103 4313   0.803   3.474   6.700 -1.1253  1.0462  0.6667
    6MOL   H104 4314   0.878   3.617   6.782  0.6186  1.0616 -1.5838
    6MOL   H105 4315   0.741   3.683   6.607 -0.8041 -1.3558  1.3506
    6MOL   H106 4316   0.896   3.724   6.547 -1.9890  1.9574 -0.1498
    6MOL   H107 4317   0.708   3.504   6.471  1.3549 -0.1370  2.8936
    6MOL   H108 4318   0.872   3.486   6.425  0.6438 -0.5190  1.3424
    6MOL   H109 4319   0.890   3.700   6.310 -1.0865  2.0214 -0.1861
    6MOL   H110 4320   0.714   3.707   6.302  0.7914  0.8842 -0.9185
    6MOL   H111 4321   0.830   3.457   6.211 -2.3699 -0.7056 -0.1142
    6MOL   H112 4322   0.681   3.515   6.175  0.4051 -0.5039 -2.3310
    6MOL   H113 4323   0.927   3.630   6.057  0.2603  1.7924  0.5375
    6MOL   H114 4324   0.771   3.715   6.046  2.1102  1.3111  1.9318
    6MOL   H115 4325   0.833   3.441   5.937 -1.2461 -0.2231  1.1843
    6MOL   H116 4326   0.688   3.503   5.947 -0.3614  1.4126  0.8579
    6MOL   H117 4327   0.910   3.645   5.776 -1.3922  2.7088 -0.9615
    6MOL   H118 4328   0.738   3.698   5.803 -2.0280 -1.6293 -1.7882
    6MOL   H119 4329   0.819   3.425   5.700  2.7485  1.7911  0.6940
    6MOL   H120 4330   0.665   3.491   5.700 -0.4247  0.4447 -0.1573
    6MOL   H121 4331   0.775   3.695   5.544  1.2094  0.0499 -0.0455
    6MOL   H122 4332   0.884   3.549   5.510 -0.7518 -1.0723 -1.6238
    6MOL   H123 4333   0.604   3.584   5.426 -1.9144 -2.3323  0.6602
    6MOL   H124 4334   0.674   3.415   5.444  0.3074  0.0405  3.3132
    6MOL   H125 4335   0.795   3.640   5.276 -2.8041  1.2178 -0.6939
    6MOL   H126 4336   0.853   3.469   5.301 -1.1236 -2.4524 -0.7228
    6MOL   H127 4337   0.706   3.503   5.214 -0.9630  1.6557  1.4155
    6MOL   C128 4338   1.035   3.371   6.793  0.4754  0.1162  0.1534
    6MOL   C129 4339   1.136   3.261   6.763  0.4781 -0.6996 -0.3846
    6MOL   C130 4340   1.157   3.171   6.881  0.0256  0.7087  0.2811
    6MOL   C131 4341   1.243   3.220   6.994  0.0320  0.1688  0.7711
    6MOL   C132 4342   1.397   3.183   6.966 -0.2774 -0.8001  0.5344
    6MOL   C133 4343   1.483   3.194   7.098  0.4174 -0.1601  0.2000
    6MOL   C134 4344   1.633   3.166   7.065  0.2339  0.0960 -0.4858
    6MOL   C135 4345   1.716   3.122   7.187  0.3292  0.0270 -0.5103
    6MOL   C136 4346   1.859   3.095   7.146  0.1937 -0.1640  0.6924
    6MOL   C137 4347   1.957   3.038   7.244  0.1576  0.8751  0.4197
    6MOL   C138 4348   2.098   3.044   7.188  0.4469  0.0059 -0.1906
    6MOL   C139 4349   2.205   2.996   7.292 -0.1257 -0.5391 -0.1477
    6MOL   C140 4350   2.349   3.006   7.227 -0.3257  0.4703  0.4128
    6MOL   C141 4351   2.468   2.946   7.296  0.3585 -0.5529  0.5860
    6MOL   H142 4352   1.083   3.415   6.880 -0.5278  1.6531 -0.0455
    6MOL   H143 4353   0.937   3.334   6.822 -0.6688  1.3808 -1.9432
    6MOL   H144 4354   1.222   3.324   6.741  0.6655  0.1991  2.6208
    6MOL   H145 4355   1.064   3.130   6.920  1.2406 -1.1569  1.3388
    6MOL   H146 4356   1.204   3.075   6.857 -2.3301 -1.1620  2.8001
    6MOL   H147 4357   1.242   3.329   6.996 -1.1236  0.2404 -1.8711
    6MOL   H148 4358   1.209   3.176   7.088 -0.8894  0.8087  0.7426
    6MOL   H149 4359   1.410   3.086   6.919 -3.1106 -0.2546 -1.5251
    6MOL   H150 4360   1.424   3.257   6.891  0.7796 -1.1016  0.6182
    6MOL   H151 4361   1.478   3.295   7.138  1.1175  0.4593 -1.2212
    6MOL   H152 4362   1.443   3.124   7.171  0.1373  0.6170  0.7906
    6MOL   H153 4363   1.635   3.085   6.992  0.2865  1.3398 -1.8752
    6MOL   H154 4364   1.684   3.245   7.010  1.1402 -1.0942 -1.4051
    6MOL   H155 4365   1.719   3.197   7.266  1.0556  0.3513 -0.8357
    6MOL   H156 4366   1.679   3.031   7.233  1.5672 -0.4884 -0.5089
    6MOL   H157 4367   1.869   3.050   7.047  1.3675 -0.6244  1.0241
    6MOL   H158 4368   1.893   3.195   7.117  0.3432  0.0552  1.6133
    6MOL   H159 4369   1.931   2.934   7.261  0.4219  0.6899 -0.3024
    6MOL   H160 4370   1.949   3.090   7.339 -0.8013  0.7477  0.4201
    6MOL   H161 4371   2.107   2.972   7.107 -1.9545  0.3736 -0.8324
    6MOL   H162 4372   2.123   3.141   7.146 -2.3472  0.1777 -1.5312
    6MOL   H163 4373   2.204   3.048   7.388  0.0230 -2.1082  0.7132
    6MOL   H164 4374   2.202   2.893   7.327  0.0615 -0.8984 -1.1775
    6MOL   H165 4375   2.326   2.951   7.135  2.3920 -0.4526  0.2311
    6MOL   H166 4376   2.369   3.109   7.196  0.0670  0.6329  1.1954
    6MOL   H167 4377   2.554   2.987   7.243  0.6439 -2.3786 -0.4092
    6MOL   H168 4378   2.464   2.981   7.399  1.1283  0.1005  0.3967
    6MOL   H169 4379   2.481   2.838   7.286 -1.3865 -0.7023 -0.0893
    6MOL   C170 4380   1.105   3.184   6.642 -0.2936 -0.1599  0.4534
    6MOL   C171 4381   1.211   3.099   6.561 -0.9894 -0.4158  0.0407
    6MOL   C172 4382   1.167   3.016   6.440  0.2945  0.1132 -0.3507
    6MOL   C173 4383   1.125   3.098   6.318 -0.0988 -0.4341 -0.0340
    6MOL   C174 4384   1.066   3.007   6.196  0.3589  0.5571  0.2433
    6MOL   C175 4385   1.007   3.087   6.081 -0.6735  0.1581 -0.2121
    6MOL   C176 4386   0.949   3.010   5.964 -0.9751 -0.1640  0.7003
    6MOL   C177 4387   0.797   2.979   5.984 -0.1283 -0.0680  0.3780
    6MOL   C178 4388   0.711   3.104   5.961 -0.3149  0.6906 -0.0400
    6MOL   C179 4389   0.563   3.063   5.942 -0.1985 -0.7930 -0.2167
    6MOL   C180 4390   0.456   3.173   5.958 -0.2917 -0.0999  0.0291
    6MOL   C181 4391   0.313   3.124   5.930  0.2594  0.8253  0.7966
    6MOL   C182 4392   0.218   3.245   5.958 -0.2888  0.0080 -0.8732
    6MOL   C183 4393   0.080   3.233   5.889  0.4350 -0.5065 -0.0894
    6MOL   H184 4394   1.049   3.242   6.568  3.1371  1.3118 -1.0968
    6MOL   H185 4395   1.035   3.106   6.670  0.6249 -0.7327  1.2031
    6MOL   H186 4396   1.228   3.026   6.641  0.2132 -0.4668 -0.2469
    6MOL   H187 4397   1.237   2.940   6.405 -1.1197 -0.5552 -1.8022
    6MOL   H188 4398   1.082   2.959   6.475  0.8901 -0.6699 -0.1735
    6MOL   H189 4399   1.056   3.177   6.346  1.3052  0.5641  0.7026
    6MOL   H190 4400   1.216   3.145   6.281 -0.9880 -0.0591 -1.7801
    6MOL   H191 4401   1.155   2.961   6.153  1.0220  1.8451  0.1883
    6MOL   H192 4402   0.988   2.945   6.238 -1.0362  0.6801 -2.0910
    6MOL   H193 4403   1.091   3.146   6.043  0.9266 -1.3255  0.9721
    6MOL   H194 4404   0.936   3.164   6.112  0.0282  0.7143  0.0267
    6MOL   H195 4405   1.001   2.917   5.942 -2.7381 -0.6282 -1.7438
    6MOL   H196 4406   0.968   3.064   5.871  2.4137 -0.9372  0.8892
    6MOL   H197 4407   0.779   2.930   6.079 -1.8004  0.4657  0.3436
    6MOL   H198 4408   0.769   2.905   5.910  2.2721 -2.8269  2.1194
    6MOL   H199 4409   0.756   3.172   5.889  1.3899 -0.8413 -0.4600
    6MOL   H200 4410   0.715   3.160   6.054  0.2510 -0.5228  0.6812
    6MOL   H201 4411   0.537   2.977   6.004  0.6575 -0.8571  0.0535
    6MOL   H202 4412   0.564   3.019   5.842 -0.4163 -0.3062 -0.4314
    6MOL   H203 4413   0.481   3.243   5.877 -0.9961  0.4687  0.3043
    6MOL   H204 4414   0.464   3.224   6.054 -0.7733  0.1357 -0.0544
    6MOL   H205 4415   0.294   3.094   5.827  0.3731 -0.1660  1.0568
    6MOL   H206 4416   0.285   3.035   5.985 -0.6698  0.5526 -0.1116
    6MOL   H207 4417   0.205   3.254   6.066  2.0445 -1.2995 -0.4496
    6MOL   H208 4418   0.263   3.339   5.927 -0.5598  0.1117 -0.9501
    6MOL   H209 4419   0.019   3.312   5.932  3.1310  2.1610 -1.0197
    6MOL   H210 4420   0.027   3.143   5.920 -3.4421  1.9166  0.6691
    6MOL   H211 4421   0.080   3.249   5.782  3.5271  1.6785  0.1776
    6MOL   C212 4422   1.347   3.172   6.550 -0.5831 -0.1813  0.1280
    6MOL   C213 4423   1.470   3.085   6.509  0.4469 -0.5860  0.0325
    6MOL   C214 4424   1.586   3.177   6.457 -0.4070 -0.5470 -0.0770
    6MOL   C215 4425   1.556   3.275   6.341  0.5869  0.5857 -0.0900
    6MOL   C216 4426   1.666   3.256   6.225  0.3991  0.3094  0.6274
    6MOL   C217 4427   1.621   3.325   6.093  0.1070  0.1620 -0.2817
    6MOL   C218 4428   1.723   3.335   5.979 -0.0579  0.6008  0.0572
    6MOL   C219 4429   1.662   3.398   5.854  0.2380  0.7450 -0.1536
    6MOL   C220 4430   1.769   3.417   5.747 -0.7636 -0.1760 -0.2400
    6MOL   C221 4431   1.715   3.456   5.613  0.7399 -0.4680  0.4225
    6MOL   C222 4432   1.794   3.573   5.551 -0.3313 -0.4759 -0.4711
    6MOL   C223 4433   1.775   3.593   5.400 -0.5223  0.6213 -0.2610
    6MOL   C224 4434   1.844   3.720   5.344  0.0605 -0.3248  0.1352
    6MOL   C225 4435   1.990   3.715   5.343 -0.4740  0.5067  0.1985
    6MOL   H226 4436   1.370   3.232   6.639 -1.8062  0.4516  0.0330
    6MOL   H227 4437   1.325   3.237   6.466  0.3113 -1.4360 -1.0905
    6MOL   H228 4438   1.443   3.025   6.423  1.8188 -0.1474 -0.7153
    6MOL   H229 4439   1.632   3.229   6.542  1.8929 -0.3037 -1.4383
    6MOL   H230 4440   1.670   3.114   6.431  1.9927  1.6208  2.0368
    6MOL   H231 4441   1.554   3.374   6.388 -1.4421  1.2424 -1.5076
    6MOL   H232 4442   1.458   3.258   6.298  0.5471 -1.4685  0.7449
    6MOL   H233 4443   1.680   3.149   6.207  1.2972  0.7295 -1.2632
    6MOL   H234 4444   1.760   3.304   6.250  0.9286  0.1054 -0.9705
    6MOL   H235 4445   1.597   3.427   6.124 -0.3107 -0.2409  0.7509
    6MOL   H236 4446   1.527   3.286   6.055  1.4970 -4.2336  0.5630
    6MOL   H237 4447   1.805   3.397   6.016  0.8621 -1.1871  1.1017
    6MOL   H238 4448   1.766   3.239   5.952 -2.5694 -0.1496 -1.4157
    6MOL   H239 4449   1.572   3.345   5.822 -0.6474  1.2195  1.5047
    6MOL   H240 4450   1.618   3.490   5.892 -0.0252  0.9802 -1.0207
    6MOL   H241 4451   1.819   3.324   5.723  1.2533  0.7634  0.1565
    6MOL   H242 4452   1.848   3.488   5.776  0.5716 -1.8017  0.1688
    6MOL   H243 4453   1.729   3.369   5.549  3.3064 -0.9054  1.5256
    6MOL   H244 4454   1.607   3.470   5.620  0.5917  0.1545 -2.6292
    6MOL   H245 4455   1.900   3.566   5.574 -0.4958  0.4624  0.6278
    6MOL   H246 4456   1.761   3.666   5.598  1.3540  0.7357 -1.6154
    6MOL   H247 4457   1.669   3.594   5.376 -0.8594  2.3895  1.1885
    6MOL   H248 4458   1.806   3.502   5.348 -0.3683 -1.0211  2.5989
    6MOL   H249 4459   1.809   3.808   5.398 -0.1182  0.4501 -1.2228
    6MOL   H250 4460   1.809   3.747   5.244  2.0167 -0.4231 -0.6016
    6MOL   H251 4461   2.020   3.623   5.293 -0.1619  0.6015  0.2140
    6MOL   H252 4462   2.007   3.804   5.284 -2.5072  0.7392 -0.0892
    6MOL   H253 4463   2.030   3.715   5.444 -0.3096 -0.9141  0.1426
    6MOL   C254 4464   1.520   2.990   6.627  0.5112  0.2785  0.0829
    6MOL   C255 4465   1.617   2.877   6.588 -0.3037 -0.4709 -0.1854
    6MOL   C256 4466   1.752   2.901   6.654  0.3796  0.0512  0.2283
    6MOL   C257 4467   1.863   2.794   6.632  0.2509 -0.0469  0.5444
    6MOL   C258 4468   2.000   2.870   6.651 -0.7826  0.1070 -0.3368
    6MOL   C259 4469   2.113   2.768   6.635 -0.3765  0.3134 -0.3594
    6MOL   C260 4470   2.259   2.823   6.668 -0.2378 -0.1733  0.1101
    6MOL   C261 4471   2.371   2.740   6.595  0.7518  0.0556  0.0924
    6MOL   C262 4472   2.510   2.789   6.630 -0.4622 -0.2124 -0.1484
    6MOL   C263 4473   2.621   2.723   6.550 -0.2101 -0.6755  0.5362
    6MOL   C264 4474   2.760   2.762   6.594 -0.0815 -0.4891  0.1875
    6MOL   C265 4475   2.863   2.685   6.514  0.6206  0.9301  0.5826
    6MOL   C266 4476   3.011   2.736   6.532 -0.5153  0.0979 -0.8581
    6MOL   C267 4477   3.110   2.631   6.492 -0.8703  0.1401  0.3767
    6MOL   H268 4478   1.428   2.946   6.664 -1.0479  1.2363 -2.4702
    6MOL   H269 4479   1.550   3.042   6.718  1.7548 -1.0766  0.4522
    6MOL   H270 4480   1.641   2.870   6.482  1.8749 -1.8837  0.3614
    6MOL   H271 4481   1.734   2.910   6.761 -0.2696  2.4737 -0.0638
    6MOL   H272 4482   1.784   2.999   6.620  0.7055  0.4952  1.8174
    6MOL   H273 4483   1.847   2.751   6.533 -0.3758  2.3146 -0.4072
    6MOL   H274 4484   1.850   2.715   6.707 -0.3670 -0.9616 -0.5178
    6MOL   H275 4485   2.001   2.917   6.749 -2.4541  1.3162 -0.8630
    6MOL   H276 4486   2.014   2.953   6.581  2.3392 -1.6702 -1.9620
    6MOL   H277 4487   2.130   2.743   6.530  1.9846 -0.5717  0.1969
    6MOL   H278 4488   2.092   2.675   6.687  0.2366 -0.4237 -1.3915
    6MOL   H279 4489   2.265   2.921   6.622  0.5657 -0.4445 -0.3704
    6MOL   H280 4490   2.281   2.840   6.774 -0.5097  0.0529  0.1315
    6MOL   H281 4491   2.354   2.733   6.488  3.5235 -2.5800 -0.2648
    6MOL   H282 4492   2.367   2.639   6.639  0.2591 -0.8563 -2.0000
    6MOL   H283 4493   2.501   2.898   6.629 -0.6481 -0.2346 -0.6021
    6MOL   H284 4494   2.526   2.771   6.737 -1.0135 -0.5865 -0.1332
    6MOL   H285 4495   2.600   2.739   6.444 -0.7350 -3.2199  0.2296
    6MOL   H286 4496   2.607   2.617   6.568 -0.7145 -0.7121 -0.0738
    6MOL   H287 4497   2.783   2.743   6.699 -1.2773  0.5786  0.6619
    6MOL   H288 4498   2.779   2.867   6.569 -2.5516  0.4548  2.0136
    6MOL   H289 4499   2.847   2.595   6.574 -0.5659  1.7125  1.4737
    6MOL   H290 4500   2.845   2.668   6.408 -1.5784  2.9392  0.5808
    6MOL   H291 4501   3.041   2.821   6.470  3.4560 -0.1236  0.5828
    6MOL   H292 4502   3.041   2.771   6.631 -1.3410 -2.3750  0.3127
    6MOL   H293 4503   3.131   2.551   6.564  0.4812  0.5679  0.4651
    6MOL   H294 4504   3.211   2.668   6.475 -1.3350  0.0354 -2.9219
    6MOL   H295 4505   3.089   2.588   6.394  2.1777  0.7071 -0.5851
    6MOL   C296 4506   1.559   2.737   6.619 -0.3385  0.1011  0.7740
    6MOL   C297 4507   1.443   2.680   6.536 -0.0195  1.0106  0.0017
    6MOL   C298 4508   1.466   2.681   6.385 -0.7496  0.1558 -0.5672
    6MOL   C299 4509   1.589   2.608   6.334  0.0289 -0.3230 -0.2579
    6MOL   C300 4510   1.565   2.594   6.183  0.2053 -0.2435 -0.0388
    6MOL   C301 4511   1.691   2.563   6.102  0.3987 -0.3328  0.0780
    6MOL   C302 4512   1.718   2.416   6.073  0.4509  0.0665  0.0577
    6MOL   C303 4513   1.850   2.400   5.997  0.0307  0.4501  0.1511
    6MOL   C304 4514   1.888   2.255   5.966 -0.3135 -0.6407  0.7110
    6MOL   C305 4515   2.014   2.251   5.875 -0.2682  0.0631  0.5438
    6MOL   C306 4516   2.072   2.110   5.858  0.3634 -0.0121  0.3333
    6MOL   C307 4517   2.221   2.102   5.796  0.3248 -0.0752 -0.3484
    6MOL   C308 4518   2.258   1.960   5.797  0.5535  0.1312 -0.6380
    6MOL   C309 4519   2.400   1.927   5.754 -0.7225  0.6572  0.0308
    6MOL   H310 4520   1.531   2.732   6.724 -0.0509  0.4285  0.8675
    6MOL   H311 4521   1.649   2.676   6.607  0.8543  1.7352  1.1702
    6MOL   H312 4522   1.354   2.741   6.555 -0.0602  0.6065  1.1012
    6MOL   H313 4523   1.479   2.787   6.362 -1.2122  0.4432  0.4682
    6MOL   H314 4524   1.377   2.647   6.332 -0.8369  0.0013 -0.3245
    6MOL   H315 4525   1.593   2.505   6.370 -0.8255 -0.2074  0.1788
    6MOL   H316 4526   1.681   2.658   6.363 -0.7315  0.1611  1.3250
    6MOL   H317 4527   1.481   2.528   6.158  0.3556 -0.5991  0.4003
    6MOL   H318 4528   1.526   2.687   6.143  2.0461  0.8763  0.7525
    6MOL   H319 4529   1.778   2.607   6.150  0.6092  0.2475 -0.8370
    6MOL   H320 4530   1.686   2.616   6.007  2.2649 -0.7613 -0.2768
    6MOL   H321 4531   1.721   2.359   6.166 -5.2546 -0.1549  0.2590
    6MOL   H322 4532   1.638   2.360   6.025 -1.5043  1.1724  1.9730
    6MOL   H323 4533   1.937   2.442   6.046  1.3848 -0.1905 -1.6292
    6MOL   H324 4534   1.844   2.460   5.906  1.0226  0.7715  0.2988
    6MOL   H325 4535   1.910   2.211   6.063 -2.0054 -1.8974  0.5377
    6MOL   H326 4536   1.808   2.191   5.929 -0.7339  0.1377  0.2519
    6MOL   H327 4537   2.089   2.316   5.920  0.2270  0.7399 -1.2182
    6MOL   H328 4538   1.992   2.285   5.774 -0.5103  0.3207  0.6831
    6MOL   H329 4539   2.000   2.044   5.810  1.1188 -0.5854 -0.0084
    6MOL   H330 4540   2.076   2.061   5.954  0.0142  0.1589  0.4365
    6MOL   H331 4541   2.294   2.141   5.866 -1.3659  1.6199  0.5399
    6MOL   H332 4542   2.206   2.153   5.700  0.2676 -0.6840 -0.6636
    6MOL   H333 4543   2.196   1.896   5.734  2.7857 -1.5475 -1.1891
    6MOL   H334 4544   2.247   1.929   5.900  0.2149  0.9175 -0.4385
    6MOL   H335 4545   2.441   1.835   5.797  2.5801  2.5648  1.1016
    6MOL   H336 4546   2.428   1.938   5.649 -1.7991  1.4946 -0.1699
    6MOL   H337 4547   2.473   1.995   5.796  0.4434 -0.8535  0.5097
    6MOL   C338 4548   1.414   2.538   6.587 -0.1095 -0.8624  0.5424
    6MOL   C339 4549   1.270   2.519   6.641 -0.1119 -0.5673 -0.1884
    6MOL   C340 4550   1.230   2.373   6.632 -0.2772  1.0175  0.4256
    6MOL   C341 4551   1.218   2.311   6.489  0.2117  0.2325 -0.1256
    6MOL   C342 4552   1.140   2.183   6.476  0.0853 -0.1618 -0.3290
    6MOL   C343 4553   1.194   2.056   6.546  0.6747 -0.4409  0.5258
    6MOL   C344 4554   1.126   1.927   6.487  0.5269  0.5163  0.2271
    6MOL   C345 4555   1.159   1.798   6.566 -0.0180  0.0595  0.6742
    6MOL   C346 4556   1.074   1.683   6.514 -0.1430  0.0715 -0.0513
    6MOL   C347 4557   1.095   1.547   6.593  0.2945  0.3220  0.6044
    6MOL   C348 4558   1.000   1.434   6.544  0.2672 -0.2642 -0.0452
    6MOL   C349 4559   0.847   1.439   6.595 -0.0654 -0.2259  0.1497
    6MOL   C350 4560   0.738   1.393   6.503  0.3093 -0.1847 -0.1268
    6MOL   C351 4561   0.750   1.247   6.472  0.2620 -0.2506  0.0187
    6MOL   H352 4562   1.426   2.462   6.510  0.4405 -0.9447  0.7088
    6MOL   H353 4563   1.483   2.498   6.661  0.3842  0.4644  0.8174
    6MOL   H354 4564   1.200   2.582   6.587 -1.3446 -0.1059  1.8674
    6MOL   H355 4565   1.302   2.315   6.690  0.6962  1.2866 -0.4935
    6MOL   H356 4566   1.136   2.351   6.682  0.9134  0.8303  2.6609
    6MOL   H357 4567   1.318   2.298   6.448  0.8935  0.1402  1.5066
    6MOL   H358 4568   1.168   2.385   6.426 -0.7162 -0.4547 -0.2055
    6MOL   H359 4569   1.154   2.153   6.372 -1.0663  0.8962 -0.8080
    6MOL   H360 4570   1.032   2.189   6.484  0.0540 -0.2262 -0.6749
    6MOL   H361 4571   1.300   2.048   6.524  0.2836 -0.6210 -1.3637
    6MOL   H362 4572   1.174   2.072   6.652 -0.1075  0.3492  0.2666
    6MOL   H363 4573   1.020   1.942   6.468  0.6722  2.9591  1.2670
    6MOL   H364 4574   1.154   1.919   6.382 -0.4764 -2.3846  0.1396
    6MOL   H365 4575   1.264   1.769   6.557  0.2730  1.2915 -0.0288
    6MOL   H366 4576   1.139   1.816   6.672 -0.3463 -1.3011  0.8575
    6MOL   H367 4577   0.970   1.715   6.521 -0.5950 -1.2360 -0.6124
    6MOL   H368 4578   1.089   1.665   6.408 -0.1249  1.8032 -0.3579
    6MOL   H369 4579   1.200   1.520   6.601  0.4412  0.7202  0.0784
    6MOL   H370 4580   1.071   1.561   6.698 -1.8226 -0.6780  0.2732
    6MOL   H371 4581   1.037   1.335   6.569  0.7704  0.4579  2.1507
    6MOL   H372 4582   1.013   1.423   6.436 -0.2909  0.0353 -0.1454
    6MOL   H373 4583   0.807   1.537   6.618 -0.5443  0.1199 -2.0846
    6MOL   H374 4584   0.836   1.388   6.691 -1.3253 -0.6065 -0.1835
    6MOL   H375 4585   0.641   1.404   6.552 -0.2527 -1.9054 -0.7996
    6MOL   H376 4586   0.729   1.462   6.418 -1.4230  0.2517  0.3861
    6MOL   H377 4587   0.814   1.233   6.386 -0.2426 -2.2134 -0.0835
    6MOL   H378 4588   0.784   1.179   6.551 -1.5503 -0.8169  0.3349
    6MOL   H379 4589   0.656   1.196   6.452  2.0830 -3.2139 -1.4033
    6MOL   C380 4590   1.271   2.561   6.788 -0.2372 -0.0837 -0.2091
    6MOL   C381 4591   1.129   2.571   6.854  0.3691  0.1084  0.4556
    6MOL   C382 4592   1.130   2.593   7.007  0.3397 -0.0941  0.3258
    6MOL   C383 4593   1.190   2.720   7.063  0.0831  0.5633 -0.3326
    6MOL   C384 4594   1.229   2.712   7.212  0.2909  0.0101 -0.9558
    6MOL   C385 4595   1.301   2.837   7.262  0.8237  0.7716 -0.5300
    6MOL   C386 4596   1.388   2.815   7.395 -0.0655  0.4043  0.2229
    6MOL   C387 4597   1.456   2.944   7.451 -0.2030  0.0058  0.2477
    6MOL   C388 4598   1.465   2.960   7.603 -0.9344  1.1186 -0.1296
    6MOL   C389 4599   1.538   3.095   7.634 -0.1917 -0.1323  0.6651
    6MOL   C390 4600   1.570   3.116   0.085  0.3343 -0.2131 -0.1691
    6MOL   C391 4601   1.446   3.152   0.173 -0.4317  0.0549 -0.9427
    6MOL   C392 4602   1.376   3.286   0.137  0.5702  0.2278  0.4436
    6MOL   C393 4603   1.459   3.408   0.166 -0.5722 -0.0967  0.0901
    6MOL   H394 4604   1.323   2.656   6.790 -1.7218  0.7420  1.4893
    6MOL   H395 4605   1.335   2.494   6.845  0.7489  0.6874 -0.3990
    6MOL   H396 4606   1.082   2.475   6.831  2.6026 -1.1497  1.0580
    6MOL   H397 4607   1.191   2.511   7.046 -0.4505  0.3088  2.4890
    6MOL   H398 4608   1.032   2.576   7.052  0.1543  0.0342 -0.0315
    6MOL   H399 4609   1.136   2.811   7.037  1.8461  2.2792  1.7720
    6MOL   H400 4610   1.287   2.719   7.013  0.9100 -0.5835  1.2575
    6MOL   H401 4611   1.289   2.621   7.221 -0.7432 -0.5215  1.0310
    6MOL   H402 4612   1.148   2.690   7.282  1.3145  0.7427  0.4889
    6MOL   H403 4613   1.232   2.921   7.278  0.7138  0.0765  3.1864
    6MOL   H404 4614   1.372   2.880   7.192  0.8865  1.3190 -0.1375
    6MOL   H405 4615   1.317   2.777   7.469  1.7563 -1.0255  1.3110
    6MOL   H406 4616   1.452   2.726   7.398 -1.0998 -0.3846 -0.5648
    6MOL   H407 4617   1.546   2.949   7.389 -0.5292 -0.8378 -0.2920
    6MOL   H408 4618   1.388   3.026   7.428  1.3039  1.1460 -0.2891
    6MOL   H409 4619   1.365   2.951   7.645 -1.3012 -2.0000 -1.5149
    6MOL   H410 4620   1.524   2.882   7.653 -1.1404  1.1672  0.1919
    6MOL   H411 4621   1.474   3.177   7.601  0.1262 -0.3685 -0.5796
    6MOL   H412 4622   1.625   3.094   7.568 -0.4614 -0.1925  0.3092
    6MOL   H413 4623   1.618   3.027   0.125 -2.0883 -1.9229 -0.9956
    6MOL   H414 4624   1.645   3.194   0.102 -0.3239  1.1706 -3.3109
    6MOL   H415 4625   1.476   3.154   0.278  0.3779 -1.6617 -1.1329
    6MOL   H416 4626   1.378   3.067   0.174 -0.5774  0.1611  0.8775
    6MOL   H417 4627   1.333   3.287   0.037  2.7501 -1.2868 -0.5474
    6MOL   H418 4628   1.285   3.291   0.196  0.7551 -2.3772  1.0347
    6MOL   H419 4629   1.542   3.415   0.096  0.5169  2.9629  1.5817
    6MOL   H420 4630   1.498   3.406   0.268 -0.9791 -1.5444  0.2343
    6MOL   H421 4631   1.405   3.502   0.175  1.6114  1.1324  0.8499
    6MOL   C422 4632   1.039   2.687   6.795 -0.8644  0.4537  0.2780
    6MOL   C423 4633   0.891   2.688   6.838 -0.3947 -0.5456 -0.3837
    6MOL   C424 4634   0.832   2.827   6.806 -0.1018 -0.3387  0.1094
    6MOL   C425 4635   0.824   2.877   6.656  0.2214  0.2692 -0.2324
    6MOL   C426 4636   0.755   3.015   6.631  0.5550  0.0400 -0.6202
    6MOL   C427 4637   0.779   3.070   6.486 -0.4945 -0.0503 -0.4680
    6MOL   C428 4638   0.690   3.184   6.437 -0.2460  0.8664  0.0045
    6MOL   C429 4639   0.567   3.142   6.351 -0.1962 -0.2689  0.1142
    6MOL   C430 4640   0.473   3.041   6.425  0.0616  0.3921  0.3654
    6MOL   C431 4641   0.338   3.009   6.346  0.6099  0.0214 -0.1721
    6MOL   C432 4642   0.236   2.928   6.424 -0.6171 -0.2451 -0.3551
    6MOL   C433 4643   0.271   2.798   6.496  0.0444  0.3123 -0.1563
    6MOL   C434 4644   0.148   2.718   6.522  0.5482  0.2813 -0.3958
    6MOL   C435 4645   0.175   2.577   6.582  0.1681  0.7720  1.1176
    6MOL   H436 4646   1.045   2.691   6.686  1.2409 -2.1150  0.2457
    6MOL   H437 4647   1.089   2.781   6.813 -1.5560  1.2274 -1.6839
    6MOL   H438 4648   0.884   2.684   6.947 -0.8304  2.2141 -0.2618
    6MOL   H439 4649   0.871   2.907   6.869 -0.6676 -1.8953  2.4884
    6MOL   H440 4650   0.727   2.814   6.833  0.2308 -1.1719  1.0224
    6MOL   H441 4651   0.928   2.899   6.631  0.2706  1.1336  0.6697
    6MOL   H442 4652   0.788   2.806   6.582  3.8780 -1.0240 -0.8876
    6MOL   H443 4653   0.801   3.092   6.693  0.7963 -0.2081 -0.4877
    6MOL   H444 4654   0.652   2.987   6.653  0.2937 -0.5464 -2.4494
    6MOL   H445 4655   0.774   2.981   6.422  0.4443 -1.0905  0.8786
    6MOL   H446 4656   0.884   3.098   6.475 -0.1637 -1.8064 -2.1377
    6MOL   H447 4657   0.660   3.251   6.517 -2.5550 -0.2536  0.1143
    6MOL   H448 4658   0.754   3.248   6.377 -1.3576  0.7889 -1.2970
    6MOL   H449 4659   0.513   3.230   6.315  0.8515  0.2811 -0.1264
    6MOL   H450 4660   0.611   3.087   6.267  0.1978  0.1581  0.0385
    6MOL   H451 4661   0.519   2.945   6.446 -1.4705 -0.3028  0.6065
    6MOL   H452 4662   0.454   3.089   6.521  2.3045 -1.0385  1.5543
    6MOL   H453 4663   0.296   3.107   6.322  3.3022  1.4086  0.6136
    6MOL   H454 4664   0.362   2.965   6.250 -0.6136  3.3420 -2.0978
    6MOL   H455 4665   0.211   3.003   6.499  0.9435 -0.0717  0.0052
    6MOL   H456 4666   0.154   2.920   6.352 -1.0656  1.9393 -0.1410
    6MOL   H457 4667   0.321   2.824   6.589 -1.4936 -1.1177  1.1175
    6MOL   H458 4668   0.346   2.732   6.453 -0.9439  0.3673 -2.0074
    6MOL   H459 4669   0.092   2.769   6.600 -0.5106 -3.5053  1.4481
    6MOL   H460 4670   0.078   2.699   6.441 -0.5583  0.1050  0.6004
    6MOL   H461 4671   0.234   2.519   6.511  1.4654  2.3596  0.8851
    6MOL   H462 4672   0.082   2.526   6.607 -0.3987  1.0681 -0.3658
    6MOL   H463 4673   0.235   2.603   6.670  0.8178  0.5439  0.7431
    6MOL   C464 4674   0.817   2.564   6.767 -0.0831  0.0592 -0.2719
    6MOL   C465 4675   0.792   2.444   6.861 -0.0405  0.1693  0.3863
    6MOL   C466 4676   0.647   2.437   6.917  0.2959  0.2963  0.1271
    6MOL   C467 4677   0.538   2.415   6.804  0.1691  0.2508  0.2572
    6MOL   C468 4678   0.398   2.399   6.859 -0.1552 -0.6123 -0.6362
    6MOL   C469 4679   0.364   2.514   6.964 -0.3927  0.0622 -0.1496
    6MOL   C470 4680   0.223   2.519   7.015  0.6517  0.1838 -0.7015
    6MOL   C471 4681   0.117   2.555   6.914 -0.3168 -0.1454  0.4980
    6MOL   C472 4682   7.675   2.538   6.977  0.0193 -0.2790 -0.0777
    6MOL   C473 4683   7.576   2.554   6.869 -0.1206  0.6366  0.2115
    6MOL   C474 4684   7.437   2.576   6.916 -0.4300 -0.4174 -0.0052
    6MOL   C475 4685   7.337   2.595   6.803  0.7354 -0.4546 -0.6478
    6MOL   C476 4686   7.368   2.705   6.703 -0.0958  0.2792  0.0359
    6MOL   C477 4687   7.441   2.662   6.580  0.8239  0.4846 -0.3475
    6MOL   H478 4688   0.884   2.539   6.685  2.7019  0.5180  1.7963
    6MOL   H479 4689   0.726   2.600   6.718 -0.5504 -0.7235  0.0008
    6MOL   H480 4690   0.848   2.461   6.953  0.3626 -2.3491  0.6221
    6MOL   H481 4691   0.640   2.362   6.995 -0.0162 -2.2180 -2.2437
    6MOL   H482 4692   0.633   2.535   6.963 -1.0693 -0.3825  1.1967
    6MOL   H483 4693   0.566   2.328   6.745 -0.9808  0.6658 -0.9378
    6MOL   H484 4694   0.531   2.502   6.738 -0.2678  0.6344  0.8052
    6MOL   H485 4695   0.398   2.304   6.911  0.2618 -1.2394 -1.7568
    6MOL   H486 4696   0.321   2.401   6.782  0.2955 -2.4989 -1.1471
    6MOL   H487 4697   0.424   2.503   7.054 -0.3790 -1.0786 -0.2789
    6MOL   H488 4698   0.397   2.608   6.920 -1.2959  0.0491 -0.8643
    6MOL   H489 4699   0.200   2.418   7.052  2.9006 -0.0126  0.2287
    6MOL   H490 4700   0.206   2.580   7.104 -1.7153 -2.5893  0.8636
    6MOL   H491 4701   0.134   2.659   6.887 -1.0527  0.1821  1.2868
    6MOL   H492 4702   0.124   2.487   6.829  1.9973 -1.7993  1.9335
    6MOL   H493 4703   7.674   2.436   7.016  0.9237 -0.1550  0.2624
    6MOL   H494 4704   7.670   2.600   7.066  2.5085  0.7565 -0.6325
    6MOL   H495 4705   7.608   2.636   6.804  3.2235 -0.5800  0.2065
    6MOL   H496 4706   7.586   2.469   6.801 -2.6134  0.9085 -0.5446
    6MOL   H497 4707   7.411   2.497   6.987 -0.0699 -2.2980 -1.9146
    6MOL   H498 4708   7.437   2.663   6.982  0.3149  0.0214 -0.5780
    6MOL   H499 4709   7.236   2.599   6.843  0.5183 -0.0646 -1.2241
    6MOL   H500 4710   7.341   2.497   6.756  2.5582 -0.6361 -0.1284
    6MOL   H501 4711   7.274   2.750   6.671 -0.3258 -2.3547 -3.2241
    6MOL   H502 4712   7.424   2.786   6.750 -0.5449  1.0256 -0.7172
    6MOL   H503 4713   7.493   2.746   6.533  3.3094 -1.9082 -2.0134
    6MOL   H504 4714   7.513   2.581   6.594 -0.8118 -1.1036 -0.9045
    6MOL   H505 4715   7.374   2.614   6.509 -2.5908  1.9717  1.7432
    6MOL   C506 4716   0.832   2.308   6.799 -0.5448 -0.0871 -0.2708
    6MOL   C507 4717   0.862   2.195   6.902 -0.4229  0.0067  0.3172
    6MOL   C508 4718   0.836   2.051   6.843  0.1638  0.4696  0.2386
    6MOL   C509 4719   0.694   2.001   6.819 -0.3302 -0.0547 -0.1700
    6MOL   C510 4720   0.683   1.888   6.719 -0.5540 -0.0318 -0.9995
    6MOL   C511 4721   0.702   1.927   6.573 -0.4531 -0.2993 -0.4238
    6MOL   C512 4722   0.678   1.816   6.475 -0.0987  0.2800 -0.7774
    6MOL   C513 4723   0.730   1.862   6.335 -0.4880  0.0182 -0.7011
    6MOL   C514 4724   0.729   1.754   6.224 -0.3245 -0.5652 -0.4290
    6MOL   C515 4725   0.796   1.792   6.087  0.0583  0.2660  0.2646
    6MOL   C516 4726   0.741   1.913   6.015 -0.0186 -0.1104  0.5641
    6MOL   C517 4727   0.801   2.055   6.029  0.3903 -0.4481  0.3170
    6MOL   C518 4728   0.933   2.088   5.954 -0.3452  0.0041  0.6280
    6MOL   C519 4729   0.975   2.243   5.968  0.0170 -0.4548  0.1435
    6MOL   H520 4730   0.924   2.323   6.742 -1.0654  2.2643 -0.5550
    6MOL   H521 4731   0.771   2.277   6.714 -1.1693  0.7236 -0.1215
    6MOL   H522 4732   0.813   2.218   6.997  0.9415  0.6468  0.8669
    6MOL   H523 4733   0.899   2.039   6.755  0.1884 -0.3077  0.3555
    6MOL   H524 4734   0.880   1.984   6.917 -1.1533  0.4966  1.0711
    6MOL   H525 4735   0.663   1.950   6.911 -0.6782  0.6319  0.0927
    6MOL   H526 4736   0.626   2.081   6.790 -0.3659 -0.0407 -0.0518
    6MOL   H527 4737   0.586   1.839   6.730 -1.2323  1.5007 -0.0272
    6MOL   H528 4738   0.757   1.811   6.742 -1.1056  0.0246  0.9816
    6MOL   H529 4739   0.804   1.963   6.559 -1.1176  1.5905 -0.6495
    6MOL   H530 4740   0.629   2.007   6.559 -2.8939 -2.1060  1.4941
    6MOL   H531 4741   0.729   1.725   6.507 -0.5385  0.5029  0.5762
    6MOL   H532 4742   0.574   1.788   6.458  0.8056 -1.8431 -3.1694
    6MOL   H533 4743   0.835   1.887   6.354 -0.0326 -0.4342 -2.5126
    6MOL   H534 4744   0.692   1.960   6.306 -0.3387  0.7600  1.4953
    6MOL   H535 4745   0.628   1.724   6.196  0.0260 -1.3027 -0.9203
    6MOL   H536 4746   0.771   1.658   6.258  0.9183  0.3917  0.8273
    6MOL   H537 4747   0.897   1.818   6.116 -0.1069  1.6289 -0.3520
    6MOL   H538 4748   0.807   1.710   6.016 -0.8241 -1.8658  2.5242
    6MOL   H539 4749   0.753   1.889   5.910 -2.6205  0.6713  0.0552
    6MOL   H540 4750   0.633   1.903   6.023 -0.0762  1.1422  1.6100
    6MOL   H541 4751   0.821   2.077   6.134  2.6499  2.6466 -0.6764
    6MOL   H542 4752   0.719   2.120   5.999  0.1068 -0.8966  0.1104
    6MOL   H543 4753   0.909   2.084   5.848  0.4134 -2.0598  0.5077
    6MOL   H544 4754   1.007   2.013   5.982 -0.6457 -0.1043  1.1405
    6MOL   H545 4755   1.076   2.268   5.937 -0.0339 -0.6227 -0.1572
    6MOL   H546 4756   0.912   2.318   5.922  1.1354 -0.5182 -1.5385
    6MOL   H547 4757   0.954   2.264   6.073 -1.1202  0.9683 -0.3569
    6MOL   C548 4758   1.010   2.210   6.933 -0.1573  0.3405 -0.3674
    6MOL   C549 4759   1.071   2.150   7.065  0.4975  0.6603  0.2091
    6MOL   C550 4760   1.219   2.138   7.067  0.3919 -0.0006  0.0954
    6MOL   C551 4761   1.284   2.069   6.952 -0.3637 -1.5793 -0.2692
    6MOL   C552 4762   1.232   1.935   6.913 -0.2109  0.2421  0.1782
    6MOL   C553 4763   1.248   1.827   7.025 -0.6773 -1.2206 -0.2472
    6MOL   C554 4764   1.205   1.691   6.974  0.3360 -0.4310 -0.4174
    6MOL   C555 4765   1.053   1.665   6.954 -0.2243  0.1619 -0.9659
    6MOL   C556 4766   0.977   1.662   7.088  0.2145  0.0815 -0.2257
    6MOL   C557 4767   0.826   1.660   7.061 -0.4665  0.6086 -0.2540
    6MOL   C558 4768   0.730   1.660   7.181 -0.4413 -0.0761 -0.0207
    6MOL   C559 4769   0.581   1.618   7.150  0.2233 -0.4089 -0.3202
    6MOL   C560 4770   0.499   1.615   7.278  0.2491  1.1245  0.4951
    6MOL   C561 4771   0.519   1.492   7.375  0.0859 -0.3272  0.0555
    6MOL   H562 4772   1.069   2.166   6.852 -1.2018  0.0180 -0.9598
    6MOL   H563 4773   1.039   2.315   6.939 -1.5331  0.7790 -1.1171
    6MOL   H564 4774   1.034   2.047   7.068 -1.0969  1.0564 -3.1241
    6MOL   H565 4775   1.257   2.239   7.083 -2.6572  1.0155  1.1751
    6MOL   H566 4776   1.247   2.087   7.159 -1.8748  0.6233  1.1507
    6MOL   H567 4777   1.387   2.039   6.974  0.6225  1.4751 -0.4339
    6MOL   H568 4778   1.296   2.137   6.868 -0.0781 -0.7544  0.4197
    6MOL   H569 4779   1.125   1.949   6.896 -0.7175 -0.8565  2.3732
    6MOL   H570 4780   1.269   1.889   6.822  0.3442 -0.5361  0.7958
    6MOL   H571 4781   1.205   1.857   7.120 -1.1323  2.3281 -1.5000
    6MOL   H572 4782   1.346   1.805   7.068 -1.1026 -1.9723  0.3603
    6MOL   H573 4783   1.254   1.675   6.878  3.3248  1.0890  0.8015
    6MOL   H574 4784   1.264   1.619   7.030  1.4968  2.1248  1.7647
    6MOL   H575 4785   1.042   1.571   6.900 -1.4799 -0.2577  0.0022
    6MOL   H576 4786   1.012   1.741   6.888 -0.2598  0.7220 -0.3104
    6MOL   H577 4787   0.991   1.754   7.144  0.3577  0.6182 -1.1228
    6MOL   H578 4788   1.008   1.588   7.162  0.2255  0.9478  0.6435
    6MOL   H579 4789   0.808   1.745   6.996 -0.1693 -0.3048 -1.5392
    6MOL   H580 4790   0.802   1.564   7.017  0.0405  1.3407 -2.1521
    6MOL   H581 4791   0.723   1.750   7.243 -1.5169  2.2639 -3.4106
    6MOL   H582 4792   0.769   1.580   7.244 -2.7714 -1.5265 -0.3544
    6MOL   H583 4793   0.535   1.686   7.079  0.0338  0.1035  0.2917
    6MOL   H584 4794   0.585   1.519   7.104  2.1187 -0.3288 -0.3769
    6MOL   H585 4795   0.510   1.709   7.333  4.1667 -0.0468  1.8587
    6MOL   H586 4796   0.396   1.617   7.240  0.7992 -0.2004 -1.1306
    6MOL   H587 4797   0.512   1.520   7.480 -0.5453  1.9955 -0.5640
    6MOL   H588 4798   0.464   1.404   7.344 -0.8583  0.4983 -0.6320
    6MOL   H589 4799   0.621   1.456   7.357  0.4411  0.0859  1.1952
    6MOL   C590 4800   1.018   2.214   7.199  0.1120  0.7142  0.2515
    6MOL   C591 4801   0.931   2.127   7.280  0.4221  0.6970  0.4360
    6MOL   C592 4802   1.008   2.007   7.344 -0.4716 -0.3374 -0.6557
    6MOL   C593 4803   1.100   2.041   7.458 -0.6770 -0.2682 -0.0653
    6MOL   C594 4804   1.162   1.908   7.517 -0.2886  0.0281  0.0647
    6MOL   C595 4805   1.216   1.930   7.664 -0.3458  0.4013  0.2881
    6MOL   C596 4806   1.357   1.983   7.661  0.4146  0.0111 -0.0996
    6MOL   C597 4807   1.417   1.993   0.103 -0.1484 -0.2321 -0.2110
    6MOL   C598 4808   1.557   2.057   0.087  0.0992  0.1063 -0.1979
    6MOL   C599 4809   1.609   2.130   0.209  0.1692 -0.4160  0.0358
    6MOL   C600 4810   1.748   2.182   0.181 -0.1875  1.0702 -0.3172
    6MOL   C601 4811   1.796   2.282   0.287  0.2009  0.4030  0.4042
    6MOL   C602 4812   1.943   2.306   0.281  0.3108 -0.0254 -0.0611
    6MOL   C603 4813   1.989   2.431   0.363  0.3693  0.1626 -0.2943
    6MOL   H604 4814   0.963   2.305   7.173 -0.9350  0.4697  1.5356
    6MOL   H605 4815   1.094   2.255   7.265  0.4091  0.4392  0.0756
    6MOL   H606 4816   0.859   2.080   7.213 -0.6754 -0.2761  2.2269
    6MOL   H607 4817   1.062   1.945   7.273 -0.8153  0.1134 -1.3137
    6MOL   H608 4818   0.933   1.941   7.387  0.5153 -1.5351 -0.7567
    6MOL   H609 4819   1.046   2.106   7.527 -0.4694  0.0384 -0.1892
    6MOL   H610 4820   1.185   2.104   7.431 -0.8210  1.1830  2.6541
    6MOL   H611 4821   1.251   1.879   7.460 -1.2146 -0.3622 -1.1951
    6MOL   H612 4822   1.087   1.830   7.514  1.3454 -1.6667  1.8456
    6MOL   H613 4823   1.213   1.846   0.038 -1.5567  1.4757  1.5776
    6MOL   H614 4824   1.158   2.004   0.024 -1.3378 -2.0893  2.6575
    6MOL   H615 4825   1.415   1.920   7.593 -0.8481 -2.3926  0.9763
    6MOL   H616 4826   1.349   2.080   7.611 -1.8286 -0.4807 -0.7504
    6MOL   H617 4827   1.365   2.057   0.175  0.8376 -0.6059  0.8461
    6MOL   H618 4828   1.423   1.897   0.155 -0.7094 -1.2334 -1.9434
    6MOL   H619 4829   1.632   1.985   0.053 -1.0138 -1.3092  0.2707
    6MOL   H620 4830   1.538   2.124   0.003 -1.0135  0.5127  0.3662
    6MOL   H621 4831   1.539   2.206   0.242  0.4374 -0.3982  0.5630
    6MOL   H622 4832   1.619   2.057   0.290 -1.8967 -1.2207 -0.4063
    6MOL   H623 4833   1.746   2.239   0.088 -1.4043 -0.2290 -1.1024
    6MOL   H624 4834   1.824   2.106   0.163  0.8733  2.4298 -1.8928
    6MOL   H625 4835   1.774   2.253   0.390  0.9395  1.0035  0.7376
    6MOL   H626 4836   1.735   2.372   0.280 -2.1195 -1.1155  0.4204
    6MOL   H627 4837   1.989   2.214   0.316  0.1825  0.6417  1.8831
    6MOL   H628 4838   1.987   2.323   0.183  0.5673 -0.0361  0.0533
    6MOL   H629 4839   2.098   2.440   0.356  0.3839 -1.0306 -1.9176
    6MOL   H630 4840   1.964   2.438   0.469  1.4179 -2.1412  0.1479
    6MOL   H631 4841   1.940   2.515   0.315 -1.8946  1.2944  3.7304
    6MOL   C632 4842   0.845   2.215   7.386 -0.0192 -0.6464  0.5809
    6MOL   C633 4843   0.729   2.299   7.328 -0.3811 -0.2627 -0.1688
    6MOL   C634 4844   0.624   2.208   7.275 -0.2652 -0.0007 -0.6423
    6MOL   C635 4845   0.569   2.091   7.367 -0.0466 -0.1128 -0.1316
    6MOL   C636 4846   0.458   2.017   7.291  0.6171 -0.5623  0.1644
    6MOL   C637 4847   0.334   2.105   7.251 -0.0501 -0.8309  0.6490
    6MOL   C638 4848   0.204   2.043   7.199  0.0804  0.7878 -0.1208
    6MOL   C639 4849   0.091   2.141   7.160  0.4695 -0.0831 -0.5583
    6MOL   C640 4850   7.693   2.170   7.282 -0.5360 -0.1600  0.3757
    6MOL   C641 4851   7.608   2.295   7.267 -0.2799 -0.0814 -0.5174
    6MOL   C642 4852   7.508   2.316   7.387 -0.0271 -0.8975  0.1691
    6MOL   C643 4853   7.418   2.433   7.378  0.6940  0.1766 -1.1008
    6MOL   C644 4854   7.316   2.426   7.264 -0.1057  0.7250 -0.2783
    6MOL   C645 4855   7.224   2.542   7.261 -0.2574  0.1527  0.4649
    6MOL   H646 4856   0.910   2.275   7.450  1.6589 -0.2257 -1.4352
    6MOL   H647 4857   0.799   2.140   7.451  0.5488 -1.6421 -0.1449
    6MOL   H648 4858   0.770   2.350   7.241  0.7902  3.3135  2.3995
    6MOL   H649 4859   0.542   2.273   7.246 -0.6158  0.5189  1.4358
    6MOL   H650 4860   0.659   2.160   7.183  0.4378  0.9998 -0.9044
    6MOL   H651 4861   0.534   2.141   7.457  1.3566  0.7638 -0.0581
    6MOL   H652 4862   0.649   2.020   7.387  0.4643  0.2682 -0.8234
    6MOL   H653 4863   0.409   1.934   7.342 -0.7704  0.1571  0.0381
    6MOL   H654 4864   0.495   1.973   7.199  1.3159 -0.0716  0.2066
    6MOL   H655 4865   0.303   2.160   7.340 -0.2227 -0.8559  0.6050
    6MOL   H656 4866   0.365   2.173   7.171 -4.1627 -0.5827 -0.9132
    6MOL   H657 4867   0.237   1.987   7.112  0.5293 -1.1559  1.2839
    6MOL   H658 4868   0.159   1.989   7.282 -0.6870 -0.3726 -1.2669
    6MOL   H659 4869   0.048   2.103   7.068  0.8030  0.6665 -1.0285
    6MOL   H660 4870   0.136   2.239   7.145  0.0307  0.4630  1.4420
    6MOL   H661 4871   0.068   2.170   7.365  2.2366  0.7794 -1.8574
    6MOL   H662 4872   7.633   2.081   7.301 -1.0107  0.1785  0.4641
    6MOL   H663 4873   7.679   2.377   7.259 -1.0652  1.0862  3.3139
    6MOL   H664 4874   7.556   2.287   7.172 -1.6917 -2.6977  0.4316
    6MOL   H665 4875   7.455   2.223   7.409  1.5970 -2.3014 -1.7273
    6MOL   H666 4876   7.564   2.316   7.480 -1.3429  0.4590  0.9895
    6MOL   H667 4877   7.472   2.528   7.383  0.8908 -0.0500  2.0876
    6MOL   H668 4878   7.362   2.430   7.471  0.0623  1.6422 -1.4113
    6MOL   H669 4879   7.259   2.334   7.276  2.5633 -0.9642 -0.2581
    6MOL   H670 4880   7.373   2.422   7.171  0.2618 -2.0557  0.0181
    6MOL   H671 4881   7.167   2.547   7.354 -0.2096  2.6658  0.4100
    6MOL   H672 4882   7.288   2.630   7.270  1.1747 -0.8468  0.2053
    6MOL   H673 4883   7.156   2.545   7.176  1.5246  2.1341 -0.9569
    6MOL   C674 4884   0.671   2.406   7.421 -0.2805  0.1426 -0.1962
    6MOL   C675 4885   0.774   2.512   7.480 -0.5241  0.4654  0.3894
    6MOL   C676 4886   0.858   2.592   7.367  0.2788 -0.0738 -0.0700
    6MOL   C677 4887   0.776   2.700   7.287  0.3496 -0.5415  0.3467
    6MOL   C678 4888   0.861   2.831   7.285 -0.3242 -0.0064 -0.7726
    6MOL   C679 4889   0.799   2.947   7.208 -0.2769  0.2111  0.2471
    6MOL   C680 4890   0.877   3.080   7.213  0.0956 -0.4967  0.1657
    6MOL   C681 4891   0.803   3.196   7.135  0.1535  0.7575  0.2944
    6MOL   C682 4892   0.879   3.330   7.149  0.3443 -0.3355  0.3736
    6MOL   C683 4893   0.813   3.449   7.076 -0.7465 -0.1719 -0.0561
    6MOL   C684 4894   0.675   3.497   7.127 -0.4502  0.2210  0.1820
    6MOL   C685 4895   0.676   3.551   7.270  0.0351 -0.2400  0.5528
    6MOL   C686 4896   0.538   3.569   7.339  0.5227 -1.1827  0.0200
    6MOL   C687 4897   0.544   3.631   7.478 -0.5189  0.0583  0.5080
    6MOL   H688 4898   0.609   2.350   7.491  0.3419 -0.8557 -0.4308
    6MOL   H689 4899   0.594   2.458   7.364 -0.0223  1.1404  0.3349
    6MOL   H690 4900   0.853   2.462   7.535  0.3149 -0.2137 -1.4060
    6MOL   H691 4901   0.958   2.616   7.402  0.1608 -1.0982  0.9814
    6MOL   H692 4902   0.880   2.519   7.290  1.6202 -1.0396  1.2074
    6MOL   H693 4903   0.749   2.662   7.189  0.6330 -0.5278  0.2638
    6MOL   H694 4904   0.683   2.721   7.341  1.1894  2.0289  0.8349
    6MOL   H695 4905   0.889   2.862   7.385  0.7525  0.8573 -1.3249
    6MOL   H696 4906   0.960   2.813   7.243 -0.7313 -0.7288 -1.4305
    6MOL   H697 4907   0.790   2.924   7.102  3.5382 -1.5392  0.2000
    6MOL   H698 4908   0.700   2.966   7.247 -0.6926 -2.2116  0.4032
    6MOL   H699 4909   0.887   3.109   7.317  1.2473  0.4318 -0.2031
    6MOL   H700 4910   0.976   3.060   7.171 -0.4665 -0.0116 -1.4455
    6MOL   H701 4911   0.795   3.168   7.030 -0.5714 -1.9700  1.0474
    6MOL   H702 4912   0.699   3.203   7.166 -0.0584 -1.5900  0.1698
    6MOL   H703 4913   0.883   3.346   7.257  3.0805  0.3556  0.2195
    6MOL   H704 4914   0.987   3.322   7.133  0.4388 -0.4736  1.0551
    6MOL   H705 4915   0.811   3.423   6.970 -0.1304  1.1092 -0.3942
    6MOL   H706 4916   0.880   3.535   7.079 -1.3863  0.3166  0.2687
    6MOL   H707 4917   0.606   3.413   7.119 -2.3096  1.6353  0.8735
    6MOL   H708 4918   0.636   3.568   7.055  0.2858 -0.0913 -0.5255
    6MOL   H709 4919   0.730   3.646   7.266 -1.1150  0.3700 -0.9220
    6MOL   H710 4920   0.729   3.487   7.341  0.8299  1.7823  1.8351
    6MOL   H711 4921   0.469   3.623   7.274  1.1552 -0.5578 -0.1316
    6MOL   H712 4922   0.491   3.471   7.351 -0.6010 -0.6783 -0.1405
    6MOL   H713 4923   0.627   3.586   7.533  2.2140  1.3478 -2.3586
    6MOL   H714 4924   0.572   3.735   7.460  0.3301 -0.1963  0.2981
    6MOL   H715 4925   0.449   3.627   7.530 -1.6361  0.0469 -1.4841
    6MOL   C716 4926   0.701   2.594   7.593 -0.6432 -0.4435  0.2618
    6MOL   C717 4927   0.761   2.732   7.641 -0.4108  0.0302  0.0104
    6MOL   C718 4928   0.649   2.824   0.017 -0.1814  0.9955  0.0171
    6MOL   C719 4929   0.593   2.770   0.144  0.4999 -0.2506 -0.2020
    6MOL   C720 4930   0.485   2.861   0.202  0.2526 -0.3162 -0.0127
    6MOL   C721 4931   0.410   2.801   0.325  0.1254  0.7887  0.4455
    6MOL   C722 4932   0.327   2.677   0.296 -0.5853 -0.5597  0.0150
    6MOL   C723 4933   0.230   2.638   0.405 -0.0938 -0.0963 -0.2189
    6MOL   C724 4934   0.149   2.519   0.352  0.1535 -0.2020  0.6101
    6MOL   C725 4935   0.025   2.480   0.435 -0.3481 -0.0064 -0.2690
    6MOL   C726 4936   7.655   2.347   0.405  0.1513  0.0659 -0.3684
    6MOL   C727 4937   7.534   2.298   0.490 -0.0763 -0.1303 -0.6749
    6MOL   C728 4938   7.451   2.186   0.424  0.5305 -0.0241  0.0954
    6MOL   C729 4939   7.332   2.130   0.502  0.6805 -0.0749  0.6863
    6MOL   H730 4940   0.606   2.624   7.548 -0.8090 -0.8423  0.3442
    6MOL   H731 4941   0.678   2.523   7.673  1.1242 -1.8169 -0.4244
    6MOL   H732 4942   0.776   2.791   7.551  0.5452  0.1772  0.2620
    6MOL   H733 4943   0.577   2.842   7.632 -0.1546 -2.2693 -0.7813
    6MOL   H734 4944   0.677   2.926   0.043 -0.9603  0.9417  1.0811
    6MOL   H735 4945   0.561   2.666   0.135  0.8613 -0.5739  1.9603
    6MOL   H736 4946   0.668   2.756   0.222  0.9711 -1.4123 -0.8538
    6MOL   H737 4947   0.530   2.958   0.218 -1.4482  0.8692 -2.0449
    6MOL   H738 4948   0.417   2.882   0.119  0.1978 -1.6211 -0.3204
    6MOL   H739 4949   0.479   2.783   0.408  0.1692 -3.1947 -0.3568
    6MOL   H740 4950   0.334   2.873   0.357 -0.3831  1.0578 -1.3451
    6MOL   H741 4951   0.270   2.701   0.207  0.1237  0.4253 -0.1770
    6MOL   H742 4952   0.391   2.591   0.274  1.7501  1.1290  0.0121
    6MOL   H743 4953   0.160   2.720   0.425  3.1981  2.3404  1.7056
    6MOL   H744 4954   0.288   2.634   0.497  0.8490  1.2063 -0.7328
    6MOL   H745 4955   0.117   2.544   0.251  0.5297 -2.0277  0.0320
    6MOL   H746 4956   0.216   2.435   0.337  0.1093  0.1749 -1.8045
    6MOL   H747 4957   0.058   2.478   0.538  1.0612 -0.9462 -0.7183
    6MOL   H748 4958   7.656   2.566   0.420 -0.4249  0.5269  2.8510
    6MOL   H749 4959   7.623   2.372   0.303  0.4210  1.5363 -0.0999
    6MOL   H750 4960   0.033   2.268   0.394 -0.5483 -0.6412 -0.0615
    6MOL   H751 4961   7.567   2.257   0.586  1.4020  0.0274 -1.1066
    6MOL   H752 4962   7.464   2.379   0.510  0.0041 -0.1761 -0.2037
    6MOL   H753 4963   7.524   2.105   0.419  0.8501  0.1720  1.3127
    6MOL   H754 4964   7.413   2.208   0.325 -0.6547 -1.5569  0.1830
    6MOL   H755 4965   7.352   2.093   0.602  0.4092 -1.6795  0.1568
    6MOL   H756 4966   7.287   2.042   0.457 -0.1876  0.7813 -0.1471
    6MOL   H757 4967   7.261   2.211   0.519 -0.4931 -1.2366  1.4494
    6MOL   C758 4968   0.895   2.727   0.025 -0.0293  0.8137  0.0173
    6MOL   C759 4969   0.965   2.855   0.062 -0.5543  0.5807 -0.0911
    6MOL   C760 4970   1.115   2.833   0.104 -0.6315 -0.2447 -0.2992
    6MOL   C761 4971   1.116   2.744   0.232 -0.6084 -0.2733 -0.4847
    6MOL   C762 4972   1.257   2.707   0.294  1.0030 -0.1246  0.2444
    6MOL   C763 4973   1.233   2.595   0.397 -0.3134  0.3950  0.7613
    6MOL   C764 4974   1.348   2.577   0.487 -0.8307 -0.5784  0.2355
    6MOL   C765 4975   1.350   2.456   0.574 -0.2466 -0.2573 -0.9834
    6MOL   C766 4976   1.367   2.323   0.506 -0.2202 -1.0188  0.1830
    6MOL   C767 4977   1.358   2.203   0.604  0.4795 -0.3356  0.0931
    6MOL   C768 4978   1.348   2.074   0.524 -0.3645  0.3042 -0.2220
    6MOL   C769 4979   1.357   1.943   0.604  0.0852 -0.1616  0.0027
    6MOL   C770 4980   1.237   1.904   0.690 -0.6216  0.0210 -0.2848
    6MOL   C771 4981   1.255   1.755   0.730 -0.2984  0.1879  0.5477
    6MOL   H772 4982   0.888   2.655   0.107  0.8195  0.5281 -0.1561
    6MOL   H773 4983   0.967   2.674   7.659  0.3020  2.8181 -1.3791
    6MOL   H774 4984   0.913   2.895   0.148  0.8903  0.5703  0.8071
    6MOL   H775 4985   1.176   2.793   0.024  2.6960 -2.4962  3.2059
    6MOL   H776 4986   1.154   2.927   0.144 -0.0533 -1.0400  1.0232
    6MOL   H777 4987   1.063   2.793   0.313  1.3383  0.8719  0.1067
    6MOL   H778 4988   1.069   2.648   0.209  0.4826 -0.6491 -1.1850
    6MOL   H779 4989   1.318   2.788   0.334  1.7571 -0.1475 -0.8494
    6MOL   H780 4990   1.319   2.671   0.213 -0.9430  0.3719 -1.5108
    6MOL   H781 4991   1.204   2.504   0.345 -0.0915  0.7084  0.0854
    6MOL   H782 4992   1.150   2.616   0.464 -1.5626 -1.0462 -0.3142
    6MOL   H783 4993   1.435   2.571   0.421 -1.3335  0.6599 -0.5666
    6MOL   H784 4994   1.374   2.673   0.532  0.2183 -0.0176 -1.5063
    6MOL   H785 4995   1.261   2.446   0.636 -1.9800 -1.5520 -3.6313
    6MOL   H786 4996   1.430   2.456   0.648 -0.2599  0.4447 -0.9663
    6MOL   H787 4997   1.460   2.318   0.450 -0.5661  0.9827 -0.6059
    6MOL   H788 4998   1.288   2.317   0.432  1.0982  0.7077 -1.4186
    6MOL   H789 4999   1.261   2.214   0.653  0.3600 -0.4036 -0.1248
    6MOL   H790 5000   1.439   2.208   0.676  0.4829  0.2374  0.0531
    6MOL   H791 5001   1.264   2.079   0.455  0.2384  2.2218 -0.8332
    6MOL   H792 5002   1.439   2.070   0.463  0.2799 -2.8203  0.8553
    6MOL   H793 5003   1.369   1.866   0.527 -0.3992 -2.0843  1.8062
    6MOL   H794 5004   1.450   1.929   0.658  0.7543 -1.5520 -1.4382
    6MOL   H795 5005   1.225   1.974   0.773 -1.2318 -0.6356  0.1812
    6MOL   H796 5006   1.153   1.903   0.621 -1.5974 -0.8430  0.9058
    6MOL   H797 5007   1.328   1.746   0.811 -0.1738 -1.4371  0.2600
    6MOL   H798 5008   1.161   1.715   0.767 -1.2396  1.3578 -0.5156
    6MOL   H799 5009   1.291   1.686   0.653 -1.2888  0.3511 -0.0626
    6MOL   C800 5010   0.947   2.969   7.656 -0.5459 -0.9590 -0.4001
    6MOL   C801 5011   1.002   3.102   7.692 -0.3828  0.6478  0.1130
    6MOL   C802 5012   0.965   3.214   7.598  0.0632  0.2619  0.2432
    6MOL   C803 5013   1.008   3.356   7.660 -0.1401 -0.3401 -0.1922
    6MOL   C804 5014   0.942   3.467   7.574 -0.6621 -0.2028  0.1186
    6MOL   C805 5015   1.015   3.601   7.575 -0.6761  0.5156  0.0815
    6MOL   C806 5016   0.954   3.702   7.477  0.1865  0.1848 -0.6498
    6MOL   C807 5017   0.995   3.846   7.492  0.2381  1.0654 -0.2131
    6MOL   C808 5018   0.917   3.942   7.404  0.1662 -0.4252 -0.7354
    6MOL   C809 5019   0.989   4.074   7.371 -0.1662  0.6026 -0.0768
    6MOL   C810 5020   0.916   4.178   7.276  0.5897  0.6796  0.5704
    6MOL   C811 5021   1.000   4.303   7.277  0.3588  0.0831  0.1359
    6MOL   C812 5022   0.930   4.419   7.219 -0.1353  0.1464 -0.3090
    6MOL   C813 5023   1.011   4.550   7.224 -0.2300  0.8173  0.1920
    6MOL   H814 5024   0.842   2.983   7.629 -0.8181 -0.8752  0.6849
    6MOL   H815 5025   1.003   2.937   7.568  2.0549  0.9748  0.5128
    6MOL   H816 5026   1.111   3.096   7.691 -0.3734  0.8822 -1.5022
    6MOL   H817 5027   0.856   3.225   7.598  0.3654  3.6320 -1.8078
    6MOL   H818 5028   0.989   3.198   7.493  3.0605 -0.2963  0.9794
    6MOL   H819 5029   1.116   3.362   7.659 -0.0800 -0.9004  1.7550
    6MOL   H820 5030   0.988   3.364   0.071  0.5553  0.3566 -0.1155
    6MOL   H821 5031   0.951   3.429   7.472 -0.9329  0.1545 -0.0422
    6MOL   H822 5032   0.836   3.474   7.597 -0.5987 -3.0349  1.4951
    6MOL   H823 5033   1.121   3.596   7.553 -0.6887 -0.7028  0.2568
    6MOL   H824 5034   0.992   3.643   7.673 -1.4762  1.3417 -0.4485
    6MOL   H825 5035   0.965   3.666   7.375 -0.6899 -0.3468 -0.5687
    6MOL   H826 5036   0.846   3.707   7.494  0.2866  0.4448 -0.0468
    6MOL   H827 5037   0.990   3.881   7.595 -1.1357  0.4112 -0.0547
    6MOL   H828 5038   1.098   3.844   7.455  0.4208 -2.5656  0.3152
    6MOL   H829 5039   0.896   3.896   7.308 -1.7905 -1.0069 -0.0605
    6MOL   H830 5040   0.825   3.978   7.450  1.1513  3.1129 -1.3791
    6MOL   H831 5041   1.086   4.050   7.327  0.0496  0.2810  0.5645
    6MOL   H832 5042   1.016   4.119   7.466 -0.8869  0.9598 -0.0402
    6MOL   H833 5043   0.910   4.145   7.172 -0.9504  0.2369  0.7894
    6MOL   H834 5044   0.817   4.190   7.321 -0.1352 -1.5428 -0.3718
    6MOL   H835 5045   1.086   4.295   7.211  0.8772  5.2453 -0.0618
    6MOL   H836 5046   1.034   4.322   7.379 -1.0605 -0.1792  0.6671
    6MOL   H837 5047   0.885   4.415   7.120 -0.7088  1.1799 -0.0992
    6MOL   H838 5048   0.848   4.434   7.290  2.8836 -0.9419  3.5955
    6MOL   H839 5049   0.948   4.638   7.214  0.6049  1.4806  0.7347
    6MOL   H840 5050   1.073   4.559   7.313  0.2065 -2.3180  0.2717
    6MOL   H841 5051   1.078   4.556   7.138 -2.1418  1.2999 -1.3022
    6MOL   H842 5052   0.988   3.132   0.101  0.9258 -0.0817  0.5123
    7MOL     C1 5053   1.917   2.341   7.287  0.0422  0.7523 -0.5647
    7MOL     C2 5054   2.068   2.394   7.279 -0.7963  0.3860 -0.3900
    7MOL     C3 5055   2.075   2.523   7.183 -0.6769 -0.2644 -0.4347
    7MOL     C4 5056   2.223   2.546   7.154 -0.6408  0.3684  0.2552
    7MOL     C5 5057   2.252   2.633   7.033 -0.4943 -0.4565 -0.4599
    7MOL     C6 5058   2.398   2.680   7.024  0.5433  0.5092  0.2898
    7MOL     C7 5059   2.500   2.566   6.996 -0.1668 -0.3190  0.0830
    7MOL     C8 5060   2.643   2.619   6.972 -0.2353 -0.0828  0.2836
    7MOL     C9 5061   2.740   2.522   6.928  0.3075 -0.3109  0.4333
    7MOL    C10 5062   2.883   2.575   6.938 -0.1569  0.1324 -0.0920
    7MOL    C11 5063   2.980   2.480   6.877 -0.6616 -0.6703  0.5092
    7MOL    C12 5064   3.129   2.530   6.897 -0.1683 -0.3085  0.6157
    7MOL    C13 5065   3.177   2.515   7.041  0.2535 -0.3416  0.0495
    7MOL    C14 5066   3.324   2.541   7.061 -0.3237  0.2578  0.2322
    7MOL    H15 5067   1.904   2.240   7.325 -0.7232  1.4364  1.0329
    7MOL    H16 5068   1.878   2.345   7.185  0.2951  1.0376 -0.6528
    7MOL    H17 5069   2.116   2.314   7.223 -1.4006  1.3907 -2.3942
    7MOL    H18 5070   2.025   2.506   7.088 -0.3769  0.6005 -0.7498
    7MOL    H19 5071   2.031   2.600   7.246  0.2534 -1.5382  1.8411
    7MOL    H20 5072   2.279   2.453   7.157  0.2775  0.9353  1.3168
    7MOL    H21 5073   2.259   2.609   7.235 -0.4662  1.1702 -0.4339
    7MOL    H22 5074   2.172   2.705   7.016 -0.4329  0.1534  1.7008
    7MOL    H23 5075   2.232   2.574   6.943 -0.9398 -0.0048 -0.6578
    7MOL    H24 5076   2.421   2.743   7.110  1.6617  0.5117 -0.0093
    7MOL    H25 5077   2.414   2.742   6.936 -0.4769 -1.6109 -1.4318
    7MOL    H26 5078   2.491   2.495   7.078  1.6313 -1.9286 -1.0629
    7MOL    H27 5079   2.483   2.518   6.899 -2.0760  1.0245 -0.2764
    7MOL    H28 5080   2.669   2.671   7.064 -1.3090  0.4806  0.2695
    7MOL    H29 5081   2.644   2.692   6.892 -3.4191 -1.7589 -1.3780
    7MOL    H30 5082   2.730   2.421   6.967  1.7999 -1.3649 -1.7531
    7MOL    H31 5083   2.729   2.502   6.821 -1.6672 -0.7011  0.7033
    7MOL    H32 5084   2.901   2.669   6.886  5.1557  0.1618  1.5080
    7MOL    H33 5085   2.911   2.589   7.042  1.5695  0.5475 -0.5897
    7MOL    H34 5086   2.972   2.386   6.930 -2.0121 -0.6740  0.3260
    7MOL    H35 5087   2.958   2.452   6.774 -0.4766 -1.1841  0.6075
    7MOL    H36 5088   3.142   2.629   6.852  1.5506 -0.8969 -0.2164
    7MOL    H37 5089   3.195   2.468   6.837 -1.6813 -1.5143  0.1733
    7MOL    H38 5090   3.130   2.587   7.107  0.7049 -0.2166  0.2353
    7MOL    H39 5091   3.151   2.417   7.082 -2.1238  0.5586  0.8007
    7MOL    H40 5092   3.346   2.515   7.165  1.4905  0.1409 -0.1756
    7MOL    H41 5093   3.386   2.475   7.001  0.3326 -0.4756  1.7075
    7MOL    H42 5094   3.348   2.647   7.052  0.5639  0.0191 -0.2275
    7MOL    H43 5095   1.856   2.402   7.353  1.6022  0.7070  0.9484
    7MOL    C44 5096   2.138   2.405   7.419  0.2602 -0.2347 -0.7509
    7MOL    C45 5097   2.119   2.282   7.520  0.1849  0.4539  0.0375
    7MOL    C46 5098   2.160   2.319   7.666 -0.2931  0.0273 -0.5888
    7MOL    C47 5099   2.311   2.367   7.678 -0.2074  0.2514 -0.5182
    7MOL    C48 5100   2.339   2.406   0.124  0.4107  0.3548 -0.9442
    7MOL    C49 5101   2.488   2.426   0.166 -0.2995 -0.1255 -0.5050
    7MOL    C50 5102   2.564   2.297   0.186 -0.1894  1.4044  0.1070
    7MOL    C51 5103   2.716   2.294   0.229 -0.0819 -0.1299 -0.0937
    7MOL    C52 5104   2.814   2.352   0.117  0.4885  0.0359 -0.0853
    7MOL    C53 5105   2.964   2.335   0.148 -0.0480 -0.2248 -0.0214
    7MOL    C54 5106   3.049   2.387   0.025 -0.4132 -0.1459  0.1217
    7MOL    C55 5107   3.050   2.282   7.613 -0.6529  1.1725 -0.0228
    7MOL    C56 5108   3.137   2.336   7.493 -0.9121 -0.3419 -0.1862
    7MOL    C57 5109   3.144   2.234   7.375 -0.0804  0.3935 -0.4121
    7MOL    H58 5110   2.243   2.430   7.407  0.0944 -0.4181 -2.7591
    7MOL    H59 5111   2.092   2.488   7.473  1.8200 -1.0838  1.9422
    7MOL    H60 5112   2.012   2.262   7.523  0.4659 -0.9659  1.1162
    7MOL    H61 5113   2.097   2.401   0.006  0.3186  0.1265  0.2788
    7MOL    H62 5114   2.142   2.234   0.035  1.2155  2.0902  2.6718
    7MOL    H63 5115   2.339   2.453   7.619  1.2504  1.1267  1.4069
    7MOL    H64 5116   2.379   2.287   7.649  0.5206 -0.0722  1.9885
    7MOL    H65 5117   2.301   2.332   0.195 -0.8152  1.6033 -0.2641
    7MOL    H66 5118   2.295   2.503   0.146  1.0898  0.4725 -0.1313
    7MOL    H67 5119   2.532   2.491   0.091  0.8063  0.1121  0.3342
    7MOL    H68 5120   2.493   2.490   0.254  5.4718  0.3315 -0.9865
    7MOL    H69 5121   2.518   2.212   0.236  2.7017 -0.8172 -0.7957
    7MOL    H70 5122   2.564   2.263   0.082  1.5447 -2.3881  1.2471
    7MOL    H71 5123   2.752   2.196   0.261 -0.9763 -0.0281  1.2429
    7MOL    H72 5124   2.734   2.347   0.322  1.8063  2.6765 -1.9740
    7MOL    H73 5125   2.787   2.290   0.031 -0.7500  1.1153 -0.4931
    7MOL    H74 5126   2.798   2.457   0.091 -1.1867 -0.4816 -1.2152
    7MOL    H75 5127   2.990   2.232   0.172 -1.6078 -0.3680  1.1336
    7MOL    H76 5128   2.986   2.395   0.236 -0.6362  0.4946 -0.3554
    7MOL    H77 5129   3.151   2.406   0.059 -1.4077  0.0873  3.1075
    7MOL    H78 5130   3.013   2.484   7.689  1.0270 -0.8797 -4.0633
    7MOL    H79 5131   3.091   2.186   7.647  0.6008  1.3574 -0.9551
    7MOL    H80 5132   2.948   2.257   7.586 -0.6669 -0.0733  1.1161
    7MOL    H81 5133   3.240   2.351   7.528 -0.0705 -1.1290 -2.2403
    7MOL    H82 5134   3.100   2.435   7.466  0.9188  0.9865  1.9467
    7MOL    H83 5135   3.193   2.142   7.405 -1.4921 -0.6813 -1.3087
    7MOL    H84 5136   3.196   2.274   7.288  1.2694 -2.2067 -0.8360
    7MOL    H85 5137   3.045   2.210   7.337 -0.7772  2.8422 -0.1984
    7MOL    C86 5138   2.185   2.157   7.459  0.1299  0.3421 -0.3049
    7MOL    C87 5139   2.208   2.026   7.544 -0.3811 -0.4337  0.2506
    7MOL    C88 5140   2.308   1.939   7.464  0.3043  0.4976  0.2783
    7MOL    C89 5141   2.455   1.956   7.510 -0.3210 -0.2830 -0.8690
    7MOL    C90 5142   2.548   1.863   7.420  0.2855  0.0864  0.3592
    7MOL    C91 5143   2.693   1.904   7.422  0.7065  0.2772  0.3542
    7MOL    C92 5144   2.769   1.893   7.557  0.7149 -0.0509  0.1513
    7MOL    C93 5145   2.919   1.922   7.539 -0.6922  0.6815 -0.1452
    7MOL    C94 5146   3.010   1.936   7.659  0.4459  0.5013  0.4838
    7MOL    C95 5147   3.031   1.789   0.023  0.3868 -0.2246 -0.4413
    7MOL    C96 5148   3.145   1.797   0.131 -0.2517  0.3637  0.2339
    7MOL    C97 5149   3.157   1.679   0.226  0.0341 -0.2568  0.8958
    7MOL    C98 5150   3.248   1.705   0.342  0.3250  0.4740 -0.4157
    7MOL    C99 5151   3.269   1.580   0.428 -0.2720  0.2017 -0.3137
    7MOL   H100 5152   2.137   2.111   7.373  2.3297 -0.5763 -1.0793
    7MOL   H101 5153   2.273   2.200   7.411 -0.0390  0.8191 -0.1953
    7MOL   H102 5154   2.246   2.068   7.636  0.5758  1.2846 -0.9008
    7MOL   H103 5155   2.277   1.837   7.484  1.7473  0.1532  0.7882
    7MOL   H104 5156   2.305   1.941   7.355 -0.3570 -0.6820  0.2756
    7MOL   H105 5157   2.486   2.060   7.499  0.1531 -0.3624 -0.3423
    7MOL   H106 5158   2.461   1.938   7.617 -0.5920 -0.8126 -0.9464
    7MOL   H107 5159   2.523   1.880   7.316 -3.5856 -1.3692  0.9751
    7MOL   H108 5160   2.538   1.756   7.440 -0.0421 -0.6084 -3.2614
    7MOL   H109 5161   2.698   2.008   7.389 -0.1016  0.4919  0.8888
    7MOL   H110 5162   2.739   1.856   7.336  1.1957  1.0834  0.1579
    7MOL   H111 5163   2.725   1.953   7.636  0.6397 -1.4407  1.1883
    7MOL   H112 5164   2.761   1.794   7.602 -0.8643  1.0833  2.4795
    7MOL   H113 5165   2.931   2.027   7.511 -0.2784  1.2425  2.0088
    7MOL   H114 5166   2.971   1.860   7.466  1.5858  1.1497  1.0251
    7MOL   H115 5167   3.110   1.967   7.629  0.1520 -0.5476 -1.6546
    7MOL   H116 5168   2.973   2.004   0.040  1.5643 -0.1726  1.6516
    7MOL   H117 5169   3.056   1.725   7.634  1.0677  2.4562 -2.3285
    7MOL   H118 5170   2.942   1.753   0.075  1.4255 -1.4962  0.4806
    7MOL   H119 5171   3.246   1.800   0.088 -1.2647  1.2218 -2.1510
    7MOL   H120 5172   3.121   1.886   0.189  0.4495  0.4231  0.4443
    7MOL   H121 5173   3.063   1.661   0.277  0.1428  1.8940  1.9411
    7MOL   H122 5174   3.179   1.589   0.169  0.9684  0.7519 -0.3671
    7MOL   H123 5175   3.209   1.787   0.402  1.2099  0.7342 -0.1765
    7MOL   H124 5176   3.343   1.730   0.293  0.3290  2.5888  0.6207
    7MOL   H125 5177   3.342   1.595   0.507 -0.8217 -2.4412  0.7373
    7MOL   H126 5178   3.171   1.556   0.470 -1.1681  0.3842 -2.2546
    7MOL   H127 5179   3.289   1.493   0.366 -1.2255 -1.4724  1.6782
    7MOL   C128 5180   2.074   1.948   7.567  0.2349  0.2946 -0.3305
    7MOL   C129 5181   2.066   1.825   7.653  0.7985  0.2962 -0.6052
    7MOL   C130 5182   2.034   1.862   0.106 -0.8367 -0.4764  0.7836
    7MOL   C131 5183   2.081   1.762   0.212  0.0160 -0.5333  0.3951
    7MOL   C132 5184   2.099   1.833   0.351 -0.1273  0.2288  0.8816
    7MOL   C133 5185   2.203   1.949   0.378 -0.0719 -0.7488 -0.5191
    7MOL   C134 5186   2.165   2.046   0.490  0.1033  0.2651 -0.0030
    7MOL   C135 5187   2.265   2.167   0.498  0.4556  0.1992 -0.0403
    7MOL   C136 5188   2.248   2.264   0.623  0.4956 -0.2772 -0.8449
    7MOL   C137 5189   2.352   2.376   0.646 -0.1094 -0.2480  0.1700
    7MOL   C138 5190   2.332   2.471   0.767  0.0207 -0.4732 -0.5904
    7MOL   C139 5191   2.194   2.540   0.771  0.1283  0.7825 -0.6288
    7MOL   C140 5192   2.169   2.639   0.886  0.5482 -0.7091  0.1961
    7MOL   C141 5193   2.030   2.709   0.880 -0.1000  0.3933 -0.5093
    7MOL   H142 5194   2.001   2.023   7.596 -0.7625 -1.2496  1.3100
    7MOL   H143 5195   2.047   1.908   7.469  1.5887 -2.0667  0.2137
    7MOL   H144 5196   2.161   1.771   7.655  0.9750  0.5765 -1.1572
    7MOL   H145 5197   2.090   1.955   0.122  1.2577 -1.6092  0.2801
    7MOL   H146 5198   1.927   1.882   0.110 -1.6914 -4.2050 -1.6377
    7MOL   H147 5199   2.029   1.667   0.215 -0.4117 -0.2820  1.0202
    7MOL   H148 5200   2.181   1.745   0.171 -0.5670 -0.4191 -1.1214
    7MOL   H149 5201   2.003   1.865   0.393 -2.0935 -2.7972 -1.0705
    7MOL   H150 5202   2.121   1.757   0.426 -1.3041 -0.1533  0.8546
    7MOL   H151 5203   2.299   1.898   0.388 -0.4795 -1.0754  2.1876
    7MOL   H152 5204   2.217   2.011   0.290 -0.5909  1.3423  0.8314
    7MOL   H153 5205   2.061   2.074   0.478  0.2109  0.8210  0.3601
    7MOL   H154 5206   2.166   1.982   0.578 -0.9566  0.7817  0.3833
    7MOL   H155 5207   2.367   2.128   0.493  0.4266  0.1994 -0.7867
    7MOL   H156 5208   2.269   2.219   0.402  0.1262  0.8308  0.2842
    7MOL   H157 5209   2.153   2.314   0.603  0.8818 -0.2309 -2.7083
    7MOL   H158 5210   2.233   2.205   0.713 -2.0194  1.1486 -0.3077
    7MOL   H159 5211   2.349   2.438   0.557 -0.2274 -0.7365 -0.1712
    7MOL   H160 5212   2.451   2.332   0.664 -0.4700 -0.6998  1.0557
    7MOL   H161 5213   2.331   2.399   0.849  0.0763  2.1778  1.8235
    7MOL   H162 5214   2.411   2.546   0.769  0.7760 -1.2538 -0.5621
    7MOL   H163 5215   2.180   2.586   0.673 -1.0353 -1.1959 -1.4323
    7MOL   H164 5216   2.120   2.461   0.783  2.0418 -0.6173  2.5199
    7MOL   H165 5217   2.184   2.592   0.983  0.8271 -1.0321 -0.0038
    7MOL   H166 5218   2.245   2.716   0.896  0.7131 -0.6648 -1.2663
    7MOL   H167 5219   2.006   2.769   0.968 -2.7160 -0.3511 -0.6749
    7MOL   H168 5220   2.030   2.768   0.788  0.2980 -1.4230 -1.7045
    7MOL   H169 5221   1.962   2.624   0.879 -0.0796  0.3848 -1.0357
    7MOL   C170 5222   1.948   1.731   7.604 -0.0855 -0.3314 -0.4278
    7MOL   C171 5223   1.999   1.638   7.493  0.4423  0.2787  0.1309
    7MOL   C172 5224   2.043   1.496   7.533  0.3234  0.8639 -0.3409
    7MOL   C173 5225   2.158   1.482   7.639 -0.2931  0.4932 -0.9028
    7MOL   C174 5226   2.185   1.343   7.689 -0.2094 -0.6390 -0.1165
    7MOL   C175 5227   2.314   1.322   0.076 -1.0199  0.2061  0.0265
    7MOL   C176 5228   2.381   1.183   0.059 -0.4843 -1.0238 -0.1041
    7MOL   C177 5229   2.303   1.065   0.127  0.1712  0.1009  0.0481
    7MOL   C178 5230   2.369   0.930   0.116 -0.2556 -0.0600 -0.2055
    7MOL   C179 5231   2.514   0.913   0.179  0.6258  0.0145  0.7046
    7MOL   C180 5232   2.575   0.767   0.151  0.0668  0.3844 -0.4675
    7MOL   C181 5233   2.706   0.729   0.226  0.4462  0.9323 -0.2176
    7MOL   C182 5234   2.755   0.587   0.185 -0.5265 -0.3335  0.1217
    7MOL   C183 5235   2.868   0.535   0.284  0.1961 -0.8099 -0.5965
    7MOL   H184 5236   1.861   1.792   7.581 -1.7046 -2.5342 -0.2113
    7MOL   H185 5237   1.913   1.664   7.682  1.0661  0.4639  0.8091
    7MOL   H186 5238   2.086   1.672   7.435 -0.3634 -0.5441 -1.5933
    7MOL   H187 5239   1.965   1.437   7.582  0.7042 -2.2213 -3.1984
    7MOL   H188 5240   2.065   1.432   7.447  1.1746  1.4508 -0.5637
    7MOL   H189 5241   2.246   1.537   7.604 -0.6725  0.7237 -1.4956
    7MOL   H190 5242   2.136   1.543   0.031  0.1869 -0.2926 -0.2339
    7MOL   H191 5243   2.095   1.303   0.041  0.3382  0.5233  1.9635
    7MOL   H192 5244   2.209   1.289   7.597  1.2524  0.0186 -0.1239
    7MOL   H193 5245   2.311   1.348   0.182  0.6604  0.3000  0.0718
    7MOL   H194 5246   2.381   1.391   0.025 -0.7114 -0.4973 -0.5411
    7MOL   H195 5247   2.485   1.189   0.091 -0.2053 -2.0461 -0.8078
    7MOL   H196 5248   2.384   1.150   7.651  0.9251  2.2170 -1.1691
    7MOL   H197 5249   2.203   1.040   0.092 -0.8697  0.9095  2.3207
    7MOL   H198 5250   2.299   1.092   0.233 -1.1619 -1.2262  0.3529
    7MOL   H199 5251   2.365   0.900   0.011 -1.1224  0.7980 -0.4281
    7MOL   H200 5252   2.303   0.854   0.156 -0.3316 -0.4178 -0.9980
    7MOL   H201 5253   2.510   0.917   0.288 -0.1441  0.6804  0.6553
    7MOL   H202 5254   2.570   0.991   0.129  0.6450 -0.3262  0.1915
    7MOL   H203 5255   2.582   0.753   0.043 -1.4228  0.5879 -0.6013
    7MOL   H204 5256   2.495   0.707   0.193  1.3335 -0.7568  0.3363
    7MOL   H205 5257   2.782   0.802   0.197 -0.6604  1.6735 -1.2819
    7MOL   H206 5258   2.691   0.742   0.333 -0.0773 -1.3948  0.0076
    7MOL   H207 5259   2.669   0.520   0.183 -1.8580  1.3289  0.7414
    7MOL   H208 5260   2.788   0.588   0.081  0.0151  3.6206  0.2684
    7MOL   H209 5261   2.845   0.554   0.389 -3.3307 -0.7090 -1.3294
    7MOL   H210 5262   2.959   0.590   0.259  0.9480 -1.7642  0.0076
    7MOL   H211 5263   2.885   0.429   0.268  0.2242 -0.6776 -1.4249
    7MOL   C212 5264   1.887   1.622   7.383 -0.9872 -0.3059 -0.0469
    7MOL   C213 5265   1.856   1.736   7.287  0.7148 -0.3633 -0.1625
    7MOL   C214 5266   1.952   1.751   7.168 -0.1723  0.2659  0.6220
    7MOL   C215 5267   1.947   1.892   7.109 -0.0308  0.4066  0.5284
    7MOL   C216 5268   2.042   1.930   6.999  0.2128  0.9463 -0.5744
    7MOL   C217 5269   2.083   2.080   6.997  0.4566  0.5171  0.0447
    7MOL   C218 5270   2.172   2.111   6.875  0.0084 -0.1591  0.2430
    7MOL   C219 5271   2.203   2.258   6.864 -0.0730 -0.4559 -0.1626
    7MOL   C220 5272   2.290   2.300   6.749  0.1674  0.5469  0.7545
    7MOL   C221 5273   2.441   2.248   6.766 -0.0752 -0.3677  0.4891
    7MOL   C222 5274   2.516   2.296   6.644 -0.2610  1.0072  0.3948
    7MOL   C223 5275   2.657   2.241   6.626 -0.2822  0.5235 -0.0912
    7MOL   C224 5276   2.732   2.321   6.523  0.3006  0.1071 -0.3727
    7MOL   C225 5277   2.874   2.278   6.512  0.6064  0.1961 -0.0313
    7MOL   H226 5278   1.803   1.596   7.447  0.1768 -0.8916  1.2706
    7MOL   H227 5279   1.893   1.527   7.330  0.4965  0.4067 -1.2084
    7MOL   H228 5280   1.875   1.817   7.358  1.4761 -1.3635  0.7730
    7MOL   H229 5281   2.053   1.733   7.205 -0.7523 -1.2293  1.5548
    7MOL   H230 5282   1.926   1.678   7.091  0.6385  0.1012  0.5057
    7MOL   H231 5283   1.954   1.966   7.189 -4.0895 -0.3771  1.7399
    7MOL   H232 5284   1.841   1.894   7.083  0.2908  0.5682 -0.8238
    7MOL   H233 5285   1.996   1.907   6.903  2.4774  0.6683 -1.6397
    7MOL   H234 5286   2.124   1.859   7.010  1.6136  2.5347 -0.6334
    7MOL   H235 5287   2.138   2.095   7.090  0.9922 -0.6211 -0.0818
    7MOL   H236 5288   1.997   2.147   6.996  0.5201  0.5973 -0.7969
    7MOL   H237 5289   2.261   2.049   6.871 -1.4900 -2.4590  1.2775
    7MOL   H238 5290   2.113   2.089   6.786 -0.4269  1.1171  0.1949
    7MOL   H239 5291   2.110   2.314   6.851 -0.7039 -0.2633  4.1947
    7MOL   H240 5292   2.260   2.291   6.951  0.8720 -1.3277 -0.4406
    7MOL   H241 5293   2.296   2.408   6.736 -0.8875  0.6389  0.9879
    7MOL   H242 5294   2.253   2.262   6.653  1.3801  0.9013  0.1423
    7MOL   H243 5295   2.484   2.266   6.864 -1.9120 -0.4856  1.3367
    7MOL   H244 5296   2.443   2.140   6.754 -1.0179 -0.3075 -0.3213
    7MOL   H245 5297   2.520   2.404   6.627  1.1595  0.6893 -1.3820
    7MOL   H246 5298   2.461   2.269   6.554  0.4917 -1.6233  0.6816
    7MOL   H247 5299   2.647   2.135   6.600 -2.4876  0.5501  0.5064
    7MOL   H248 5300   2.717   2.247   6.717  3.0416 -1.2366 -2.0546
    7MOL   H249 5301   2.730   2.423   6.560  1.1915 -0.1160  0.3049
    7MOL   H250 5302   2.685   2.328   6.425  2.9495 -1.4147 -1.8250
    7MOL   H251 5303   2.936   2.290   6.601 -0.0707  0.1331  0.4503
    7MOL   H252 5304   2.876   2.171   6.493 -0.0061  0.6206 -2.7476
    7MOL   H253 5305   2.926   2.339   6.438 -3.2853  3.9099  0.1199
    7MOL   C254 5306   1.708   1.726   7.240 -0.4468 -0.5275  0.2428
    7MOL   C255 5307   1.594   1.772   7.333 -0.0277  0.0577 -0.0259
    7MOL   C256 5308   1.560   1.921   7.298  0.2782  0.0813 -0.2480
    7MOL   C257 5309   1.674   2.017   7.337  0.2686  0.1913  0.9437
    7MOL   C258 5310   1.611   2.145   7.393 -0.2127  0.7044 -0.1351
    7MOL   C259 5311   1.558   2.243   7.286  0.3347  0.3356 -0.9211
    7MOL   C260 5312   1.522   2.374   7.358 -0.2283 -0.0817  0.1851
    7MOL   C261 5313   1.405   2.349   7.449  0.7124 -0.1550 -0.0638
    7MOL   C262 5314   1.333   2.476   7.488  0.0085  0.3996 -0.3744
    7MOL   C263 5315   1.198   2.455   7.558 -0.3511  0.7749  0.6655
    7MOL   C264 5316   1.194   2.354   7.679 -0.6813  0.2154  0.0831
    7MOL   C265 5317   1.063   2.335   0.055 -0.2333  0.5583  0.2195
    7MOL   C266 5318   1.084   2.256   0.186  0.0994 -0.3446  0.2947
    7MOL   C267 5319   0.988   2.308   0.290 -0.3822  0.2241  0.1009
    7MOL   H268 5320   1.685   1.620   7.237  0.7668 -0.8524  1.9027
    7MOL   H269 5321   1.686   1.753   7.137  2.7584 -0.8736 -0.5742
    7MOL   H270 5322   1.623   1.756   7.437  3.0446 -1.2642 -1.0470
    7MOL   H271 5323   1.467   1.946   7.349  0.9964  0.9234  0.6538
    7MOL   H272 5324   1.536   1.922   7.191  1.2563 -0.9661 -0.4895
    7MOL   H273 5325   1.751   2.034   7.262  1.0982  1.1179  1.9789
    7MOL   H274 5326   1.729   1.969   7.418  2.8711 -0.0202 -0.8638
    7MOL   H275 5327   1.696   2.196   7.438  0.0510  0.5799 -0.4851
    7MOL   H276 5328   1.536   2.118   7.467 -0.4951  2.8305  0.3660
    7MOL   H277 5329   1.473   2.204   7.230  0.4741 -1.7686  0.2911
    7MOL   H278 5330   1.633   2.255   7.208  1.1489 -1.3829 -0.4179
    7MOL   H279 5331   1.609   2.425   7.397  0.9496 -1.0153 -1.1619
    7MOL   H280 5332   1.485   2.448   7.287  0.8549  0.4915  0.2216
    7MOL   H281 5333   1.456   2.311   7.538  2.9319  0.1249 -1.1632
    7MOL   H282 5334   1.340   2.279   7.398  1.7457 -0.8630 -0.4287
    7MOL   H283 5335   1.401   2.532   7.552  0.1000 -0.7619  0.5408
    7MOL   H284 5336   1.303   2.530   7.398 -1.2776 -3.3510 -2.2770
    7MOL   H285 5337   1.133   2.414   7.481  2.0578  2.1198 -2.1647
    7MOL   H286 5338   1.165   2.551   7.597  2.2817  0.9946  2.5052
    7MOL   H287 5339   1.274   2.385   0.051 -0.0793  0.8112 -0.8802
    7MOL   H288 5340   1.229   2.256   7.646  0.3999 -0.3396  2.7521
    7MOL   H289 5341   1.036   2.436   0.085  1.3901  1.2578 -0.6125
    7MOL   H290 5342   0.992   2.289   7.681 -0.3578  1.5897 -0.3401
    7MOL   H291 5343   1.076   2.148   0.179  1.1340 -0.3892 -0.2754
    7MOL   H292 5344   1.181   2.280   0.230  0.3834 -0.3827 -0.3017
    7MOL   H293 5345   0.884   2.293   0.260  0.1114 -1.1551 -0.9412
    7MOL   H294 5346   0.986   2.414   0.315 -4.4941  0.2330  0.0356
    7MOL   H295 5347   1.017   2.250   0.378 -3.1075  0.8654  1.4929
    7MOL   C296 5348   1.465   1.682   7.313 -0.0173  0.0426 -0.6317
    7MOL   C297 5349   1.449   1.550   7.391 -1.0302 -0.2416  0.5912
    7MOL   C298 5350   1.356   1.566   7.511 -0.3672  0.2506  0.1217
    7MOL   C299 5351   1.347   1.444   7.607 -0.9536  0.7239 -0.9111
    7MOL   C300 5352   1.306   1.489   0.057 -0.0274 -0.0466 -0.2768
    7MOL   C301 5353   1.324   1.361   0.149 -0.0516 -0.4301 -0.7350
    7MOL   C302 5354   1.272   1.396   0.289  0.1010 -1.0038 -0.1871
    7MOL   C303 5355   1.284   1.279   0.390  0.0393 -0.3108 -0.2515
    7MOL   C304 5356   1.289   1.334   0.542  0.3621 -0.4131  0.0835
    7MOL   C305 5357   1.332   1.218   0.628  0.3956 -0.6941  0.2425
    7MOL   C306 5358   1.487   1.184   0.616  0.7208 -0.8392 -0.2816
    7MOL   C307 5359   1.525   1.056   0.704  0.8418  0.1258 -0.9244
    7MOL   C308 5360   1.663   1.003   0.667  0.1659  0.3974 -0.0587
    7MOL   C309 5361   1.707   0.896   0.770 -0.1937 -0.4422 -0.5259
    7MOL   H310 5362   1.447   1.679   7.206  0.1371  1.0988 -0.6903
    7MOL   H311 5363   1.381   1.748   7.335 -1.5938 -1.9637 -0.4266
    7MOL   H312 5364   1.551   1.524   7.418 -0.7182  1.0652  0.7103
    7MOL   H313 5365   1.252   1.572   7.481 -0.5470  0.8843  0.8529
    7MOL   H314 5366   1.384   1.654   7.569 -0.2575 -0.4823  1.1961
    7MOL   H315 5367   1.448   1.402   7.610 -0.6224  1.4413 -1.7218
    7MOL   H316 5368   1.291   1.361   7.565 -0.1535 -1.1424  1.6102
    7MOL   H317 5369   1.366   1.570   0.099  0.9105 -1.0898  0.4595
    7MOL   H318 5370   1.202   1.518   0.051  0.3892  2.4647  3.1986
    7MOL   H319 5371   1.430   1.335   0.151  0.4005  1.3375  2.3135
    7MOL   H320 5372   1.258   1.279   0.122  0.4488 -1.1644  0.2238
    7MOL   H321 5373   1.312   1.492   0.323 -0.0266 -0.3815 -1.7278
    7MOL   H322 5374   1.166   1.420   0.280  0.0658 -1.0375  0.1266
    7MOL   H323 5375   1.368   1.213   0.367 -0.5296 -1.2603  0.3564
    7MOL   H324 5376   1.198   1.212   0.382  0.7179 -1.3944  1.3424
    7MOL   H325 5377   1.354   1.421   0.550 -3.6391  2.4635  2.9375
    7MOL   H326 5378   1.188   1.369   0.561  0.8577  0.6970  0.7415
    7MOL   H327 5379   1.274   1.131   0.597 -1.9806  0.4870  1.1694
    7MOL   H328 5380   1.308   1.234   0.733  0.5334 -0.1039  0.1871
    7MOL   H329 5381   1.542   1.273   0.647 -1.0997  0.5630 -0.9112
    7MOL   H330 5382   1.520   1.169   0.513  2.1920  0.8181 -0.0823
    7MOL   H331 5383   1.461   0.971   0.682 -0.4691  0.6014  0.9609
    7MOL   H332 5384   1.507   1.078   0.809  1.1199 -2.6384 -0.2621
    7MOL   H333 5385   1.738   1.081   0.683  0.8038 -0.3488  0.6561
    7MOL   H334 5386   1.666   0.964   0.566 -1.4238 -0.5827  0.2581
    7MOL   H335 5387   1.629   0.822   0.748 -0.2561  0.0901 -2.1374
    7MOL   H336 5388   1.809   0.858   0.766  0.6706  1.8049 -0.2182
    7MOL   H337 5389   1.686   0.936   0.869  1.0229  0.6641 -0.7088
    7MOL   C338 5390   1.382   1.450   7.290 -0.7761 -0.6056 -0.1572
    7MOL   C339 5391   1.492   1.387   7.200  0.8625 -0.3119  0.0948
    7MOL   C340 5392   1.581   1.286   7.286 -0.2208  0.4462  0.1387
    7MOL   C341 5393   1.728   1.287   7.215  0.5449 -0.4326 -0.4717
    7MOL   C342 5394   1.829   1.223   7.309  0.2219 -0.9396  0.8463
    7MOL   C343 5395   1.973   1.200   7.254 -0.1200 -0.3544 -0.3737
    7MOL   C344 5396   2.058   1.157   7.383  0.0717  0.1779  0.0601
    7MOL   C345 5397   2.062   1.006   7.412 -0.2442  0.5548  0.1130
    7MOL   C346 5398   2.145   0.968   7.539  0.5149 -0.0490 -0.4199
    7MOL   C347 5399   2.153   0.812   7.549  0.0288  0.6319 -0.4380
    7MOL   C348 5400   2.015   0.745   7.575 -0.4795 -0.0695  0.2098
    7MOL   C349 5401   2.040   0.617   7.654 -0.4530 -0.1616  0.0848
    7MOL   C350 5402   1.914   0.559   0.006  0.1217 -0.6966  0.2353
    7MOL   C351 5403   1.918   0.459   0.114 -0.5389 -0.2582  0.0026
    7MOL   H352 5404   1.350   1.369   7.356  2.4909 -1.7905  0.0727
    7MOL   H353 5405   1.295   1.485   7.234 -0.8547 -0.6042 -0.0334
    7MOL   H354 5406   1.559   1.469   7.173 -1.0168  1.4092  0.5113
    7MOL   H355 5407   1.590   1.311   7.392  0.7633  1.6835 -0.2185
    7MOL   H356 5408   1.529   1.191   7.274  0.4412  0.0603  0.3191
    7MOL   H357 5409   1.763   1.386   7.188 -0.0068  0.2331  1.2001
    7MOL   H358 5410   1.732   1.229   7.123  0.0214 -1.4516  0.1418
    7MOL   H359 5411   1.778   1.133   7.342  1.3285 -1.2106  1.8670
    7MOL   H360 5412   1.831   1.301   7.385  1.2843  2.0399 -2.1257
    7MOL   H361 5413   1.972   1.134   7.168 -4.2802 -1.5854  0.5309
    7MOL   H362 5414   2.016   1.290   7.210 -0.1410  1.1768  2.5917
    7MOL   H363 5415   2.160   1.196   7.377 -0.9697  3.2476  1.4416
    7MOL   H364 5416   2.010   1.208   7.466  2.7717  3.4397 -0.2553
    7MOL   H365 5417   1.955   0.987   7.422 -0.2747  0.4091 -0.4970
    7MOL   H366 5418   2.094   0.955   7.321 -1.4043  0.9650 -0.5381
    7MOL   H367 5419   2.240   1.021   7.545  0.2769  0.1555  2.3758
    7MOL   H368 5420   2.087   1.009   7.622  0.5722 -1.3008  0.2525
    7MOL   H369 5421   2.199   0.771   7.459  1.3942 -1.4064  1.1401
    7MOL   H370 5422   2.219   0.780   7.630  1.6514 -1.3092 -2.4414
    7MOL   H371 5423   1.955   0.729   7.486  0.5697  1.2304 -0.7559
    7MOL   H372 5424   1.961   0.818   7.636 -1.8615  0.3067 -1.4217
    7MOL   H373 5425   2.112   0.632   0.038  0.7505 -1.0460 -0.8366
    7MOL   H374 5426   2.088   0.537   7.599  0.7845  1.2811 -0.9756
    7MOL   H375 5427   1.850   0.640   0.042  0.0680 -0.7301  0.2149
    7MOL   H376 5428   1.874   0.512   7.611 -0.8168 -0.3415  0.4560
    7MOL   H377 5429   1.951   0.507   0.207 -0.4824  1.3388 -0.8165
    7MOL   H378 5430   1.815   0.432   0.139  0.0733 -1.3607  1.3955
    7MOL   H379 5431   1.982   0.373   0.095  1.9299  1.9181 -1.9103
    7MOL   C380 5432   1.434   1.324   7.063  0.0879  0.5701  0.2123
    7MOL   C381 5433   1.532   1.308   6.940  0.4019  0.1883  0.6646
    7MOL   C382 5434   1.481   1.199   6.838 -1.0742 -0.2794 -0.4951
    7MOL   C383 5435   1.537   1.058   6.877  0.1814 -0.4368  0.9959
    7MOL   C384 5436   1.475   0.945   6.788  0.4338 -0.2697  0.2426
    7MOL   C385 5437   1.504   0.802   6.817 -0.6259  0.3673 -0.4076
    7MOL   C386 5438   1.464   0.694   6.723 -0.3790  0.8904 -0.1052
    7MOL   C387 5439   1.546   0.689   6.590 -1.0847  0.0869 -0.2222
    7MOL   C388 5440   1.465   0.597   6.487 -0.5809 -0.3290 -0.0557
    7MOL   C389 5441   1.331   0.656   6.435 -0.1874 -0.9891  0.2512
    7MOL   C390 5442   1.261   0.586   6.314 -0.2670 -0.1686 -0.8778
    7MOL   C391 5443   1.147   0.665   6.243 -0.4021  0.4331  0.0693
    7MOL   C392 5444   1.103   0.586   6.119  0.0964 -0.4716 -0.3597
    7MOL   C393 5445   0.992   0.662   6.045  0.6796  0.5687 -0.2993
    7MOL   H394 5446   1.337   1.370   7.042 -0.3220 -1.3049 -2.0964
    7MOL   H395 5447   1.407   1.222   7.092  1.0822  0.3882  0.5112
    7MOL   H396 5448   1.637   1.292   6.966  1.2289  0.1299 -2.5315
    7MOL   H397 5449   1.517   1.224   6.738 -0.7581  2.9403  0.3544
    7MOL   H398 5450   1.372   1.189   6.836 -1.2267  1.1077 -0.0758
    7MOL   H399 5451   1.517   1.047   6.983  0.7813 -0.8753  1.0632
    7MOL   H400 5452   1.645   1.061   6.861  0.6961  3.6666  4.3646
    7MOL   H401 5453   1.504   0.964   6.684 -0.2903  0.5187  0.1838
    7MOL   H402 5454   1.366   0.947   6.788  0.4015 -0.0961 -2.1986
    7MOL   H403 5455   1.475   0.776   6.919  1.1692  1.8014  0.5049
    7MOL   H404 5456   1.612   0.799   6.832 -0.5845 -0.9406 -0.9511
    7MOL   H405 5457   1.460   0.595   6.768 -0.3617  1.2059  0.5903
    7MOL   H406 5458   1.360   0.709   6.694 -0.8570  0.9819  1.6273
    7MOL   H407 5459   1.550   0.792   6.555  3.5660 -0.4055 -1.4836
    7MOL   H408 5460   1.644   0.648   6.611  0.0558  2.8262  0.0512
    7MOL   H409 5461   1.538   0.570   6.410  0.9952  0.5830  1.0870
    7MOL   H410 5462   1.435   0.503   6.533 -1.4848  1.1141  2.3471
    7MOL   H411 5463   1.358   0.757   6.404 -0.6247 -0.5825  1.1632
    7MOL   H412 5464   1.262   0.693   6.511 -0.0090  1.7687 -0.8585
    7MOL   H413 5465   1.345   0.571   6.246  1.7285  1.4997  1.1457
    7MOL   H414 5466   1.224   0.486   6.338 -1.6662  0.8888  1.4700
    7MOL   H415 5467   1.174   0.768   6.219  2.1895 -0.6621 -1.9388
    7MOL   H416 5468   1.062   0.663   6.312 -0.3721 -2.1579  0.0816
    7MOL   H417 5469   1.192   0.574   6.057  0.0327 -2.2197 -0.1349
    7MOL   H418 5470   1.069   0.485   6.143  1.3978 -0.1283  3.1028
    7MOL   H419 5471   1.021   0.762   6.012 -2.4901  1.0575 -1.7919
    7MOL   H420 5472   0.913   0.678   6.118 -0.2635  0.1311 -1.1993
    7MOL   H421 5473   0.946   0.601   5.967  1.3298 -1.0013  0.5406
    7MOL   C422 5474   1.553   1.440   6.865  0.5639  0.3374  1.1684
    7MOL   C423 5475   1.672   1.450   6.767  0.4398 -0.0670  0.3552
    7MOL   C424 5476   1.649   1.537   6.644  0.2137  0.2720  0.4177
    7MOL   C425 5477   1.596   1.679   6.669  0.2475  0.1282  0.7661
    7MOL   C426 5478   1.601   1.773   6.558  0.5864 -0.8061 -0.0347
    7MOL   C427 5479   1.545   1.908   6.597 -0.0764  0.0006  0.8803
    7MOL   C428 5480   1.644   1.996   6.672 -0.4146  0.2491  0.0966
    7MOL   C429 5481   1.587   2.131   6.715 -0.4313 -0.5060  0.1343
    7MOL   C430 5482   1.703   2.213   6.779  0.5746  0.2856 -0.7216
    7MOL   C431 5483   1.666   2.355   6.827  0.4349  0.3431  0.3605
    7MOL   C432 5484   1.778   2.414   6.912 -0.3887  0.5128  0.0779
    7MOL   C433 5485   1.741   2.555   6.969  0.2971  0.7742 -0.1426
    7MOL   C434 5486   1.649   2.546   7.087 -0.1213  0.9123 -0.3980
    7MOL   C435 5487   1.596   2.678   7.138  0.0259 -0.4249  0.3416
    7MOL   H436 5488   1.541   1.524   6.933 -0.7882  0.1654  1.1404
    7MOL   H437 5489   1.471   1.451   6.794  2.1121 -1.5017 -1.0062
    7MOL   H438 5490   1.690   1.352   6.722 -0.8709  0.3911 -1.2068
    7MOL   H439 5491   1.569   1.498   6.581 -0.6608  0.8269  1.1758
    7MOL   H440 5492   1.739   1.544   6.583  0.2560  1.9792  0.6488
    7MOL   H441 5493   1.494   1.680   6.710 -0.9130 -2.0006 -1.8852
    7MOL   H442 5494   1.656   1.723   6.748  1.0725 -0.5789  0.5386
    7MOL   H443 5495   1.541   1.731   6.476  0.0328 -0.3878  0.1572
    7MOL   H444 5496   1.703   1.774   6.519  1.3179  0.2677  1.9049
    7MOL   H445 5497   1.455   1.895   6.657 -1.3305 -1.8527 -1.3368
    7MOL   H446 5498   1.502   1.971   6.519  1.8716 -0.2455 -0.4289
    7MOL   H447 5499   1.679   1.933   6.754  0.4243 -0.9269 -1.1568
    7MOL   H448 5500   1.727   2.008   6.602  0.1863 -0.4833  0.6810
    7MOL   H449 5501   1.536   2.182   6.633  0.2861  1.2196  0.7385
    7MOL   H450 5502   1.518   2.110   6.796 -0.4899  2.3416  0.8616
    7MOL   H451 5503   1.732   2.155   6.867 -2.5170 -1.7972 -1.0079
    7MOL   H452 5504   1.796   2.225   6.725  0.0559 -2.4328 -2.2903
    7MOL   H453 5505   1.647   2.419   6.741 -1.9194 -1.0166 -0.1689
    7MOL   H454 5506   1.571   2.341   6.877 -0.0033 -0.0329 -0.5626
    7MOL   H455 5507   1.802   2.338   6.986 -1.2508 -0.8275 -0.9701
    7MOL   H456 5508   1.866   2.439   6.853 -0.7529  2.0899  0.1821
    7MOL   H457 5509   1.702   2.620   6.890 -0.9442  1.3737  0.9523
    7MOL   H458 5510   1.831   2.608   6.998  0.1678  0.4869  0.7869
    7MOL   H459 5511   1.563   2.485   7.061  0.6923 -0.1263 -0.6936
    7MOL   H460 5512   1.699   2.481   7.159 -1.8049 -0.2435 -0.2688
    7MOL   H461 5513   1.542   2.720   7.053  2.4550  0.1108 -0.9991
    7MOL   H462 5514   1.674   2.752   7.154 -0.9525  1.8596 -4.4340
    7MOL   H463 5515   1.520   2.667   7.215  0.1879 -1.8575  0.3190
    7MOL   C464 5516   1.807   1.466   6.839  0.0698  0.6633 -0.4229
    7MOL   C465 5517   1.941   1.414   6.777  0.1146 -0.6234 -0.3306
    7MOL   C466 5518   2.068   1.496   6.839 -0.2905  0.3637  0.3519
    7MOL   C467 5519   2.106   1.468   6.987 -0.1860  0.6248  0.7152
    7MOL   C468 5520   2.242   1.510   7.038 -0.1990 -0.2122 -0.6562
    7MOL   C469 5521   2.274   1.474   7.182  0.2717  0.0697  0.1276
    7MOL   C470 5522   2.414   1.486   7.213  0.2857 -0.0322 -0.3686
    7MOL   C471 5523   2.454   1.463   7.364  1.0343  0.2265  0.6264
    7MOL   C472 5524   2.603   1.476   7.397  0.4724 -0.3663  0.4981
    7MOL   C473 5525   2.629   1.437   7.541  0.3048 -0.6784 -0.7566
    7MOL   C474 5526   2.781   1.423   7.579 -0.1574 -0.1477 -0.8160
    7MOL   C475 5527   2.795   1.456   0.033 -0.3546  0.5211 -0.0446
    7MOL   C476 5528   2.714   1.367   0.127  0.1692 -0.2081 -0.1357
    7MOL   C477 5529   2.772   1.375   0.269 -0.1053 -0.1054 -0.3819
    7MOL   H478 5530   1.790   1.410   6.931 -0.3921  0.6072 -0.5420
    7MOL   H479 5531   1.825   1.566   6.880  0.4349 -0.3952  2.0773
    7MOL   H480 5532   1.925   1.439   6.672  1.1569  1.6898  0.0400
    7MOL   H481 5533   2.150   1.474   6.771 -0.4503  1.4682 -0.2074
    7MOL   H482 5534   2.054   1.604   6.833  0.5874  0.4984  0.6580
    7MOL   H483 5535   2.104   1.360   6.988  1.9536  0.5475  2.6322
    7MOL   H484 5536   2.031   1.501   7.059 -1.4876  2.0342 -1.2576
    7MOL   H485 5537   2.249   1.619   7.027  0.7770 -0.0635  1.1996
    7MOL   H486 5538   2.321   1.465   6.978  0.8205 -0.1587  0.6307
    7MOL   H487 5539   2.212   1.541   7.243  0.3995 -1.2022  1.6877
    7MOL   H488 5540   2.248   1.369   7.197 -0.0200  0.0380 -0.5787
    7MOL   H489 5541   2.473   1.417   7.153  1.0837  1.3640 -1.2241
    7MOL   H490 5542   2.453   1.584   7.186 -0.2251  0.0323 -0.8721
    7MOL   H491 5543   2.404   1.537   7.426 -0.0712  0.1634 -0.1627
    7MOL   H492 5544   2.414   1.363   7.382 -0.1918  0.4549 -0.6792
    7MOL   H493 5545   2.657   1.404   7.336  1.3920  0.4498  0.3245
    7MOL   H494 5546   2.644   1.577   7.383 -1.6390  0.0141 -3.4790
    7MOL   H495 5547   2.576   1.508   7.605  0.0293  1.2666 -3.0700
    7MOL   H496 5548   2.583   1.339   7.551 -1.0519 -0.0164 -0.4111
    7MOL   H497 5549   2.833   1.328   7.568  0.3337 -0.0419  0.4826
    7MOL   H498 5550   2.841   1.496   7.525 -0.3034  0.2888 -0.3905
    7MOL   H499 5551   2.779   1.563   0.046  0.7057  0.5441  1.1276
    7MOL   H500 5552   2.899   1.443   0.061 -0.2824 -0.0842 -0.6023
    7MOL   H501 5553   2.611   1.404   0.135  0.2794 -0.1398  1.0609
    7MOL   H502 5554   2.719   1.265   0.090  2.2749 -0.1392 -0.0567
    7MOL   H503 5555   2.791   1.475   0.307 -0.6531 -0.0074 -0.3653
    7MOL   H504 5556   2.716   1.307   0.334  0.0082  0.3113  0.1599
    7MOL   H505 5557   2.873   1.335   0.273  0.1638  0.6515  0.8139
    7MOL   C506 5558   1.949   1.260   6.775 -0.5913 -0.7027 -0.2962
    7MOL   C507 5559   2.080   1.211   6.719  0.0668 -0.1218 -0.2680
    7MOL   C508 5560   2.103   1.057   6.743  0.2906 -1.0562 -0.2163
    7MOL   C509 5561   2.004   0.979   6.838 -0.3113 -0.5728  0.7109
    7MOL   C510 5562   2.040   0.832   6.859  0.7017 -0.1267 -0.8430
    7MOL   C511 5563   1.924   0.759   6.939  0.4255 -0.0546 -0.1390
    7MOL   C512 5564   1.874   0.813   7.075 -0.1963 -0.3007 -0.2026
    7MOL   C513 5565   1.751   0.735   7.141  0.0487  0.5175  0.3103
    7MOL   C514 5566   1.669   0.818   7.242  0.5924 -0.3638  0.5706
    7MOL   C515 5567   1.567   0.735   7.323 -0.2131 -0.4644  0.5254
    7MOL   C516 5568   1.623   0.672   7.443  0.3028 -0.0696 -0.2079
    7MOL   C517 5569   1.503   0.609   7.520  0.2011  0.4590 -0.3498
    7MOL   C518 5570   1.529   0.500   7.622  0.0030 -0.6737  0.1518
    7MOL   C519 5571   1.606   0.383   7.561 -0.1725  0.2189 -0.1300
    7MOL   H520 5572   1.875   1.230   6.700  1.0494 -1.4855 -1.6134
    7MOL   H521 5573   1.907   1.213   6.864  0.4270  1.0079  1.1176
    7MOL   H522 5574   2.163   1.257   6.772  0.1905 -1.6652  0.9223
    7MOL   H523 5575   2.105   1.002   6.649  2.3871 -1.7870  0.2135
    7MOL   H524 5576   2.206   1.045   6.778 -0.1120  1.2032  1.9227
    7MOL   H525 5577   2.019   1.017   6.939  1.0915 -1.4527  0.8577
    7MOL   H526 5578   1.901   0.981   6.803 -0.0126 -0.3282 -0.1695
    7MOL   H527 5579   2.131   0.823   6.917  0.5238 -0.1816 -0.5710
    7MOL   H528 5580   2.048   0.793   6.757  1.5958 -0.8272 -0.5073
    7MOL   H529 5581   1.963   0.658   6.950  1.4005  0.4740  1.4284
    7MOL   H530 5582   1.839   0.754   6.870  1.5757 -1.3591 -1.4881
    7MOL   H531 5583   1.960   0.821   7.141  0.8568 -2.0923 -1.3005
    7MOL   H532 5584   1.834   0.912   7.055  0.4313  0.1987  1.0228
    7MOL   H533 5585   1.767   0.634   7.180  0.7993  0.4091 -0.2661
    7MOL   H534 5586   1.680   0.710   7.062 -0.9296  0.0595  1.3335
    7MOL   H535 5587   1.606   0.888   7.188 -0.0203 -1.4992 -0.2172
    7MOL   H536 5588   1.738   0.871   7.308  0.4546  0.5540 -0.0159
    7MOL   H537 5589   1.485   0.806   7.340 -2.2285 -2.6521  0.1213
    7MOL   H538 5590   1.533   0.660   7.252  0.1776 -1.0939  1.0055
    7MOL   H539 5591   1.703   0.604   7.416  1.4045  0.6085  1.2408
    7MOL   H540 5592   1.680   0.742   7.505 -0.0582 -0.3483  0.4459
    7MOL   H541 5593   1.448   0.550   7.446 -1.0890  0.6636  0.4257
    7MOL   H542 5594   1.438   0.687   7.559 -0.0914 -1.2914  2.7841
    7MOL   H543 5595   1.436   0.463   7.665 -0.4975 -1.7436 -1.7479
    7MOL   H544 5596   1.591   0.532   0.010 -0.5223 -0.1902  0.3586
    7MOL   H545 5597   1.599   0.298   7.629  1.3126 -0.4819 -0.8322
    7MOL   H546 5598   1.553   0.353   7.470 -0.0510  2.0721 -0.8363
    7MOL   H547 5599   1.705   0.400   7.520  0.1753  1.7690  1.2655
    7MOL   C548 5600   2.109   1.239   6.572 -0.5335 -0.0417  0.6195
    7MOL   C549 5601   2.251   1.206   6.522  0.8770  0.9988  0.0017
    7MOL   C550 5602   2.258   1.232   6.367 -0.4437  0.9771 -0.3495
    7MOL   C551 5603   2.328   1.117   6.287  0.1133 -0.1391  0.1421
    7MOL   C552 5604   2.299   1.115   6.133  0.0079  0.3890 -0.1005
    7MOL   C553 5605   2.170   1.045   6.092 -0.6259  0.2586 -0.2740
    7MOL   C554 5606   2.151   1.079   5.940  0.3459  0.3500 -0.4684
    7MOL   C555 5607   2.018   1.037   5.876 -0.1007  0.1268 -0.1342
    7MOL   C556 5608   1.974   0.893   5.905 -0.3233  0.5217 -0.2699
    7MOL   C557 5609   1.850   0.859   5.821  0.3503 -0.1773 -0.0416
    7MOL   C558 5610   1.805   0.715   5.816  0.3834  0.3126  1.1580
    7MOL   C559 5611   1.667   0.706   5.752  0.1680  0.6042 -0.6915
    7MOL   C560 5612   1.571   0.594   5.799  0.2191  0.1977 -0.5383
    7MOL   C561 5613   1.450   0.564   5.714  0.3399 -0.8635 -0.3380
    7MOL   H562 5614   2.034   1.178   6.521  0.1632 -0.4429  0.0661
    7MOL   H563 5615   2.061   1.333   6.544  0.2959  0.3225  0.4098
    7MOL   H564 5616   2.284   1.104   6.543  2.4044  0.9412 -2.4210
    7MOL   H565 5617   2.158   1.245   6.328 -0.7519  1.6941  0.6516
    7MOL   H566 5618   2.305   1.325   6.335  2.2896  0.2213  1.2331
    7MOL   H567 5619   2.303   1.019   6.327  0.7668 -0.3672  0.0093
    7MOL   H568 5620   2.436   1.127   6.301  0.0126  1.1776  0.0614
    7MOL   H569 5621   2.296   1.215   6.091 -0.8573  1.0662  1.5284
    7MOL   H570 5622   2.380   1.058   6.087  1.7314 -0.3078  3.5808
    7MOL   H571 5623   2.092   1.087   6.155 -0.7367  0.7488 -0.7360
    7MOL   H572 5624   2.173   0.937   6.109 -0.4854 -0.0580 -2.2599
    7MOL   H573 5625   2.175   1.184   5.924  2.3304  0.1354  0.9534
    7MOL   H574 5626   2.224   1.022   5.883 -0.0496 -1.0104  0.3626
    7MOL   H575 5627   2.020   1.058   5.769  1.7360  0.5176 -0.0288
    7MOL   H576 5628   1.941   1.097   5.926  2.2357  1.0606  2.4491
    7MOL   H577 5629   1.956   0.871   6.011  2.3900 -0.6870 -0.0260
    7MOL   H578 5630   2.047   0.818   5.875 -0.1530 -0.2449  1.9496
    7MOL   H579 5631   1.769   0.920   5.860  0.5426 -0.4605  0.8134
    7MOL   H580 5632   1.861   0.890   5.716 -2.2635 -1.5195 -0.7256
    7MOL   H581 5633   1.796   0.679   5.919  0.1846 -1.0486  0.6774
    7MOL   H582 5634   1.873   0.649   5.762 -2.9363 -2.4558  0.1448
    7MOL   H583 5635   1.613   0.797   5.779 -0.6446 -0.2737  0.7624
    7MOL   H584 5636   1.675   0.683   5.646 -1.7237  0.0833 -0.7362
    7MOL   H585 5637   1.618   0.497   5.815 -0.5907 -0.0477  0.4051
    7MOL   H586 5638   1.530   0.627   5.894  1.7776  1.7001 -0.3591
    7MOL   H587 5639   1.385   0.646   5.684  2.5478  0.5618 -1.3285
    7MOL   H588 5640   1.495   0.526   5.623  1.4194 -1.9784  0.6502
    7MOL   H589 5641   1.393   0.485   5.763  0.1501 -0.8164 -0.4838
    7MOL   C590 5642   2.352   1.304   6.582 -0.2202 -0.1020  0.6715
    7MOL   C591 5643   2.502   1.273   6.566 -0.1524  0.6520 -0.0511
    7MOL   C592 5644   2.583   1.406   6.564 -0.9004 -0.1626 -0.4042
    7MOL   C593 5645   2.580   1.497   6.440 -0.7349  0.1709  0.1264
    7MOL   C594 5646   2.700   1.581   6.408 -0.1789 -0.2080 -0.2674
    7MOL   C595 5647   2.773   1.643   6.531 -0.0226 -0.0079  0.5139
    7MOL   C596 5648   2.883   1.734   6.473 -0.3207  0.5532 -0.6817
    7MOL   C597 5649   2.981   1.788   6.583 -0.2150 -0.2224 -0.0050
    7MOL   C598 5650   3.107   1.871   6.532  1.0052 -0.0055  0.7997
    7MOL   C599 5651   3.151   1.992   6.618 -0.0403  1.1874 -0.0493
    7MOL   C600 5652   3.261   2.078   6.557 -0.2762 -0.2218  0.4596
    7MOL   C601 5653   3.305   2.193   6.651  0.1959 -0.7038 -0.4145
    7MOL   C602 5654   3.419   2.286   6.593 -0.4371 -0.9407  0.0964
    7MOL   C603 5655   3.462   2.418   6.671 -0.7706 -0.0238 -0.1972
    7MOL   H604 5656   2.336   1.321   6.688 -2.9044 -0.9052  0.4358
    7MOL   H605 5657   2.327   1.399   6.534 -0.4100 -0.4207  0.1352
    7MOL   H606 5658   2.531   1.221   6.475  2.1097  0.3714  0.7971
    7MOL   H607 5659   2.687   1.374   6.576 -0.2213  2.5641  1.5584
    7MOL   H608 5660   2.563   1.456   6.659  1.8093 -1.3036  0.8408
    7MOL   H609 5661   2.493   1.559   6.462 -0.0483  1.4443 -0.7249
    7MOL   H610 5662   2.561   1.438   6.350 -1.7503  0.2538  0.2833
    7MOL   H611 5663   2.656   1.659   6.347 -0.2414  1.5343  1.9365
    7MOL   H612 5664   2.758   1.522   6.338 -1.4227 -1.6804 -0.0800
    7MOL   H613 5665   2.816   1.568   6.598  0.8011  0.5402  0.6193
    7MOL   H614 5666   2.703   1.707   6.585  0.1075  0.7263 -0.1875
    7MOL   H615 5667   2.930   1.691   6.385  0.4546 -0.5080  0.2375
    7MOL   H616 5668   2.830   1.820   6.431  0.8304  0.4730 -2.3143
    7MOL   H617 5669   2.923   1.847   6.654  1.8706  1.1721  0.5893
    7MOL   H618 5670   3.013   1.707   6.648 -1.2912  0.7775  1.8127
    7MOL   H619 5671   3.187   1.796   6.533  2.2220  1.2495 -0.5139
    7MOL   H620 5672   3.087   1.911   6.433  0.9986 -0.1205  0.7537
    7MOL   H621 5673   3.068   2.063   6.617 -1.7283 -0.6994 -3.3149
    7MOL   H622 5674   3.178   1.964   6.720  1.1808  2.1155 -0.1064
    7MOL   H623 5675   3.227   2.118   6.462  0.9331 -1.5231 -0.5474
    7MOL   H624 5676   3.347   2.018   6.526 -0.2762  1.0289 -2.0991
    7MOL   H625 5677   3.323   2.161   6.753  1.2115  1.4411  0.1041
    7MOL   H626 5678   3.216   2.257   6.658  0.6930 -0.0717  0.2420
    7MOL   H627 5679   3.503   2.216   6.601 -0.6758 -1.3401 -0.8675
    7MOL   H628 5680   3.410   2.300   6.486  1.3635  0.2934  0.0767
    7MOL   H629 5681   3.521   2.387   6.757 -0.2043 -2.2877 -1.3483
    7MOL   H630 5682   3.380   2.480   6.708 -0.2646  1.3328 -1.2998
    7MOL   H631 5683   3.528   2.485   6.615  1.1265 -1.7571 -0.0935
    7MOL   C632 5684   2.543   1.175   6.677 -0.2631  0.0142 -0.2507
    7MOL   C633 5685   2.687   1.118   6.683  0.6655  0.3008  0.4269
    7MOL   C634 5686   2.706   1.037   6.810 -0.6948  0.3504 -0.5259
    7MOL   C635 5687   2.726   1.129   6.934 -0.4651  0.2523 -0.7889
    7MOL   C636 5688   2.861   1.199   6.952  0.0187 -0.1284  0.1312
    7MOL   C637 5689   2.885   1.228   7.102  0.1322  1.0538  0.1506
    7MOL   C638 5690   3.001   1.324   7.127 -0.4984  0.3769  0.3148
    7MOL   C639 5691   3.014   1.347   7.277 -0.8875  0.3881 -0.4469
    7MOL   C640 5692   3.128   1.449   7.307 -0.2971  0.0153  0.1682
    7MOL   C641 5693   3.164   1.454   7.459  0.0149 -0.4027  0.4468
    7MOL   C642 5694   3.234   1.333   7.506 -0.0912 -0.0092  0.9215
    7MOL   C643 5695   3.317   1.364   7.635  0.0971 -0.2403 -0.3102
    7MOL   C644 5696   3.415   1.249   7.677  0.3156  0.2907 -0.2374
    7MOL   C645 5697   3.539   1.222   7.585  0.5672  0.3916 -0.6208
    7MOL   H646 5698   2.479   1.088   6.683  0.6604 -0.5156  2.6385
    7MOL   H647 5699   2.530   1.227   6.772 -0.9512  0.3869 -0.5430
    7MOL   H648 5700   2.751   1.205   6.674  1.2647 -0.2193 -0.3268
    7MOL   H649 5701   2.627   0.966   6.830 -0.0703 -0.1946  0.0335
    7MOL   H650 5702   2.795   0.975   6.804 -0.0274  1.2842 -0.4280
    7MOL   H651 5703   2.709   1.060   7.017  0.4215  1.6546  0.6060
    7MOL   H652 5704   2.643   1.198   6.944 -0.8244  0.3418 -3.9098
    7MOL   H653 5705   2.863   1.296   6.903  0.9379  1.7525  3.7416
    7MOL   H654 5706   2.945   1.137   6.919  0.7395  0.3281  1.0637
    7MOL   H655 5707   2.798   1.266   7.156  0.3576 -0.1950  1.4068
    7MOL   H656 5708   2.915   1.133   7.145 -1.2345 -0.6877 -2.5762
    7MOL   H657 5709   3.096   1.277   7.101 -0.3708 -0.0624  1.5623
    7MOL   H658 5710   2.990   1.414   7.067 -0.4681 -1.7019 -2.9241
    7MOL   H659 5711   3.048   1.250   7.315  1.7596  1.5063  0.1233
    7MOL   H660 5712   2.928   1.378   7.336 -0.4580 -0.0947  0.4460
    7MOL   H661 5713   3.093   1.549   7.280  0.5089  0.4346  0.6763
    7MOL   H662 5714   3.209   1.434   7.236  0.6516  0.3480  1.1655
    7MOL   H663 5715   3.231   1.538   7.473 -1.6699  0.8856  0.9543
    7MOL   H664 5716   3.076   1.464   7.523 -1.3192  0.1998 -1.4149
    7MOL   H665 5717   3.152   1.262   7.520  0.7168 -0.9878  0.7765
    7MOL   H666 5718   3.309   1.299   7.434 -0.1668  0.6512  0.5322
    7MOL   H667 5719   3.253   1.367   0.028  1.8352 -2.4780  1.0650
    7MOL   H668 5720   3.364   1.461   7.622 -0.3048  0.1628  1.0803
    7MOL   H669 5721   3.358   1.156   7.678 -0.1487  0.5318 -2.1588
    7MOL   H670 5722   3.456   1.277   0.079  2.5722  0.8827 -1.3167
    7MOL   H671 5723   3.586   1.128   7.617  0.6747  1.6454  3.1739
    7MOL   H672 5724   3.516   1.207   7.479  0.1786 -1.0185 -0.3578
    7MOL   H673 5725   3.620   1.295   7.590  1.0324 -0.2180  1.1551
    7MOL   C674 5726   2.717   1.022   6.557 -0.7266  0.1651  0.3479
    7MOL   C675 5727   2.862   0.972   6.554  0.3795  0.5180  0.0541
    7MOL   C676 5728   2.876   0.820   6.593  0.2203 -0.3962  0.3461
    7MOL   C677 5729   3.016   0.781   6.644 -0.1579  0.0060  0.6684
    7MOL   C678 5730   3.051   0.824   6.783 -0.0155 -0.1681  0.0314
    7MOL   C679 5731   3.190   0.792   6.832  0.3112  0.1438  1.3404
    7MOL   C680 5732   3.240   0.893   6.942 -0.0579  0.5467  0.4326
    7MOL   C681 5733   3.390   0.872   6.984 -0.5224 -0.3758  0.1907
    7MOL   C682 5734   3.438   0.983   7.076 -0.6007  0.5757  0.2100
    7MOL   C683 5735   3.467   1.119   7.011  0.1013 -0.0756 -0.3490
    7MOL   C684 5736   3.526   1.225   7.112 -0.4417 -0.4906 -1.4878
    7MOL   C685 5737   3.546   1.367   7.067 -0.1286 -0.6553  0.2897
    7MOL   C686 5738   3.544   1.469   7.179  0.0355 -0.2248  0.2032
    7MOL   C687 5739   3.602   1.607   7.135  0.3538 -0.3388  1.0310
    7MOL   H688 5740   2.689   1.084   6.472  2.9061 -0.1256 -1.1746
    7MOL   H689 5741   2.646   0.940   6.553  0.0053 -0.5070  0.8680
    7MOL   H690 5742   2.920   1.027   6.628 -0.4283  0.9931  0.3535
    7MOL   H691 5743   2.796   0.788   6.661 -1.9783  1.9881 -1.0096
    7MOL   H692 5744   2.854   0.758   6.507 -3.7093  0.6124  0.5190
    7MOL   H693 5745   3.005   0.673   6.640 -4.0825  0.3855 -0.2448
    7MOL   H694 5746   3.087   0.821   6.572 -1.3871  3.3140  1.2137
    7MOL   H695 5747   3.040   0.932   6.769  0.0496 -0.3765 -1.7404
    7MOL   H696 5748   2.985   0.794   6.865 -0.9505  0.0169 -0.6520
    7MOL   H697 5749   3.196   0.695   6.880  0.0042 -0.2653  0.5580
    7MOL   H698 5750   3.260   0.784   6.748  1.5138 -0.4699  2.3866
    7MOL   H699 5751   3.224   0.998   6.917 -1.0779  0.5747  1.1640
    7MOL   H700 5752   3.178   0.872   7.029  1.6705 -0.8050  1.3554
    7MOL   H701 5753   3.406   0.774   7.029  1.0311 -1.0360 -1.7326
    7MOL   H702 5754   3.452   0.866   6.895 -0.0547 -1.1101  0.5569
    7MOL   H703 5755   3.361   1.008   7.150  0.2185 -0.5282  1.4634
    7MOL   H704 5756   3.526   0.946   7.130 -1.0422 -0.1508  0.4391
    7MOL   H705 5757   3.373   1.160   6.974  0.8502  0.6579 -1.4559
    7MOL   H706 5758   3.518   1.116   6.915 -3.8630 -3.9607 -2.5299
    7MOL   H707 5759   3.627   1.203   7.145 -0.2817  0.7904 -1.1165
    7MOL   H708 5760   3.467   1.224   7.203 -0.1492 -1.9613 -1.2993
    7MOL   H709 5761   3.460   1.406   7.012 -0.1523  0.0729  0.8383
    7MOL   H710 5762   3.636   1.379   7.006 -0.0657 -0.1645  0.4787
    7MOL   H711 5763   3.444   1.481   7.222  0.9671  0.1102  2.3492
    7MOL   H712 5764   3.587   1.430   7.271 -2.7152  0.2857  1.7747
    7MOL   H713 5765   3.711   1.613   7.126  0.1984 -0.0558 -0.7340
    7MOL   H714 5766   3.555   1.645   7.045  0.4669  1.8927  1.8769
    7MOL   H715 5767   3.585   1.681   7.213 -2.1468  1.2445 -0.9339
    7MOL   C716 5768   2.931   1.004   6.410 -0.1791  0.4780  0.3544
    7MOL   C717 5769   2.954   1.147   6.370 -0.0238 -0.3571 -0.3370
    7MOL   C718 5770   3.058   1.223   6.460 -0.4967 -0.9759 -0.3643
    7MOL   C719 5771   3.001   1.296   6.586 -0.8049 -0.0362  0.7382
    7MOL   C720 5772   3.106   1.392   6.640  0.7499  0.2423  0.4179
    7MOL   C721 5773   3.085   1.462   6.776 -0.0950 -0.0881  0.8218
    7MOL   C722 5774   3.193   1.574   6.796  0.2031  0.2966  0.1831
    7MOL   C723 5775   3.154   1.663   6.911 -0.0111  0.3138 -0.3296
    7MOL   C724 5776   3.261   1.756   6.953  0.4582  0.1007 -0.0123
    7MOL   C725 5777   3.238   1.843   7.077 -0.0963 -0.6924  0.1804
    7MOL   C726 5778   3.309   1.979   7.077 -0.0148  0.2099 -0.0098
    7MOL   C727 5779   3.459   1.979   7.044 -0.0889 -0.8398  1.0923
    7MOL   C728 5780   3.521   2.120   7.038 -0.3545 -0.0402  0.4113
    7MOL   C729 5781   3.475   2.224   7.139  0.1201 -0.2782  0.1407
    7MOL   H730 5782   3.023   0.948   6.395 -0.4750  0.5420 -1.8329
    7MOL   H731 5783   2.855   0.974   6.338  1.0904 -1.1181 -0.3438
    7MOL   H732 5784   2.860   1.200   6.386 -1.4267 -2.4112 -1.5582
    7MOL   H733 5785   3.087   1.311   6.402  0.3624 -1.9682 -1.4702
    7MOL   H734 5786   3.149   1.167   6.481  0.2261 -0.5062 -2.0771
    7MOL   H735 5787   2.910   1.345   6.552 -0.0772 -0.5149 -2.0380
    7MOL   H736 5788   2.976   1.233   6.671  1.1729  0.6574  1.8762
    7MOL   H737 5789   3.195   1.331   6.657  0.5718 -0.2655 -0.4392
    7MOL   H738 5790   3.125   1.471   6.568 -0.7305 -0.7456 -1.1014
    7MOL   H739 5791   2.984   1.501   6.773  0.5273  1.4777 -1.1153
    7MOL   H740 5792   3.087   1.389   6.857 -0.4616 -1.6640 -0.5579
    7MOL   H741 5793   3.282   1.521   6.832 -0.6100 -1.1736  0.0623
    7MOL   H742 5794   3.223   1.633   6.710  1.9103 -0.9964 -0.1541
    7MOL   H743 5795   3.124   1.593   6.988 -0.2473  1.0597  0.2654
    7MOL   H744 5796   3.070   1.730   6.889 -1.2121 -0.6060  1.3571
    7MOL   H745 5797   3.346   1.689   6.966  0.0349 -0.5674 -0.6567
    7MOL   H746 5798   3.294   1.825   6.876 -2.3820  1.2798 -0.2070
    7MOL   H747 5799   3.135   1.867   7.101  0.3430  0.5213  0.8891
    7MOL   H748 5800   3.260   1.799   7.175 -0.5026 -1.1596  0.0657
    7MOL   H749 5801   3.259   2.042   7.004  0.8605 -1.1186 -1.7916
    7MOL   H750 5802   3.298   2.016   7.179 -2.3589 -3.1951  1.1001
    7MOL   H751 5803   3.507   1.921   7.122  2.1829 -0.9154 -0.3426
    7MOL   H752 5804   3.474   1.914   6.958 -0.2342  0.1672  0.2911
    7MOL   H753 5805   3.485   2.150   6.940 -2.5919  0.3519  1.3282
    7MOL   H754 5806   3.630   2.115   7.040 -0.3549  0.2052  1.1440
    7MOL   H755 5807   3.510   2.188   7.236  1.1303  1.2198  0.3586
    7MOL   H756 5808   3.367   2.234   7.141  0.1436 -0.0620  3.7976
    7MOL   H757 5809   3.521   2.316   7.103 -1.9785  0.8250  0.2168
    7MOL   C758 5810   2.990   1.163   6.220  0.8520 -0.0131 -0.6039
    7MOL   C759 5811   2.922   1.284   6.138  0.7542  0.0412  0.0981
    7MOL   C760 5812   3.022   1.319   6.021  0.0369  0.7776 -0.7332
    7MOL   C761 5813   3.171   1.367   6.052 -0.0486  0.7788 -0.4498
    7MOL   C762 5814   3.174   1.506   6.123 -0.1232 -1.1709 -0.2008
    7MOL   C763 5815   3.318   1.566   6.134 -0.1906 -0.0394  0.0255
    7MOL   C764 5816   3.317   1.701   6.210  0.3717  0.2770  0.6522
    7MOL   C765 5817   3.445   1.777   6.191  0.5866 -0.0800  0.0164
    7MOL   C766 5818   3.446   1.911   6.272 -0.0935  0.3486 -0.3107
    7MOL   C767 5819   3.596   1.948   6.282  0.1774  0.0134 -0.1321
    7MOL   C768 5820   3.600   2.076   6.373  0.4381  0.5061 -0.5276
    7MOL   C769 5821   3.741   2.142   6.386  0.6431 -0.4623 -0.4084
    7MOL   C770 5822   3.747   2.266   6.480 -0.0871  0.3430  0.0358
    7MOL   C771 5823   3.883   2.338   6.452 -0.1284 -0.0423 -0.7623
    7MOL   H772 5824   3.098   1.164   6.207  0.6983 -1.7091 -2.1398
    7MOL   H773 5825   2.950   1.081   6.160 -1.0307  0.0323  0.5330
    7MOL   H774 5826   2.923   1.377   6.195  2.3194 -0.0309  0.2201
    7MOL   H775 5827   3.027   1.234   5.953  3.2497 -0.6413  1.1498
    7MOL   H776 5828   2.985   1.402   5.961  0.8889  0.6861 -1.4061
    7MOL   H777 5829   3.219   1.289   6.111 -0.2033  0.7722 -0.3336
    7MOL   H778 5830   3.229   1.362   5.960  0.3563 -1.4931 -0.0844
    7MOL   H779 5831   3.122   1.498   6.218 -0.4469  0.8329 -0.1784
    7MOL   H780 5832   3.124   1.580   6.061 -1.1570  0.3595  2.3701
    7MOL   H781 5833   3.363   1.564   6.034  2.5747 -2.4946  1.2354
    7MOL   H782 5834   3.384   1.505   6.196  0.0709 -1.0293 -1.2047
    7MOL   H783 5835   3.244   1.765   6.162  0.1700 -0.2739  0.2118
    7MOL   H784 5836   3.299   1.685   6.316  1.7774 -0.9509  0.7292
    7MOL   H785 5837   3.468   1.806   6.088 -2.9836  1.1199 -0.5488
    7MOL   H786 5838   3.527   1.711   6.217  0.6888  0.4623  1.0920
    7MOL   H787 5839   3.406   1.899   6.372  0.5318 -0.0294 -0.0996
    7MOL   H788 5840   3.378   1.977   6.219  1.1589  1.3423 -0.7000
    7MOL   H789 5841   3.622   1.967   6.178  0.6270 -1.2196 -0.2526
    7MOL   H790 5842   3.664   1.875   6.326 -1.2145 -2.3221 -1.8123
    7MOL   H791 5843   3.529   2.152   6.340 -0.0818 -0.2661 -1.1967
    7MOL   H792 5844   3.571   2.048   6.474  0.0345 -0.7655 -0.9866
    7MOL   H793 5845   3.817   2.072   6.418  1.7058  0.2514 -1.3516
    7MOL   H794 5846   3.760   2.172   6.283  0.7570 -0.6024 -0.4277
    7MOL   H795 5847   3.663   2.334   6.466 -0.5860 -0.6160 -1.7872
    7MOL   H796 5848   3.749   2.225   6.580  0.6557 -1.0098 -0.5214
    7MOL   H797 5849   3.885   2.383   6.353  0.3617 -0.1866 -0.8190
    7MOL   H798 5850   3.909   2.413   6.527  1.4972 -0.4708 -0.8854
    7MOL   H799 5851   3.972   2.276   6.455 -1.1719 -1.5795 -0.7743
    7MOL   C800 5852   2.782   1.246   6.082 -0.4477 -0.6489  0.0250
    7MOL   C801 5853   2.711   1.372   6.031  0.5011  0.5862  0.4807
    7MOL   C802 5854   2.555   1.359   6.031 -0.2300 -0.0132 -0.1438
    7MOL   C803 5855   2.489   1.502   6.020  0.3647  0.2658 -0.0697
    7MOL   C804 5856   2.337   1.497   6.042 -0.1899 -0.1216  0.5369
    7MOL   C805 5857   2.269   1.632   6.031  0.1161  0.2899 -0.4627
    7MOL   C806 5858   2.122   1.618   6.082  0.3298  0.5440 -0.3722
    7MOL   C807 5859   2.053   1.753   6.075 -0.2909  0.1041  0.0328
    7MOL   C808 5860   1.910   1.754   6.120  0.1221  0.0429 -0.7040
    7MOL   C809 5861   1.838   1.885   6.089  0.2282  0.2844 -0.2612
    7MOL   C810 5862   1.707   1.896   6.166 -0.6941  0.3748 -0.0014
    7MOL   C811 5863   1.636   2.023   6.122 -0.9167 -0.8916  0.4174
    7MOL   C812 5864   1.508   2.045   6.202 -0.0591  0.3847  0.6699
    7MOL   C813 5865   1.442   2.186   6.183 -0.4690 -0.7963 -0.1212
    7MOL   H814 5866   2.715   1.208   6.159 -0.1381  0.6561  0.9479
    7MOL   H815 5867   2.796   1.179   5.997  1.0853  0.8935 -0.9660
    7MOL   H816 5868   2.748   1.403   5.933  3.4711 -1.8824  0.7270
    7MOL   H817 5869   2.521   1.317   6.125  0.1227  3.3356  1.5366
    7MOL   H818 5870   2.519   1.281   5.962 -1.3972  0.0665  0.3600
    7MOL   H819 5871   2.515   1.537   5.920  1.1595 -1.7059 -0.5993
    7MOL   H820 5872   2.528   1.563   6.102 -1.8584 -0.0708  1.2643
    7MOL   H821 5873   2.289   1.438   5.964 -0.4024  0.3223  0.3254
    7MOL   H822 5874   2.311   1.450   6.137 -2.8373 -0.7039 -0.4397
    7MOL   H823 5875   2.272   1.671   5.929  2.1277  1.3358 -0.0053
    7MOL   H824 5876   2.320   1.703   6.095 -0.9353  0.8030 -0.1687
    7MOL   H825 5877   2.073   1.538   6.028 -0.7985  1.6099 -0.9369
    7MOL   H826 5878   2.117   1.579   6.184 -0.2993  2.0246  0.1653
    7MOL   H827 5879   2.112   1.832   6.122 -2.4779  0.7374  1.8236
    7MOL   H828 5880   2.046   1.772   5.968  0.6994  0.3099  0.0015
    7MOL   H829 5881   1.856   1.680   6.061 -0.2482  0.7506 -1.2568
    7MOL   H830 5882   1.892   1.727   6.224 -0.0014 -1.1133 -1.0135
    7MOL   H831 5883   1.823   1.897   5.982  1.2782 -2.5173 -0.7629
    7MOL   H832 5884   1.906   1.965   6.120  2.0252 -1.0353 -0.7346
    7MOL   H833 5885   1.643   1.809   6.148 -1.3102  0.5275  1.3493
    7MOL   H834 5886   1.723   1.896   6.274 -1.0970  1.1947  0.0617
    7MOL   H835 5887   1.608   2.033   6.017 -1.5292  0.8286  0.7279
    7MOL   H836 5888   1.705   2.103   6.149 -0.6032  0.0450 -2.9655
    7MOL   H837 5889   1.428   1.984   6.160  0.2011  1.4697 -1.4984
    7MOL   H838 5890   1.509   2.007   6.304 -0.4577 -0.3783  0.3965
    7MOL   H839 5891   1.444   2.225   6.081  2.6595  2.2028  0.9869
    7MOL   H840 5892   1.338   2.193   6.212 -0.2971 -0.3053  0.3721
    7MOL   H841 5893   1.488   2.249   6.259 -0.2712 -1.0351 -0.0395
    7MOL   H842 5894   2.725   1.450   6.106  1.4180  1.6448 -0.7392
    8MOL     C1 5895   0.624   0.277   2.108 -0.5917 -0.4361 -0.2293
    8MOL     C2 5896   0.581   0.215   1.975 -0.6322  0.4960 -1.2059
    8MOL     C3 5897   0.709   0.159   1.908  0.2767  0.6881 -0.1318
    8MOL     C4 5898   0.801   0.277   1.855  0.7455  0.1701 -0.3700
    8MOL     C5 5899   0.907   0.233   1.752 -0.3805  0.6974  0.0870
    8MOL     C6 5900   1.008   0.335   1.700 -0.1995 -0.5681  0.0357
    8MOL     C7 5901   1.084   0.281   1.582 -0.9284 -0.5601  0.0442
    8MOL     C8 5902   1.192   0.377   1.533  0.2144 -0.4700  0.4040
    8MOL     C9 5903   1.265   0.334   1.406 -0.1585 -0.8294 -0.4173
    8MOL    C10 5904   1.186   0.338   1.272 -0.4295  0.5121  0.2358
    8MOL    C11 5905   1.136   0.481   1.235  0.4517  1.3048  0.2585
    8MOL    C12 5906   1.032   0.486   1.121 -0.2263 -0.7652 -0.3977
    8MOL    C13 5907   0.962   0.624   1.121  0.2077 -0.1747 -0.0855
    8MOL    C14 5908   0.855   0.638   1.013 -0.5077  0.1670 -0.6465
    8MOL    H15 5909   0.690   0.359   2.082 -1.6416  0.7488  0.7402
    8MOL    H16 5910   0.676   0.210   2.176  0.6635  1.6274  0.8992
    8MOL    H17 5911   0.533   0.292   1.914 -0.8750  0.3069 -1.2502
    8MOL    H18 5912   0.756   0.087   1.975 -1.0620 -1.1551 -1.1268
    8MOL    H19 5913   0.681   0.100   1.820 -0.0307  2.0937 -1.0037
    8MOL    H20 5914   0.846   0.337   1.934  0.8993 -0.0365 -0.3008
    8MOL    H21 5915   0.734   0.342   1.799  3.4877  2.6325 -0.9035
    8MOL    H22 5916   0.861   0.196   1.661  0.9575 -0.9158  0.0515
    8MOL    H23 5917   0.959   0.147   1.794 -1.4567  0.1686  0.3385
    8MOL    H24 5918   1.070   0.364   1.785 -0.3732  1.2638 -0.4449
    8MOL    H25 5919   0.953   0.425   1.672 -0.4946 -0.8942 -0.4366
    8MOL    H26 5920   1.137   0.195   1.623  1.0790 -0.2512 -1.8394
    8MOL    H27 5921   1.015   0.249   1.503 -1.7904  0.0970  0.5279
    8MOL    H28 5922   1.269   0.374   1.610  1.2819 -3.2778 -0.7081
    8MOL    H29 5923   1.164   0.481   1.516  1.2634 -0.3727 -0.8377
    8MOL    H30 5924   1.344   0.406   1.388 -0.8790 -0.0237 -0.3869
    8MOL    H31 5925   1.313   0.237   1.422  1.8687  0.1157 -0.6415
    8MOL    H32 5926   1.240   0.301   1.184  0.3550 -0.7928  1.2587
    8MOL    H33 5927   1.101   0.271   1.279  0.2309 -0.5550 -1.5352
    8MOL    H34 5928   1.088   0.521   1.324  1.0065  0.7954  0.7951
    8MOL    H35 5929   1.216   0.551   1.210  1.0635  0.5066 -0.0716
    8MOL    H36 5930   0.959   0.405   1.131 -0.7094 -0.0442  2.0832
    8MOL    H37 5931   1.084   0.466   1.027 -1.6694 -1.0073 -1.1749
    8MOL    H38 5932   0.917   0.651   1.216 -0.2584 -0.1541 -0.3098
    8MOL    H39 5933   1.035   0.704   1.106  0.1911 -0.1651 -0.1146
    8MOL    H40 5934   0.777   0.567   1.039 -1.5699  2.1417  1.8463
    8MOL    H41 5935   0.810   0.738   1.011 -1.4678 -0.2511 -0.3674
    8MOL    H42 5936   0.884   0.601   0.915 -0.3036  1.5076 -1.1035
    8MOL    H43 5937   0.547   0.326   2.168  1.6359  0.0329  2.3313
    8MOL    C44 5938   0.478   0.104   2.003  0.0176 -0.0554  0.1009
    8MOL    C45 5939   0.378   0.067   1.891 -0.1623  0.0551  0.3801
    8MOL    C46 5940   0.279   0.177   1.840 -0.6852 -0.2587  0.1392
    8MOL    C47 5941   0.216   0.154   1.699 -0.1335  0.2023 -0.1268
    8MOL    C48 5942   0.152   0.283   1.639  0.1055 -0.0765 -0.7910
    8MOL    C49 5943   0.083   0.270   1.503 -0.2190  0.4431 -0.4986
    8MOL    C50 5944   0.047   0.399   1.427 -0.0099 -0.2770 -0.1571
    8MOL    C51 5945   0.003   0.375   1.286 -0.0443 -0.2878 -0.1630
    8MOL    C52 5946   7.637   0.493   1.213 -0.2669 -0.5133  0.1504
    8MOL    C53 5947   0.052   0.593   1.180 -0.2278 -0.2808 -0.7888
    8MOL    C54 5948   7.679   0.713   1.102 -0.6601 -0.6407  0.3133
    8MOL    C55 5949   0.085   0.824   1.056  0.5759  0.1522 -0.2913
    8MOL    C56 5950   0.023   0.960   1.010 -0.8304 -0.8378 -0.4053
    8MOL    C57 5951   0.104   1.039   0.900  0.4696  0.4049 -0.1317
    8MOL    H58 5952   0.528   0.018   2.049  0.4496  0.5003  0.6856
    8MOL    H59 5953   0.414   0.141   2.083 -0.5477  2.9801 -1.6724
    8MOL    H60 5954   0.440   0.040   1.806 -0.5435 -1.3459  0.5433
    8MOL    H61 5955   0.201   0.187   1.915 -1.0830  1.0336 -0.4229
    8MOL    H62 5956   0.327   0.275   1.836 -1.3242  0.0177 -1.4194
    8MOL    H63 5957   0.150   0.068   1.703 -0.0396  0.1590  0.4992
    8MOL    H64 5958   0.305   0.130   1.641  0.3216 -0.4640  0.8312
    8MOL    H65 5959   0.223   0.365   1.631  0.8538 -0.8888 -2.9081
    8MOL    H66 5960   0.082   0.328   1.709  1.1980 -0.8129  0.8196
    8MOL    H67 5961   0.133   0.199   1.437 -1.1490 -1.3872  0.7311
    8MOL    H68 5962   7.684   0.224   1.529  1.6235 -0.7821  4.7269
    8MOL    H69 5963   7.659   0.456   1.468  0.7480  1.2919 -0.7401
    8MOL    H70 5964   0.123   0.477   1.431 -0.1687 -0.1658  0.7117
    8MOL    H71 5965   7.624   0.297   1.270 -1.3527  1.0974 -1.0480
    8MOL    H72 5966   0.089   0.344   1.226  0.4837  0.2404  0.3164
    8MOL    H73 5967   7.597   0.460   1.117  0.6678 -1.5450  0.1112
    8MOL    H74 5968   7.555   0.528   1.275 -1.2919  0.6353 -1.7826
    8MOL    H75 5969   0.127   0.544   1.118  1.6375  1.5380 -0.0409
    8MOL    H76 5970   0.106   0.632   1.267  2.5155 -4.7267 -0.3260
    8MOL    H77 5971   7.599   0.757   1.162 -1.1372 -0.5977 -0.3451
    8MOL    H78 5972   7.631   0.674   1.012 -0.9116 -1.2109  0.6860
    8MOL    H79 5973   0.148   0.850   1.141  0.0783  1.2518 -0.2505
    8MOL    H80 5974   0.155   0.787   0.981  2.9822 -0.0143  1.9577
    8MOL    H81 5975   0.007   1.024   1.097  2.4850  1.5484 -1.4276
    8MOL    H82 5976   7.624   0.931   0.964 -0.5364 -0.1266 -1.4739
    8MOL    H83 5977   0.037   1.118   0.867  0.8819  0.9936  0.4322
    8MOL    H84 5978   0.130   0.984   0.810  0.9344 -1.5883  1.1733
    8MOL    H85 5979   0.191   1.087   0.946  0.6002  1.1849 -1.1953
    8MOL    C86 5980   0.291   7.636   1.925  0.1900 -0.0895  0.5840
    8MOL    C87 5981   0.375   7.506   1.963  0.2260  0.3373 -0.5343
    8MOL    C88 5982   0.511   7.489   1.885 -0.7920 -0.4801  0.3054
    8MOL    C89 5983   0.497   7.465   1.733  0.3663  0.0320  0.2430
    8MOL    C90 5984   0.611   7.529   1.645  0.2774 -0.8887 -0.5258
    8MOL    C91 5985   0.578   7.542   1.493 -0.1691 -0.2189 -0.4551
    8MOL    C92 5986   0.484   7.666   1.467 -0.2710 -0.3795 -0.2258
    8MOL    C93 5987   0.575   0.085   1.470 -0.2351  0.5864 -0.3838
    8MOL    C94 5988   0.511   0.215   1.428 -0.0625 -0.3390 -0.0187
    8MOL    C95 5989   0.611   0.334   1.414 -0.3275  0.0203  0.1578
    8MOL    C96 5990   0.537   0.469   1.369  0.0843 -0.5602  0.0572
    8MOL    C97 5991   0.512   0.477   1.221  0.9812 -0.1152 -0.1294
    8MOL    C98 5992   0.451   0.612   1.173 -0.1644 -0.3134 -0.1058
    8MOL    C99 5993   0.425   0.616   1.026 -0.3581 -0.1651  0.1737
    8MOL   H100 5994   0.221   7.665   2.003  0.5982  1.7768  0.2702
    8MOL   H101 5995   0.222   7.615   1.843 -0.2111  0.3646  0.8022
    8MOL   H102 5996   0.393   7.531   2.067  2.2899  1.2619 -1.0997
    8MOL   H103 5997   0.583   7.569   1.903 -1.1089 -0.1248  0.0112
    8MOL   H104 5998   0.559   7.410   1.942 -1.7416 -0.6886  0.8191
    8MOL   H105 5999   0.497   7.357   1.714 -2.3432  0.2560 -1.2150
    8MOL   H106 6000   0.404   7.507   1.695  1.6251  0.4855 -2.4567
    8MOL   H107 6001   0.690   7.454   1.643  0.5819 -0.6161  0.8891
    8MOL   H108 6002   0.647   7.617   1.698 -0.5380 -1.1422  0.4704
    8MOL   H109 6003   0.529   7.449   1.463  0.4095 -1.0853  1.2221
    8MOL   H110 6004   0.665   7.537   1.428 -0.0111 -0.4031 -0.2297
    8MOL   H111 6005   0.438   7.665   1.368  0.0763  0.0035 -0.3895
    8MOL   H112 6006   0.413   7.669   1.549  1.1566 -1.2426  1.0681
    8MOL   H113 6007   0.661   0.071   1.405  0.3291  1.5507  0.1527
    8MOL   H114 6008   0.624   0.098   1.566 -1.3091  2.6876 -0.0986
    8MOL   H115 6009   0.478   0.197   1.326  0.2160  1.2997 -0.4117
    8MOL   H116 6010   0.427   0.240   1.493 -1.5662 -2.6387 -1.0034
    8MOL   H117 6011   0.689   0.322   1.339 -1.2646  1.8382 -1.1327
    8MOL   H118 6012   0.675   0.351   1.500 -0.7022 -0.7519  0.5954
    8MOL   H119 6013   0.447   0.472   1.431 -1.4403  1.6370 -2.1961
    8MOL   H120 6014   0.597   0.557   1.393 -3.0804  1.2480  1.7777
    8MOL   H121 6015   0.600   0.445   1.165  0.6966  0.8122 -1.1266
    8MOL   H122 6016   0.441   0.398   1.196 -0.3734  0.6105  1.2875
    8MOL   H123 6017   0.533   0.681   1.192  0.7662 -1.5617  0.4991
    8MOL   H124 6018   0.361   0.648   1.223 -1.3514  0.5398 -2.7357
    8MOL   H125 6019   0.340   0.556   0.993 -1.5623  1.6765 -0.1935
    8MOL   H126 6020   0.390   0.716   0.996  0.1094 -0.2910 -0.8316
    8MOL   H127 6021   0.513   0.583   0.971 -1.5699 -1.5618 -0.9743
    8MOL   C128 6022   0.291   7.374   1.982  0.0889 -0.0019  0.3859
    8MOL   C129 6023   0.213   7.343   2.118  0.3413  0.3686  0.0428
    8MOL   C130 6024   0.302   7.294   2.229  0.4627 -0.8100  0.5754
    8MOL   C131 6025   0.388   7.172   2.195 -0.7770  0.3749  0.1023
    8MOL   C132 6026   0.458   7.101   2.312  0.4072  0.5143 -0.1284
    8MOL   C133 6027   0.560   7.191   2.382 -0.8586  0.0915  0.0928
    8MOL   C134 6028   0.631   7.107   2.493  0.1293 -0.1654  0.2917
    8MOL   C135 6029   0.755   7.180   2.549 -0.0951  0.1554 -0.0393
    8MOL   C136 6030   0.877   7.177   2.455  0.5232  0.4480  0.6527
    8MOL   C137 6031   0.995   7.244   2.517 -0.1795  0.0594 -0.0190
    8MOL   C138 6032   1.111   7.257   2.420 -0.7621  0.3750  0.3933
    8MOL   C139 6033   1.231   7.334   2.483 -0.3071  0.4732 -0.0920
    8MOL   C140 6034   1.368   7.319   2.404 -0.2735  0.9297  0.2427
    8MOL   C141 6035   1.483   7.391   2.474  0.5170 -0.1312  0.6340
    8MOL   H142 6036   0.209   7.369   1.910  0.5690 -0.0225 -0.1645
    8MOL   H143 6037   0.352   7.288   1.956 -2.6449 -1.9404  0.2620
    8MOL   H144 6038   0.135   7.269   2.099  1.3837 -0.8759  0.5313
    8MOL   H145 6039   0.371   7.371   2.263 -0.3442  0.0610  0.2795
    8MOL   H146 6040   0.238   7.258   2.310 -2.5525  0.1488 -1.2991
    8MOL   H147 6041   0.336   7.094   2.139  1.9568 -0.4776 -1.3263
    8MOL   H148 6042   0.465   7.207   2.127 -1.9015  0.0554 -1.3592
    8MOL   H149 6043   0.378   7.063   2.376  0.7585  0.8810  0.5385
    8MOL   H150 6044   0.516   7.019   2.271  0.1302  1.2720 -2.0712
    8MOL   H151 6045   0.627   7.218   2.301  0.4696  0.2802  1.2371
    8MOL   H152 6046   0.515   7.277   2.432  1.3134  0.6302  1.1614
    8MOL   H153 6047   0.563   7.085   2.576 -0.9309 -0.7020 -0.6891
    8MOL   H154 6048   0.666   7.015   2.446  3.5229  1.2733 -0.0955
    8MOL   H155 6049   0.722   7.281   2.572 -0.9595 -0.2791  0.6900
    8MOL   H156 6050   0.792   7.133   2.640 -0.9375 -2.5547 -1.0259
    8MOL   H157 6051   0.896   7.071   2.437  3.0831  0.7709  1.2850
    8MOL   H158 6052   0.854   7.212   2.354 -1.4029 -1.0358  0.5417
    8MOL   H159 6053   1.024   7.181   2.601 -0.2291  2.7434  2.1225
    8MOL   H160 6054   0.957   7.339   2.556  0.2144 -0.7353  2.3683
    8MOL   H161 6055   1.145   7.158   2.386 -1.7033 -0.2615  1.2966
    8MOL   H162 6056   1.071   7.301   2.329 -0.6127  1.0075  0.6303
    8MOL   H163 6057   1.197   7.436   2.495 -1.4613 -0.2057  2.7703
    8MOL   H164 6058   1.259   7.299   2.583 -1.0543  0.9402  0.2860
    8MOL   H165 6059   1.398   7.215   2.391 -2.3731  0.6492 -2.9293
    8MOL   H166 6060   1.358   7.353   2.301 -1.7832 -1.1959 -0.3451
    8MOL   H167 6061   1.529   7.334   2.555 -0.1319 -0.6794  0.6237
    8MOL   H168 6062   1.564   7.391   2.401  0.7192  0.4250  0.8603
    8MOL   H169 6063   1.463   7.497   2.487 -0.3508 -0.0731 -1.0946
    8MOL   C170 6064   0.133   7.465   2.171  0.1995  0.1196  0.1001
    8MOL   C171 6065   0.021   7.413   2.277 -0.4558 -0.5668  0.1546
    8MOL   C172 6066   0.050   7.446   2.428 -0.7004 -0.2379  0.0768
    8MOL   C173 6067   7.654   7.366   2.521  0.3672  0.0219 -0.3823
    8MOL   C174 6068   7.685   7.390   2.672 -0.2499 -0.2765  0.6350
    8MOL   C175 6069   7.584   7.313   2.753 -0.8492 -0.6463 -0.2727
    8MOL   C176 6070   7.633   7.296   2.896 -0.3285  0.2806  0.2458
    8MOL   C177 6071   7.547   7.204   2.986 -0.5077 -0.2699  0.2976
    8MOL   C178 6072   7.598   7.185   3.128 -0.1597 -0.2879 -0.0933
    8MOL   C179 6073   0.001   7.073   3.133  0.1632  0.0378  0.6118
    8MOL   C180 6074   0.043   7.041   3.275  0.1755  0.1326  0.4647
    8MOL   C181 6075   0.151   6.934   3.293  0.2383 -0.1456 -0.2991
    8MOL   C182 6076   0.281   6.945   3.214 -0.3229 -0.1489 -0.4978
    8MOL   C183 6077   0.376   6.828   3.243  0.2757  0.3267 -0.4013
    8MOL   H184 6078   0.082   7.519   2.091 -0.0011 -0.6859 -0.3213
    8MOL   H185 6079   0.199   7.535   2.223  0.3857 -0.4218  0.5918
    8MOL   H186 6080   0.008   7.307   2.255  3.2514 -1.1874  0.5675
    8MOL   H187 6081   0.156   7.427   2.442 -0.7495  1.7163  3.8485
    8MOL   H188 6082   0.044   7.551   2.454  2.3456 -0.3572  1.4410
    8MOL   H189 6083   7.548   7.375   2.497  0.4376  2.1723  0.0438
    8MOL   H190 6084   7.670   7.261   2.499  1.8434  0.2954 -0.6974
    8MOL   H191 6085   0.095   7.363   2.685 -0.3089 -0.8807 -0.1324
    8MOL   H192 6086   7.684   7.496   2.696  2.2709  0.4733 -2.1728
    8MOL   H193 6087   7.563   7.221   2.699 -0.0035 -1.5611  0.9504
    8MOL   H194 6088   7.490   7.368   2.752 -0.8622 -0.6241  1.1789
    8MOL   H195 6089   7.654   7.382   2.959  0.1128  0.1042  0.3462
    8MOL   H196 6090   0.040   7.259   2.883 -0.1609  1.3360 -1.7726
    8MOL   H197 6091   7.536   7.105   2.943 -0.1820  0.1755 -0.8123
    8MOL   H198 6092   7.444   7.240   2.989  0.6337  3.2326  0.2607
    8MOL   H199 6093   7.528   7.167   3.210 -0.0388  1.9598  0.5520
    8MOL   H200 6094   7.649   7.277   3.157 -0.5993 -0.2264  0.4926
    8MOL   H201 6095   0.087   7.090   3.068  0.1144  0.3033  0.6174
    8MOL   H202 6096   7.649   6.983   3.094  0.6700 -0.1406  0.4017
    8MOL   H203 6097   7.646   7.008   3.321 -0.1799  2.9468  1.8255
    8MOL   H204 6098   0.073   7.125   3.338  0.6885 -0.4100  0.9548
    8MOL   H205 6099   0.169   6.925   3.400 -0.3766  0.9714 -0.0886
    8MOL   H206 6100   0.112   6.833   3.283  1.3389 -0.6192  0.1041
    8MOL   H207 6101   0.258   6.943   3.107 -0.2486  3.4300 -0.6445
    8MOL   H208 6102   0.325   7.043   3.231 -1.8496  0.4642 -0.0372
    8MOL   H209 6103   0.397   6.832   3.350 -0.8761  0.3577 -0.1727
    8MOL   H210 6104   0.476   6.835   3.201  0.1136 -1.4622 -1.1294
    8MOL   H211 6105   0.324   6.737   3.212  2.9200 -1.4559  0.2834
    8MOL   C212 6106   7.583   7.481   2.229  0.2364  0.5056  0.4319
    8MOL   C213 6107   7.502   7.423   2.103 -0.1730 -0.5521 -0.1114
    8MOL   C214 6108   7.423   7.290   2.137 -0.1209 -0.4285 -0.0052
    8MOL   C215 6109   7.318   7.284   2.247  0.0667 -0.8207  0.3314
    8MOL   C216 6110   7.236   7.156   2.259 -0.2667  0.7627 -0.6404
    8MOL   C217 6111   7.131   7.173   2.371  0.2248  0.3092 -0.1697
    8MOL   C218 6112   7.195   7.158   2.514 -0.8442  0.7703  0.5315
    8MOL   C219 6113   7.099   7.191   2.631 -0.0685  0.0811  0.1294
    8MOL   C220 6114   7.186   7.177   2.760 -0.2618 -0.3845  0.3277
    8MOL   C221 6115   7.093   7.196   2.880 -1.8738  0.5419  0.5363
    8MOL   C222 6116   7.163   7.185   3.016 -0.0466 -0.2355 -0.3482
    8MOL   C223 6117   7.055   7.190   3.130 -0.3683 -0.7179 -0.0690
    8MOL   C224 6118   7.130   7.176   3.265  0.2436  0.0551  0.1164
    8MOL   C225 6119   7.039   7.212   3.382 -0.1564 -0.1401 -0.1761
    8MOL   H226 6120   7.598   7.588   2.212 -0.1718  0.3662 -0.8720
    8MOL   H227 6121   7.508   7.481   2.308 -0.7086  2.5827 -0.4158
    8MOL   H228 6122   7.579   7.399   2.030 -1.9155 -2.5329 -1.3616
    8MOL   H229 6123   7.378   7.267   2.040 -0.7054 -0.7282  0.3332
    8MOL   H230 6124   7.504   7.219   2.148 -0.7294 -1.3475 -1.3217
    8MOL   H231 6125   7.248   7.362   2.220  0.6953  0.4702  2.3588
    8MOL   H232 6126   7.357   7.316   2.344 -1.1193 -0.8162  0.8101
    8MOL   H233 6127   7.304   7.073   2.272 -0.3333  0.6096 -1.2981
    8MOL   H234 6128   7.186   7.133   2.165  0.7825  0.2886 -1.0898
    8MOL   H235 6129   7.053   7.097   2.364  0.0769  0.5766 -1.5860
    8MOL   H236 6130   7.087   7.273   2.373  0.0458  0.2750 -1.6610
    8MOL   H237 6131   7.230   7.055   2.521 -2.1300  0.1461 -1.6813
    8MOL   H238 6132   7.280   7.223   2.535 -0.3769  0.0686  0.8278
    8MOL   H239 6133   7.055   7.291   2.633  0.1992  0.2736 -2.2307
    8MOL   H240 6134   7.016   7.121   2.645  0.3834 -0.2022  1.4322
    8MOL   H241 6135   7.253   7.262   2.754  0.8345 -1.2908 -0.5008
    8MOL   H242 6136   7.245   7.086   2.771  1.2467  0.5171 -0.1403
    8MOL   H243 6137   7.038   7.289   2.866 -1.0934  1.1176  1.1961
    8MOL   H244 6138   7.021   7.114   2.881 -0.3887 -0.7859  1.3437
    8MOL   H245 6139   7.227   7.272   3.032 -0.8984  0.1252  1.1925
    8MOL   H246 6140   7.232   7.101   3.019 -0.0197 -0.5459 -5.1547
    8MOL   H247 6141   6.978   7.115   3.110 -0.1498 -1.3518  1.3345
    8MOL   H248 6142   7.001   7.284   3.125  0.9232 -0.0218 -1.1920
    8MOL   H249 6143   7.214   7.243   3.285  0.9982 -0.7655 -0.2976
    8MOL   H250 6144   7.172   7.076   3.272 -0.8114 -0.5111 -1.2629
    8MOL   H251 6145   7.003   7.314   3.371  2.2789  0.7790 -0.0067
    8MOL   H252 6146   6.948   7.152   3.387 -0.9202  0.7855 -2.4198
    8MOL   H253 6147   7.090   7.209   3.478 -1.3102  0.2893  0.4625
    8MOL   C254 6148   7.413   7.533   2.043 -0.1656  0.2947  0.1921
    8MOL   C255 6149   7.480   7.606   1.923  0.0471  0.5080 -0.2687
    8MOL   C256 6150   7.506   7.509   1.801  0.2729 -0.1307 -0.2976
    8MOL   C257 6151   7.642   7.531   1.735  0.2375  0.5429  0.1401
    8MOL   C258 6152   7.686   7.419   1.640  0.1311  0.2936  0.0752
    8MOL   C259 6153   0.096   7.481   1.546  0.4735 -0.2107  0.8151
    8MOL   C260 6154   0.131   7.378   1.431 -1.0870 -0.0628 -0.3525
    8MOL   C261 6155   0.196   7.447   1.315 -0.4625  0.2695  0.4993
    8MOL   C262 6156   0.225   7.355   1.197  0.0463  0.5068 -0.2363
    8MOL   C263 6157   0.279   7.428   1.074  0.1262 -0.3686 -0.2198
    8MOL   C264 6158   0.404   7.509   1.093 -0.0124 -0.0554  0.2164
    8MOL   C265 6159   0.466   7.564   0.965  0.1199  0.2474 -0.3175
    8MOL   C266 6160   0.371   7.660   0.894  0.8828  0.4844  0.4412
    8MOL   C267 6161   0.404   7.685   0.741 -0.3452 -0.6281 -0.6417
    8MOL   H268 6162   7.376   7.604   2.117 -0.4130 -0.1971  0.5379
    8MOL   H269 6163   7.327   7.494   1.989  0.4319 -1.7850  0.7156
    8MOL   H270 6164   7.577   7.642   1.959  0.6027 -2.3550  1.2817
    8MOL   H271 6165   7.429   7.510   1.724  1.0581 -1.5489 -1.1360
    8MOL   H272 6166   7.501   7.407   1.839 -1.2250 -0.1065 -0.4073
    8MOL   H273 6167   0.019   7.554   1.813 -0.7424  1.2154  0.8801
    8MOL   H274 6168   7.629   7.626   1.682  0.8631  0.2929 -0.4594
    8MOL   H275 6169   7.607   7.381   1.576  0.3421 -0.8638  0.4876
    8MOL   H276 6170   0.031   7.339   1.702 -1.4365 -0.1643  0.5097
    8MOL   H277 6171   0.188   7.502   1.599 -0.0082 -0.1610  1.6426
    8MOL   H278 6172   0.056   7.569   1.496 -1.0788 -2.4623 -2.0928
    8MOL   H279 6173   0.202   7.314   1.483 -0.0192  1.0816 -0.3912
    8MOL   H280 6174   0.047   7.313   1.404  1.1598 -2.8676 -0.8099
    8MOL   H281 6175   0.274   7.509   1.360 -0.7070 -0.4799  1.9739
    8MOL   H282 6176   0.132   7.528   1.278 -0.2682 -0.7356 -2.1086
    8MOL   H283 6177   0.300   7.277   1.206  0.3463  0.8814  0.5443
    8MOL   H284 6178   0.138   7.293   1.173  1.7458 -1.5306 -1.2556
    8MOL   H285 6179   0.205   7.502   1.042  0.7706  0.8968  1.1587
    8MOL   H286 6180   0.300   7.360   0.991  3.7964 -1.7710  1.7559
    8MOL   H287 6181   0.474   7.448   1.151 -1.2979 -0.2201  1.6256
    8MOL   H288 6182   0.381   7.591   1.162 -2.8261 -1.4793  1.0082
    8MOL   H289 6183   0.551   7.624   0.997  1.3730 -0.2293 -2.6827
    8MOL   H290 6184   0.494   7.496   0.885 -0.9536 -2.3029  1.4071
    8MOL   H291 6185   0.269   7.623   0.882  2.3055 -3.0246 -1.6044
    8MOL   H292 6186   0.352   0.056   0.949  1.2224  1.6122 -1.2533
    8MOL   H293 6187   0.406   7.594   0.681 -2.0610 -1.3378  0.3203
    8MOL   H294 6188   0.502   0.033   0.720  0.6267 -0.9749  2.9195
    8MOL   H295 6189   0.325   0.054   0.701 -1.9500 -2.7243 -0.9346
    8MOL   C296 6190   7.400   0.035   1.872 -0.1700 -0.0672  0.4911
    8MOL   C297 6191   7.426   0.152   1.967 -0.3489 -0.2170  0.1822
    8MOL   C298 6192   7.548   0.228   1.924  0.3252 -0.1799 -0.1666
    8MOL   C299 6193   7.616   0.299   2.038  0.0889 -0.2648 -0.5020
    8MOL   C300 6194   7.688   0.423   2.006 -0.4681 -0.3385  0.3521
    8MOL   C301 6195   0.045   0.513   2.121  0.7745  1.0046 -0.1721
    8MOL   C302 6196   0.164   0.456   2.192 -0.3542 -0.0045  0.1642
    8MOL   C303 6197   0.130   0.352   2.303  0.1165 -0.5147  0.6083
    8MOL   C304 6198   0.244   0.264   2.339  0.3327 -0.5256  0.9191
    8MOL   C305 6199   0.224   0.191   2.473  0.0281  0.0050  0.5023
    8MOL   C306 6200   0.326   0.069   2.484 -0.1983 -0.3501  0.1440
    8MOL   C307 6201   0.316   7.680   2.613  0.6247  0.6151 -0.9916
    8MOL   C308 6202   0.434   7.572   2.618 -0.6704  0.3016 -0.4173
    8MOL   C309 6203   0.438   7.492   2.752  0.6480  0.2655  0.3212
    8MOL   H310 6204   7.295   0.008   1.865 -0.1164 -1.2152  3.3222
    8MOL   H311 6205   7.432   0.073   1.775 -1.5134  0.7139  0.3516
    8MOL   H312 6206   7.443   0.121   2.070 -1.7908  1.9436  1.1136
    8MOL   H313 6207   7.529   0.293   1.839 -1.2364 -1.0350 -0.4831
    8MOL   H314 6208   7.620   0.154   1.888  1.4302  0.0640  1.4478
    8MOL   H315 6209   7.681   0.224   2.083 -0.2833 -2.3394 -3.2999
    8MOL   H316 6210   7.550   0.327   2.120  2.4671 -0.0265  1.4224
    8MOL   H317 6211   0.072   0.405   1.934 -1.1285  2.3004 -1.1029
    8MOL   H318 6212   7.605   0.482   1.967  0.9078  1.4174 -0.0267
    8MOL   H319 6213   7.660   0.531   2.192 -1.7026 -2.1412 -2.0472
    8MOL   H320 6214   0.059   0.612   2.076  0.2097  0.7998 -0.8046
    8MOL   H321 6215   0.232   0.406   2.122 -0.7240 -0.4970  0.1585
    8MOL   H322 6216   0.223   0.538   2.234 -1.1174  0.2082  0.8347
    8MOL   H323 6217   0.033   0.306   2.282  0.1821  0.6198 -2.4191
    8MOL   H324 6218   0.117   0.420   2.388  1.3104  1.6536 -0.8823
    8MOL   H325 6219   0.267   0.200   2.254 -1.5042  0.2871 -0.2165
    8MOL   H326 6220   0.337   0.321   2.350  0.4282 -0.3790 -0.5777
    8MOL   H327 6221   0.125   0.147   2.466  0.0431  0.2942 -2.0295
    8MOL   H328 6222   0.238   0.266   2.551 -0.2849 -0.1414  0.6987
    8MOL   H329 6223   0.425   0.107   2.459 -0.3265 -1.3202 -1.9574
    8MOL   H330 6224   0.310   0.001   2.400 -0.2226  1.0709 -1.0257
    8MOL   H331 6225   0.222   7.626   2.605  0.0041  1.6773 -0.8534
    8MOL   H332 6226   0.333   0.044   2.703  0.9902 -0.8004 -0.1108
    8MOL   H333 6227   0.530   7.621   2.601 -0.5528  0.5557  0.9131
    8MOL   H334 6228   0.425   7.502   2.535 -0.8148  0.6461 -0.6943
    8MOL   H335 6229   0.424   7.560   2.836  0.1135  2.3133 -1.3800
    8MOL   H336 6230   0.352   7.425   2.753  2.7684 -2.5659 -0.1562
    8MOL   H337 6231   0.529   7.432   2.760 -0.0485 -1.2824 -2.5085
    8MOL   C338 6232   7.305   0.252   1.971  0.2775 -0.4387 -0.4841
    8MOL   C339 6233   7.197   0.201   2.064 -0.0681 -0.2150 -0.3073
    8MOL   C340 6234   7.232   0.221   2.211  0.5387  0.2506 -0.4118
    8MOL   C341 6235   7.232   0.363   2.256  0.1418 -0.7204  0.4737
    8MOL   C342 6236   7.210   0.375   2.410 -0.0761  0.7004 -0.1026
    8MOL   C343 6237   7.258   0.505   2.472  0.4332 -0.3947 -0.6364
    8MOL   C344 6238   7.217   0.506   2.629 -0.4948 -0.2341  0.3930
    8MOL   C345 6239   7.241   0.639   2.696 -0.2053  0.2247  0.6117
    8MOL   C346 6240   7.387   0.666   2.715 -0.4557  0.1944  0.5184
    8MOL   C347 6241   7.419   0.791   2.790 -0.4357 -0.2164  0.0574
    8MOL   C348 6242   7.528   0.757   2.890  0.5098  0.1149 -0.5467
    8MOL   C349 6243   7.582   0.873   2.980  0.1376 -0.5780  0.3382
    8MOL   C350 6244   7.657   0.987   2.918  0.1510  0.3008 -0.2009
    8MOL   C351 6245   7.694   1.096   3.028 -0.4742 -0.5635  0.2253
    8MOL   H352 6246   7.348   0.347   2.004 -0.1017 -0.5236  0.2615
    8MOL   H353 6247   7.256   0.264   1.874  0.1538 -0.8974 -0.4814
    8MOL   H354 6248   7.200   0.092   2.056  2.0426 -0.4112  2.6614
    8MOL   H355 6249   7.156   0.169   2.270  1.9315  0.0973  1.2890
    8MOL   H356 6250   7.327   0.173   2.231  0.8424  0.4782 -1.2942
    8MOL   H357 6251   7.163   0.424   2.198 -1.3820 -1.9451  0.9549
    8MOL   H358 6252   7.327   0.416   2.248 -0.5409  0.2789 -1.2598
    8MOL   H359 6253   7.267   0.293   2.455 -1.6657 -1.5044 -1.9846
    8MOL   H360 6254   7.105   0.356   2.432  0.3523 -0.1820  1.2352
    8MOL   H361 6255   7.366   0.514   2.464  0.3800  1.4476  0.4029
    8MOL   H362 6256   7.209   0.591   2.427  1.9008  0.7939 -0.0025
    8MOL   H363 6257   7.112   0.481   2.647 -0.6338  0.7018  0.9098
    8MOL   H364 6258   7.273   0.428   2.680  0.2828  0.0868  0.0281
    8MOL   H365 6259   7.194   0.715   2.635  0.7600 -0.1428 -0.6088
    8MOL   H366 6260   7.183   0.654   2.788 -0.6911  2.3283 -0.0201
    8MOL   H367 6261   7.433   0.582   2.767 -0.7467 -0.1227  0.2679
    8MOL   H368 6262   7.439   0.662   2.619  0.7107  2.1952  1.0324
    8MOL   H369 6263   7.447   0.875   2.726  0.3293 -1.8252 -1.7849
    8MOL   H370 6264   7.334   0.826   2.849  0.3561  0.3197  0.8976
    8MOL   H371 6265   7.612   0.714   2.835 -0.0881 -2.4251  0.4492
    8MOL   H372 6266   7.503   0.672   2.954 -0.1808  0.5872 -0.1802
    8MOL   H373 6267   7.653   0.822   3.044 -0.3636 -2.8928 -0.9074
    8MOL   H374 6268   7.497   0.891   3.047  0.9610 -0.3996  1.3501
    8MOL   H375 6269   0.054   0.957   2.870  0.8791 -0.2867  1.5511
    8MOL   H376 6270   7.606   1.038   2.836  1.3205  2.8253  0.5918
    8MOL   H377 6271   0.103   1.089   3.058 -0.3840 -1.7678 -0.3217
    8MOL   H378 6272   0.007   1.193   2.979  1.6248 -1.1812 -0.7120
    8MOL   H379 6273   7.617   1.107   3.104 -2.4543  1.9657 -2.0631
    8MOL   C380 6274   7.053   0.253   2.031  0.5917  0.0448  0.3801
    8MOL   C381 6275   6.958   0.149   1.967  0.1256  0.6280  0.5088
    8MOL   C382 6276   7.014   0.093   1.835  0.3704  0.0979  0.5001
    8MOL   C383 6277   6.906   0.042   1.732 -0.0069  0.3264 -0.7358
    8MOL   C384 6278   6.971   7.651   1.624 -0.1561 -0.1446  0.0514
    8MOL   C385 6279   6.981   7.507   1.657  0.3018 -0.2913  0.2388
    8MOL   C386 6280   7.008   7.407   1.542 -0.7590 -0.2036  0.0481
    8MOL   C387 6281   6.888   7.392   1.447  0.5055 -0.5480 -0.1787
    8MOL   C388 6282   6.915   7.288   1.334  0.2935 -0.6841  0.1381
    8MOL   C389 6283   6.804   7.279   1.230  0.2609  0.2638  0.9399
    8MOL   C390 6284   6.823   7.159   1.127 -0.7316 -0.4461 -0.6825
    8MOL   C391 6285   6.940   7.167   1.020  0.0760  0.3792 -0.2744
    8MOL   C392 6286   6.943   7.033   0.943 -0.2548  0.2095 -0.3667
    8MOL   C393 6287   7.048   7.032   0.840  0.5311  0.5241 -0.2654
    8MOL   H394 6288   7.062   0.336   1.961 -1.2899  0.7893  0.9677
    8MOL   H395 6289   7.003   0.290   2.121  0.0976  0.2875  0.0104
    8MOL   H396 6290   6.883   0.221   1.935  0.5439  0.6569 -0.4344
    8MOL   H397 6291   7.069   0.003   1.862  0.2378  0.0249  0.5254
    8MOL   H398 6292   7.087   0.163   1.795 -1.1276  0.8905 -0.8864
    8MOL   H399 6293   6.870   0.136   1.690 -1.0103  0.3086  0.0689
    8MOL   H400 6294   6.816   7.695   1.776 -0.7243  0.8238 -1.7029
    8MOL   H401 6295   7.063   7.691   1.581  0.5313 -1.2828  0.4641
    8MOL   H402 6296   6.903   7.675   1.541  2.1415  0.9137 -1.5722
    8MOL   H403 6297   6.890   7.468   1.703  1.3919 -2.5827  0.5334
    8MOL   H404 6298   7.064   7.501   1.726 -0.2998 -0.4396  0.9594
    8MOL   H405 6299   7.093   7.446   1.485 -1.3735  2.6845  1.0000
    8MOL   H406 6300   7.030   7.307   1.578  0.4028 -0.8757 -2.4223
    8MOL   H407 6301   6.809   7.354   1.511  1.5622 -0.0416  1.4484
    8MOL   H408 6302   6.858   7.488   1.405 -0.5188 -0.9630 -0.4230
    8MOL   H409 6303   7.008   7.305   1.279  0.2420 -2.4269 -0.5087
    8MOL   H410 6304   6.929   7.193   1.384 -1.3832 -0.5003  0.9895
    8MOL   H411 6305   6.792   7.372   1.174  0.1415 -0.4702 -0.2706
    8MOL   H412 6306   6.713   7.255   1.284  0.2107  1.0510  1.2128
    8MOL   H413 6307   6.837   7.071   1.191 -1.4772  0.2306  0.4317
    8MOL   H414 6308   6.730   7.147   1.072 -0.7797 -1.2734 -0.4218
    8MOL   H415 6309   7.027   7.189   1.081 -1.4702  0.2807  2.0294
    8MOL   H416 6310   6.924   7.252   0.954  1.2748  0.3258 -0.6348
    8MOL   H417 6311   6.960   6.953   1.015 -0.9478 -0.5758 -1.0672
    8MOL   H418 6312   6.842   7.020   0.902 -1.8011  1.5859  2.7914
    8MOL   H419 6313   7.135   7.062   0.898  0.7876 -1.5453  0.4669
    8MOL   H420 6314   7.030   7.094   0.752  0.6117 -1.8458 -2.0124
    8MOL   H421 6315   7.060   6.932   0.799 -2.5872 -0.2893  0.6686
    8MOL   C422 6316   6.906   0.030   2.053 -0.2890  0.6608 -0.5281
    8MOL   C423 6317   6.821   0.066   2.175 -0.1829  0.3044  0.0175
    8MOL   C424 6318   6.691   0.148   2.143 -0.1885 -1.0456  0.0679
    8MOL   C425 6319   6.578   0.085   2.064 -0.0851  0.3697 -0.3761
    8MOL   C426 6320   6.469   0.186   2.011  0.9146  0.1393  0.6629
    8MOL   C427 6321   6.516   0.264   1.888  0.4968 -0.5718  0.0644
    8MOL   C428 6322   6.409   0.334   1.804 -0.0661 -0.3128  0.8752
    8MOL   C429 6323   6.456   0.426   1.689  0.0765  0.0493 -0.6145
    8MOL   C430 6324   6.341   0.443   1.586  0.1559 -0.5911 -0.2768
    8MOL   C431 6325   6.374   0.544   1.479 -0.7803 -0.5590  0.6266
    8MOL   C432 6326   6.260   0.567   1.375  0.0116 -0.3158  0.0218
    8MOL   C433 6327   6.311   0.636   1.252 -0.9858 -0.3736 -0.6676
    8MOL   C434 6328   6.369   0.778   1.277 -0.9140  0.7957  0.1095
    8MOL   C435 6329   6.431   0.810   1.137 -0.2229  0.0260  0.5037
    8MOL   H436 6330   6.992   7.671   2.091 -0.9898  0.6849  1.1238
    8MOL   H437 6331   6.840   7.657   2.001 -0.4379 -0.5040  1.1450
    8MOL   H438 6332   6.888   0.132   2.230 -0.1715 -0.7317  1.2665
    8MOL   H439 6333   6.719   0.238   2.088  1.7993 -1.0430  1.0368
    8MOL   H440 6334   6.664   0.182   2.243 -0.4179 -1.5936  0.1948
    8MOL   H441 6335   6.618   0.033   1.977  0.1728  1.3667 -0.8537
    8MOL   H442 6336   6.550   0.006   2.134 -0.1385  0.7681  0.0473
    8MOL   H443 6337   6.437   0.261   2.083  1.8964  3.1022 -1.8661
    8MOL   H444 6338   6.375   0.142   1.976  1.8637 -0.9212 -0.6093
    8MOL   H445 6339   6.575   0.208   1.816  1.0661  2.9354 -2.3385
    8MOL   H446 6340   6.589   0.332   1.932  0.5839 -0.5100 -0.1753
    8MOL   H447 6341   6.342   0.256   1.767  1.8544 -1.2823 -0.6479
    8MOL   H448 6342   6.347   0.392   1.873  0.2238  2.0114 -0.7441
    8MOL   H449 6343   6.480   0.520   1.738  1.3530 -1.0354  0.8765
    8MOL   H450 6344   6.552   0.402   1.644 -0.2667 -0.7911 -0.9189
    8MOL   H451 6345   6.318   0.347   1.540 -1.9590 -0.0912 -0.3221
    8MOL   H452 6346   6.262   0.487   1.647  2.0992  0.9662  1.1882
    8MOL   H453 6347   6.412   0.628   1.537  0.8004 -1.4026  0.8475
    8MOL   H454 6348   6.460   0.501   1.427  0.3151  1.9203  0.3195
    8MOL   H455 6349   6.224   0.468   1.350  2.0067 -0.7855 -1.1176
    8MOL   H456 6350   6.176   0.621   1.418  0.5815  0.5011  0.1249
    8MOL   H457 6351   6.231   0.643   1.178 -0.8100  0.7158 -0.7696
    8MOL   H458 6352   6.377   0.574   1.191 -0.0120  0.9460 -1.0066
    8MOL   H459 6353   6.286   0.844   1.305 -2.7734 -1.6341  0.4465
    8MOL   H460 6354   6.439   0.786   1.360  1.6348 -0.7545 -1.8343
    8MOL   H461 6355   6.367   0.796   1.050 -0.3795 -2.8504  1.0173
    8MOL   H462 6356   6.522   0.757   1.111 -0.3138 -0.1084  0.4589
    8MOL   H463 6357   6.474   0.910   1.141  1.4416 -0.6319 -0.4540
    8MOL   C464 6358   6.777   7.638   2.265  0.1260 -0.1592  0.5565
    8MOL   C465 6359   6.893   7.562   2.339 -0.3278  0.3813 -0.2492
    8MOL   C466 6360   6.975   7.649   2.445 -0.2941  0.2366  0.0454
    8MOL   C467 6361   7.110   7.580   2.475 -0.0501  0.2309  0.3525
    8MOL   C468 6362   7.203   7.683   2.543 -0.5058 -0.1592 -0.3023
    8MOL   C469 6363   7.326   7.614   2.614 -0.1931  0.0461 -0.6981
    8MOL   C470 6364   7.429   0.022   2.664 -0.4811  0.8108  0.5380
    8MOL   C471 6365   7.507   0.089   2.547 -0.0996 -0.2062 -0.5214
    8MOL   C472 6366   7.571   0.221   2.592  0.0853 -0.2716  0.0459
    8MOL   C473 6367   7.657   0.209   2.718 -0.0888  1.0503  1.1891
    8MOL   C474 6368   0.010   0.339   2.774  0.0802  0.1818  0.6639
    8MOL   C475 6369   0.019   0.332   2.924 -0.3964 -0.2321 -0.2445
    8MOL   C476 6370   0.151   0.262   2.978 -0.4266  0.6065 -0.4750
    8MOL   C477 6371   0.174   0.241   3.134  0.1222 -0.2486 -0.0328
    8MOL   H478 6372   6.726   7.572   2.195 -1.6062  1.6997  0.0072
    8MOL   H479 6373   6.712   7.677   2.342  0.4271  3.0442 -0.7184
    8MOL   H480 6374   6.969   7.532   2.268 -1.1384 -1.7143 -0.2614
    8MOL   H481 6375   6.998   0.051   2.400 -0.6903 -0.2798 -1.2796
    8MOL   H482 6376   6.920   7.663   2.538 -1.4271 -1.0253 -0.4166
    8MOL   H483 6377   7.149   7.530   2.386 -1.0464 -1.0877  0.6470
    8MOL   H484 6378   7.102   7.490   2.536  0.8521  0.5795  0.9841
    8MOL   H485 6379   7.145   0.031   2.624  0.1439 -1.3911  0.8594
    8MOL   H486 6380   7.222   0.070   2.475  1.3902  1.5157  2.1756
    8MOL   H487 6381   7.293   7.554   2.699 -0.3696  3.7114  1.9633
    8MOL   H488 6382   7.374   7.547   2.542  0.1652 -0.0758 -0.3507
    8MOL   H489 6383   7.375   0.084   2.735  0.2757  2.6818 -0.5085
    8MOL   H490 6384   7.502   7.672   2.732  0.2526 -1.6689 -1.8276
    8MOL   H491 6385   7.577   0.026   2.492 -1.0304 -0.2304 -1.6890
    8MOL   H492 6386   7.434   0.120   2.473  1.1347  0.3405 -1.5432
    8MOL   H493 6387   7.639   0.254   2.513 -0.2422 -0.3372 -0.2629
    8MOL   H494 6388   7.498   0.300   2.612 -0.2452 -0.6770  0.4248
    8MOL   H495 6389   7.598   0.160   2.795 -1.1547  2.9878  1.6496
    8MOL   H496 6390   0.049   0.146   2.699  0.1946  1.5702  0.7350
    8MOL   H497 6391   0.098   0.377   2.722  0.7520 -0.2088  1.5008
    8MOL   H498 6392   7.634   0.419   2.751  0.3773  0.4241  0.5759
    8MOL   H499 6393   7.621   0.287   2.958  0.8105 -1.8867  0.9386
    8MOL   H500 6394   0.020   0.434   2.963 -1.9192 -0.6686  0.9494
    8MOL   H501 6395   0.146   0.160   2.939 -2.7398 -0.2874  1.9954
    8MOL   H502 6396   0.238   0.310   2.934  0.6170  1.3145  2.2706
    8MOL   H503 6397   0.268   0.186   3.149 -0.3052 -1.6181 -2.1367
    8MOL   H504 6398   0.171   0.338   3.183 -1.9610  0.2014 -0.9972
    8MOL   H505 6399   0.095   0.187   3.185 -0.9992  0.1721 -1.3026
    8MOL   C506 6400   6.836   7.439   2.417  0.1896  0.7835  0.1988
    8MOL   C507 6401   6.743   7.339   2.349  0.2661  0.4364 -0.1892
    8MOL   C508 6402   6.824   7.249   2.249 -0.0979  0.1437  0.9016
    8MOL   C509 6403   6.729   7.213   2.135  0.1928 -0.6290  0.4297
    8MOL   C510 6404   6.799   7.126   2.036 -0.3628  0.0530  0.4494
    8MOL   C511 6405   6.892   7.211   1.939 -0.2599  0.2567 -0.4943
    8MOL   C512 6406   6.973   7.130   1.835 -0.0641 -0.3040  0.2005
    8MOL   C513 6407   6.887   7.063   1.729 -0.4321 -0.2118 -0.3723
    8MOL   C514 6408   6.973   6.963   1.645 -0.8449  0.0868 -0.0190
    8MOL   C515 6409   6.885   6.909   1.530  0.1993 -0.4386 -0.8054
    8MOL   C516 6410   6.962   6.822   1.435 -0.0403 -0.0332  0.1892
    8MOL   C517 6411   6.856   6.752   1.340 -0.9022 -0.0749 -0.4757
    8MOL   C518 6412   6.902   6.651   1.230 -0.3646  0.1397  0.3723
    8MOL   C519 6413   6.790   6.562   1.179  0.5925  0.2441 -0.4273
    8MOL   H520 6414   6.787   7.475   2.507  1.4877  0.7632  0.9240
    8MOL   H521 6415   6.907   7.378   2.473 -1.2403 -1.4616 -0.3426
    8MOL   H522 6416   6.661   7.385   2.295  1.4392  1.4891 -1.0753
    8MOL   H523 6417   6.915   7.303   2.222  1.2643 -1.7596  1.5984
    8MOL   H524 6418   6.861   7.159   2.299 -2.3021 -1.5533 -0.3969
    8MOL   H525 6419   6.639   7.157   2.161 -1.5770  2.0919  0.3772
    8MOL   H526 6420   6.692   7.304   2.088  1.6089 -0.0075  0.4798
    8MOL   H527 6421   6.724   7.082   1.969 -0.6398  0.4429  0.4975
    8MOL   H528 6422   6.869   7.051   2.071 -3.2027 -2.4297  1.0105
    8MOL   H529 6423   6.965   7.259   2.003  2.1567 -1.5945 -1.7488
    8MOL   H530 6424   6.834   7.289   1.890  0.6325  1.6328  0.6008
    8MOL   H531 6425   7.047   7.199   1.794 -1.7655  1.1322 -0.5106
    8MOL   H532 6426   7.028   7.062   1.900  1.7349 -0.2421 -1.2171
    8MOL   H533 6427   6.862   7.144   1.661  0.1735 -0.8394 -1.3414
    8MOL   H534 6428   6.795   7.022   1.771  0.3494  1.1278  2.8258
    8MOL   H535 6429   6.990   6.881   1.715  0.2088  0.2086 -0.1195
    8MOL   H536 6430   7.066   7.009   1.611 -2.3672  1.7852 -1.9757
    8MOL   H537 6431   6.802   6.859   1.580  2.1338 -1.4131  1.5048
    8MOL   H538 6432   6.848   6.989   1.466 -0.3263 -1.3404 -1.6306
    8MOL   H539 6433   7.035   6.890   1.389  1.3808 -1.1198  0.7977
    8MOL   H540 6434   7.020   6.750   1.492  1.4970 -0.4558 -1.8528
    8MOL   H541 6435   6.787   6.820   1.291 -1.4602  0.4425  0.9972
    8MOL   H542 6436   6.792   6.693   1.406  1.0070 -1.2094  0.4287
    8MOL   H543 6437   6.989   6.594   1.262 -1.1556  0.1490  2.6170
    8MOL   H544 6438   6.935   6.711   1.146  0.5482 -0.5098  0.2524
    8MOL   H545 6439   6.744   6.507   1.262  0.1308  0.1176 -0.7602
    8MOL   H546 6440   6.708   6.614   1.130 -2.2942 -1.2047  2.6629
    8MOL   H547 6441   6.821   6.479   1.116  0.5153  0.5607 -0.8840
    8MOL   C548 6442   6.683   7.253   2.460  0.3146  0.5833  0.8120
    8MOL   C549 6443   6.557   7.309   2.531  0.0642  0.1087 -0.7216
    8MOL   C550 6444   6.439   7.340   2.435  0.6099 -0.0401  0.1959
    8MOL   C551 6445   6.378   7.223   2.363  0.2632  1.1548  0.9591
    8MOL   C552 6446   6.260   7.275   2.280 -0.3106 -0.1829  0.0942
    8MOL   C553 6447   6.133   7.319   2.361 -0.8807 -0.3163  0.2333
    8MOL   C554 6448   6.033   7.199   2.387  0.2864 -0.1081  0.2693
    8MOL   C555 6449   5.889   7.246   2.428  0.4461  0.1391 -0.0157
    8MOL   C556 6450   5.788   7.125   2.428 -0.4304 -0.7871 -0.0580
    8MOL   C557 6451   5.738   7.091   2.286 -0.2904 -0.7398  0.0357
    8MOL   C558 6452   5.654   6.962   2.295 -0.5218 -0.8927 -0.1116
    8MOL   C559 6453   5.574   6.925   2.160 -0.0086 -0.7617  0.2714
    8MOL   C560 6454   5.540   6.772   2.164  0.7749  0.4878 -1.1134
    8MOL   C561 6455   5.515   6.716   2.029  0.0576 -1.1998  0.5523
    8MOL   H562 6456   6.657   7.160   2.409 -0.3108  1.1127  0.1444
    8MOL   H563 6457   6.765   7.226   2.526 -1.9198  0.4430  3.6378
    8MOL   H564 6458   6.591   7.402   2.577 -1.2262  1.7561 -3.0101
    8MOL   H565 6459   6.373   7.397   2.499  1.5031  0.4737  0.6745
    8MOL   H566 6460   6.481   7.413   2.366  0.1669 -1.1128 -1.2300
    8MOL   H567 6461   6.359   7.139   2.430  1.8757  0.8050  0.9894
    8MOL   H568 6462   6.457   7.187   2.298 -2.2533 -1.2076 -0.8736
    8MOL   H569 6463   6.299   7.370   2.242 -1.3714  1.2983  2.5936
    8MOL   H570 6464   6.228   7.204   2.203  0.8111  0.2638 -0.8148
    8MOL   H571 6465   6.078   7.390   2.299  2.0321  0.7267 -1.2378
    8MOL   H572 6466   6.163   7.365   2.454 -0.8877  0.2538 -0.0450
    8MOL   H573 6467   6.026   7.139   2.297  1.0782  3.3981 -2.2465
    8MOL   H574 6468   6.083   7.158   2.475  2.5729  1.7712 -0.1214
    8MOL   H575 6469   5.846   7.335   2.382 -2.4832 -1.7829 -1.1377
    8MOL   H576 6470   5.902   7.270   2.534  1.6005  1.1872 -0.3867
    8MOL   H577 6471   5.702   7.140   2.494 -0.6802  1.8033 -0.9201
    8MOL   H578 6472   5.842   7.043   2.477 -0.3326 -0.6042  0.1428
    8MOL   H579 6473   5.684   7.181   2.258  1.3840  0.4895  0.6616
    8MOL   H580 6474   5.823   7.088   2.218  0.7491  2.7488  1.0962
    8MOL   H581 6475   5.581   6.971   2.375 -0.4522  0.7005 -0.2128
    8MOL   H582 6476   5.726   6.885   2.322  0.6005 -0.6390 -2.2807
    8MOL   H583 6477   5.486   6.987   2.143  0.5265 -0.5741 -2.0282
    8MOL   H584 6478   5.627   6.950   2.068 -2.0788 -0.8672 -1.0041
    8MOL   H585 6479   5.625   6.716   2.203  1.2496  0.8507 -1.6181
    8MOL   H586 6480   5.449   6.742   2.218  1.6128  0.0629  0.0911
    8MOL   H587 6481   5.466   6.792   1.968  1.4302 -0.8319 -0.1103
    8MOL   H588 6482   5.603   6.689   1.970 -0.7317 -0.7661 -0.8302
    8MOL   H589 6483   5.447   6.631   2.033 -1.7419  0.2424  1.2421
    8MOL   C590 6484   6.523   7.213   2.642  0.0407 -0.1328  0.4260
    8MOL   C591 6485   6.394   7.231   2.726 -0.5129  0.9629  0.3678
    8MOL   C592 6486   6.374   7.115   2.834  0.7500  0.0497 -0.1355
    8MOL   C593 6487   6.227   7.061   2.853  0.2739  0.0810 -0.3027
    8MOL   C594 6488   6.197   6.977   2.985 -0.3759 -0.3080  0.0333
    8MOL   C595 6489   6.054   6.921   2.998 -0.3150 -0.4860  0.2698
    8MOL   C596 6490   6.035   6.809   3.103 -0.0620  0.1822 -0.1165
    8MOL   C597 6491   5.889   6.749   3.090 -0.6433 -0.5876 -0.7892
    8MOL   C598 6492   5.857   6.630   3.167  0.1526  0.1978  0.0100
    8MOL   C599 6493   5.739   6.547   3.109  0.2292 -0.4615  0.4475
    8MOL   C600 6494   5.693   6.423   3.190 -0.1760 -0.3423  0.6939
    8MOL   C601 6495   5.543   6.418   3.183  0.0052 -0.0693  0.3932
    8MOL   C602 6496   5.482   6.298   3.247  0.6922 -0.5882 -0.7393
    8MOL   C603 6497   5.483   6.312   3.402  0.0628  0.1484  0.3138
    8MOL   H604 6498   6.608   7.189   2.706  0.6079 -1.3142 -0.7331
    8MOL   H605 6499   6.498   7.114   2.601  1.6791 -0.4906  0.2425
    8MOL   H606 6500   6.307   7.225   2.660  1.2207 -2.0354 -1.7395
    8MOL   H607 6501   6.409   7.134   2.936 -0.6579  0.9515  0.1985
    8MOL   H608 6502   6.439   7.032   2.807  2.3444  1.7286 -1.6119
    8MOL   H609 6503   6.202   7.005   2.763  1.9711 -2.4125  0.7395
    8MOL   H610 6504   6.154   7.143   2.850  1.8820  1.5930  1.0312
    8MOL   H611 6505   6.219   7.028   3.078 -2.4388 -0.5634  0.6843
    8MOL   H612 6506   6.268   6.895   2.976  0.5800  0.4106  0.9975
    8MOL   H613 6507   6.004   6.881   2.910  0.2894 -4.0128  1.4660
    8MOL   H614 6508   5.988   7.002   3.029 -0.0146 -0.0763 -0.1370
    8MOL   H615 6509   6.108   6.729   3.091 -0.3611  0.1023 -1.5520
    8MOL   H616 6510   6.059   6.837   3.205 -0.0750  1.0035 -0.3275
    8MOL   H617 6511   5.817   6.826   3.121  0.2446 -0.2651  0.5255
    8MOL   H618 6512   5.887   6.718   2.986  3.1620 -3.2081 -0.1953
    8MOL   H619 6513   5.951   6.576   3.179  0.4133  0.1371 -2.0833
    8MOL   H620 6514   5.828   6.655   3.269 -0.9302 -0.8061 -0.0376
    8MOL   H621 6515   5.657   6.618   3.101  0.8997  0.5414  2.0337
    8MOL   H622 6516   5.756   6.514   3.007 -1.3917 -1.5836  0.5361
    8MOL   H623 6517   5.718   6.437   3.295 -1.3145 -1.3015  1.1012
    8MOL   H624 6518   5.738   6.335   3.144  1.5026  0.4409  0.7665
    8MOL   H625 6519   5.500   6.429   3.084 -1.5088 -0.5022  0.9909
    8MOL   H626 6520   5.518   6.514   3.228  0.3119  0.3120 -0.2443
    8MOL   H627 6521   5.383   6.275   3.210  0.4962 -0.5164 -0.2694
    8MOL   H628 6522   5.540   6.208   3.224 -1.7667 -2.7536  1.1689
    8MOL   H629 6523   5.583   6.327   3.442  0.3377 -0.0765 -0.2731
    8MOL   H630 6524   5.439   6.225   3.450  1.9050 -1.3310 -0.6335
    8MOL   H631 6525   5.412   6.390   3.430 -0.6013 -0.3019 -0.1007
    8MOL   C632 6526   6.394   7.367   2.802 -0.5868 -0.2510 -0.5985
    8MOL   C633 6527   6.264   7.419   2.869  0.2873  0.5755  0.1528
    8MOL   C634 6528   6.290   7.544   2.949  0.4217 -0.8939 -0.5763
    8MOL   C635 6529   6.344   7.668   2.870  0.3362 -0.1053  0.0358
    8MOL   C636 6530   6.323   0.116   2.936  0.2787  0.4213 -0.5693
    8MOL   C637 6531   6.184   0.175   2.909 -0.1690 -0.0316 -0.7194
    8MOL   C638 6532   6.153   0.292   3.004  0.4921  0.1235 -0.5646
    8MOL   C639 6533   6.039   0.378   2.959  0.6304 -0.4292  0.3278
    8MOL   C640 6534   6.006   0.484   3.062 -0.2688  0.2612 -0.2552
    8MOL   C641 6535   5.870   0.551   3.054  0.0813 -0.4815  0.1884
    8MOL   C642 6536   5.855   0.618   2.920 -0.6862  0.0248 -0.5604
    8MOL   C643 6537   5.726   0.692   2.891  0.3947 -0.2150 -0.1244
    8MOL   C644 6538   5.680   0.810   2.992  1.0573  0.6027 -0.6323
    8MOL   C645 6539   5.794   0.912   3.031 -0.0667  0.1782  0.9037
    8MOL   H646 6540   6.440   7.440   2.735  0.6227 -0.2110  0.2531
    8MOL   H647 6541   6.459   7.350   2.889 -0.2592 -0.7564 -0.9393
    8MOL   H648 6542   6.232   7.343   2.940  0.9952 -0.3922 -0.5491
    8MOL   H649 6543   6.195   7.563   3.000 -1.0430  0.0557 -3.5550
    8MOL   H650 6544   6.359   7.531   3.032 -0.3443 -0.9659  0.0587
    8MOL   H651 6545   6.334   7.661   2.762  0.9635  0.4899 -0.0612
    8MOL   H652 6546   6.450   7.646   2.876  0.0304 -1.2523  1.7012
    8MOL   H653 6547   6.389   0.190   2.891 -0.1306 -0.4135 -2.5862
    8MOL   H654 6548   6.343   0.108   3.043  1.1359  0.0039 -0.7567
    8MOL   H655 6549   6.166   0.200   2.805 -1.8870  0.2815 -0.3636
    8MOL   H656 6550   6.116   0.092   2.929  0.8138 -1.1713 -2.0288
    8MOL   H657 6551   6.130   0.246   3.100  0.4550  0.5755 -0.3580
    8MOL   H658 6552   6.241   0.355   3.017  0.6558 -0.2681  0.2825
    8MOL   H659 6553   5.946   0.321   2.949 -0.3241  1.1968 -0.3829
    8MOL   H660 6554   6.058   0.426   2.863 -0.2945  0.0770  0.3909
    8MOL   H661 6555   6.087   0.557   3.057  1.2829 -1.3581  0.6309
    8MOL   H662 6556   6.010   0.439   3.161 -1.0078 -3.2851 -1.7438
    8MOL   H663 6557   5.782   0.493   3.082 -0.2266 -1.0737 -1.9339
    8MOL   H664 6558   5.883   0.635   3.122 -0.2248 -0.4113  0.1616
    8MOL   H665 6559   5.931   0.695   2.908  0.6686 -0.9641  1.3097
    8MOL   H666 6560   5.860   0.542   2.843 -1.5598  1.0767 -1.6641
    8MOL   H667 6561   5.651   0.615   2.876  3.3561 -2.8871 -1.7708
    8MOL   H668 6562   5.739   0.739   2.794 -1.3903 -2.6586 -1.5971
    8MOL   H669 6563   5.654   0.759   3.084 -1.3830  2.3042 -0.3284
    8MOL   H670 6564   5.591   0.862   2.957  0.5657 -0.7506 -1.4348
    8MOL   H671 6565   5.855   0.939   2.946  2.1405 -1.6395  1.8491
    8MOL   H672 6566   5.742   1.002   3.063  2.0937  2.5644 -2.0202
    8MOL   H673 6567   5.851   0.868   3.113 -0.4526 -0.0056  1.0796
    8MOL   C674 6568   6.155   7.443   2.756 -0.6746  0.3611 -0.1061
    8MOL   C675 6569   6.023   7.500   2.806  0.1842  0.6303 -0.0784
    8MOL   C676 6570   5.926   7.532   2.688 -0.4746 -0.5093  0.1433
    8MOL   C677 6571   5.959   7.663   2.610  0.2949  0.0152 -0.4547
    8MOL   C678 6572   5.898   0.097   2.659  0.3850 -0.8457 -0.4395
    8MOL   C679 6573   5.917   0.217   2.566  0.2386 -0.8040 -0.1673
    8MOL   C680 6574   5.833   0.336   2.614 -0.0513 -0.7093 -0.0960
    8MOL   C681 6575   5.848   0.461   2.522 -0.0629  0.2404 -0.8702
    8MOL   C682 6576   5.764   0.475   2.399  0.0704  0.2197 -0.3730
    8MOL   C683 6577   5.831   0.488   2.267  0.0768  0.3964 -0.2448
    8MOL   C684 6578   5.740   0.522   2.149  0.0329 -0.6345  0.5548
    8MOL   C685 6579   5.815   0.607   2.046  0.3129  0.1566 -0.9368
    8MOL   C686 6580   5.949   0.553   1.995  0.2101 -0.3257  0.2785
    8MOL   C687 6581   6.017   0.648   1.901  0.3619 -0.1979  0.1963
    8MOL   H688 6582   6.131   7.363   2.687 -1.7045  1.5010 -1.1075
    8MOL   H689 6583   6.197   7.515   2.685  1.2422  0.1274  0.7713
    8MOL   H690 6584   6.036   7.595   2.858 -1.4232  1.0255 -0.4081
    8MOL   H691 6585   5.956   7.452   2.620  2.1056  1.0224 -0.5907
    8MOL   H692 6586   5.819   7.534   2.711 -0.7193 -0.4612 -0.9431
    8MOL   H693 6587   6.067   7.677   2.607  0.4890 -0.7864  2.0071
    8MOL   H694 6588   5.925   7.648   2.507  0.3299 -0.6081 -0.3763
    8MOL   H695 6589   5.792   0.074   2.670  0.2850 -0.6443 -0.9651
    8MOL   H696 6590   5.935   0.127   2.758 -0.4121  0.9197 -0.6596
    8MOL   H697 6591   6.022   0.247   2.563 -0.1716  0.6001 -1.2006
    8MOL   H698 6592   5.901   0.191   2.461  0.5934  1.7013 -0.8790
    8MOL   H699 6593   5.729   0.302   2.615 -0.6291  1.0545  1.6098
    8MOL   H700 6594   5.841   0.375   2.715 -1.4394  0.7319 -0.5252
    8MOL   H701 6595   5.836   0.549   2.585  1.5843 -1.8170  2.4469
    8MOL   H702 6596   5.954   0.467   2.496  1.1606  1.5398  3.9479
    8MOL   H703 6597   5.692   0.393   2.392  0.4676 -0.0151 -1.8654
    8MOL   H704 6598   5.701   0.563   2.413 -0.3653  0.1275 -1.6532
    8MOL   H705 6599   5.881   0.392   2.250 -1.4161 -0.3650 -0.4044
    8MOL   H706 6600   5.912   0.560   2.273 -1.5877  2.4207 -1.6456
    8MOL   H707 6601   5.649   0.566   2.189 -0.2987 -0.5425 -0.2824
    8MOL   H708 6602   5.701   0.430   2.105 -0.3988  0.1853 -0.8163
    8MOL   H709 6603   5.829   0.706   2.088  0.5032  0.2067 -1.1162
    8MOL   H710 6604   5.746   0.608   1.961  2.2988 -0.4985 -2.5919
    8MOL   H711 6605   6.024   0.544   2.073  0.6794 -0.3533 -0.1704
    8MOL   H712 6606   5.946   0.457   1.944 -0.5168  0.5802 -1.4456
    8MOL   H713 6607   5.973   0.654   1.801  1.0981 -0.2507 -0.1345
    8MOL   H714 6608   6.025   0.750   1.938  0.6597  0.5314 -1.8178
    8MOL   H715 6609   6.120   0.616   1.881  0.7924  0.4187  1.3444
    8MOL   C716 6610   5.950   7.404   2.898  0.1333 -0.1420 -0.1717
    8MOL   C717 6611   5.830   7.461   2.982 -0.1047 -0.1382  0.1714
    8MOL   C718 6612   5.713   7.363   3.016 -0.1763 -0.1753  0.1675
    8MOL   C719 6613   5.649   7.292   2.896 -0.0877  1.3057 -0.3488
    8MOL   C720 6614   5.699   7.146   2.871 -0.7587  0.1692  0.4194
    8MOL   C721 6615   5.603   7.070   2.776 -0.1781 -0.8444  0.0854
    8MOL   C722 6616   5.675   6.937   2.734 -0.4451 -0.4905  0.3184
    8MOL   C723 6617   5.582   6.827   2.667 -0.8624 -0.2449  0.0595
    8MOL   C724 6618   5.647   6.691   2.644 -0.3012  0.1192 -0.0863
    8MOL   C725 6619   5.548   6.583   2.599 -0.0717 -0.5525  0.0081
    8MOL   C726 6620   5.544   6.574   2.444  0.2738 -0.8621 -0.3655
    8MOL   C727 6621   5.457   6.460   2.385 -0.1284 -0.5065  0.0737
    8MOL   C728 6622   5.504   6.317   2.411 -0.3453  1.0877  0.1562
    8MOL   C729 6623   5.405   6.211   2.372 -0.3178  0.2176 -0.2421
    8MOL   H730 6624   5.912   7.328   2.831  0.5061  0.5039 -1.1203
    8MOL   H731 6625   6.013   7.349   2.967 -2.3797 -0.7488  1.7299
    8MOL   H732 6626   5.784   7.539   2.922 -2.2365 -3.5277 -2.7793
    8MOL   H733 6627   5.635   7.408   3.077  0.4827 -0.7342  1.4472
    8MOL   H734 6628   5.757   7.300   3.093 -1.6430 -0.4402  0.8042
    8MOL   H735 6629   5.541   7.283   2.914  0.4187  0.2253  2.4344
    8MOL   H736 6630   5.660   7.349   2.804  0.1747  0.5658 -0.7797
    8MOL   H737 6631   5.796   7.150   2.823 -0.4490 -0.0363  1.0255
    8MOL   H738 6632   5.708   7.088   2.963 -2.1453  1.4447  1.3914
    8MOL   H739 6633   5.509   7.034   2.819  0.1494 -2.2312 -0.3451
    8MOL   H740 6634   5.582   7.130   2.687 -1.2422 -0.3874  0.6361
    8MOL   H741 6635   5.752   6.963   2.661 -0.4829 -1.5999 -0.1211
    8MOL   H742 6636   5.725   6.903   2.825 -1.4905  0.0906  1.1123
    8MOL   H743 6637   5.542   6.868   2.574 -0.4589  1.9753  0.8293
    8MOL   H744 6638   5.489   6.812   2.723 -1.4855 -5.0439 -2.0656
    8MOL   H745 6639   5.726   6.694   2.570  0.0668  0.4837  0.3135
    8MOL   H746 6640   5.697   6.653   2.734 -0.4377  0.2704  0.0542
    8MOL   H747 6641   5.578   6.490   2.647 -0.5952 -0.4685  0.5079
    8MOL   H748 6642   5.442   6.593   2.626 -0.3195  0.9836 -1.4689
    8MOL   H749 6643   5.502   6.664   2.400  1.3139  0.0596  0.4965
    8MOL   H750 6644   5.646   6.566   2.406  0.1792 -0.0796 -0.8068
    8MOL   H751 6645   5.352   6.476   2.409 -0.0905 -2.9064  2.0169
    8MOL   H752 6646   5.458   6.460   2.276  0.8878 -0.3684  0.0735
    8MOL   H753 6647   5.519   6.307   2.518 -2.6229  1.7151  0.5461
    8MOL   H754 6648   5.602   6.293   2.369  0.0143  0.8001  1.1487
    8MOL   H755 6649   5.444   6.131   2.310 -0.3384 -1.7895  2.2718
    8MOL   H756 6650   5.320   6.259   2.324 -0.1471 -0.5923 -1.3715
    8MOL   H757 6651   5.382   6.163   2.467 -1.3410 -0.3325 -0.7634
    8MOL   C758 6652   5.894   7.533   3.103  0.0106  0.1765  0.3580
    8MOL   C759 6653   5.792   7.635   3.172  0.4508 -0.6152  0.1810
    8MOL   C760 6654   5.853   7.684   3.307  0.2813  0.1157  0.4075
    8MOL   C761 6655   5.984   0.073   3.308 -0.0228  0.0360  0.0503
    8MOL   C762 6656   6.032   0.131   3.437 -0.1417  0.0970 -0.9967
    8MOL   C763 6657   6.133   0.244   3.427  0.3756 -0.2854  0.1051
    8MOL   C764 6658   6.270   0.185   3.388  0.5318  0.0485 -0.0286
    8MOL   C765 6659   6.374   0.300   3.391  0.5844  0.5704 -0.0997
    8MOL   C766 6660   6.510   0.254   3.379 -0.7049  0.3303 -0.0284
    8MOL   C767 6661   6.554   0.195   3.247 -0.2190 -0.0332 -0.6077
    8MOL   C768 6662   6.708   0.153   3.242 -0.1519  0.2272  0.0237
    8MOL   C769 6663   6.740   0.041   3.346 -0.7984  0.1249 -1.0959
    8MOL   C770 6664   6.888   0.003   3.327 -0.2554  0.3442 -0.6102
    8MOL   C771 6665   6.924   7.569   3.404  0.1792 -0.4567  0.2466
    8MOL   H772 6666   5.928   7.454   3.170  1.9933 -0.3365 -1.2036
    8MOL   H773 6667   5.981   7.586   3.065 -0.0425  0.6151  0.8433
    8MOL   H774 6668   5.704   7.577   3.199  2.0128 -2.3795  1.5591
    8MOL   H775 6669   5.773   0.036   3.363  1.2079  4.6347 -1.8991
    8MOL   H776 6670   5.876   7.588   3.353  2.1139  0.1222 -0.4556
    8MOL   H777 6671   6.064   0.014   3.262  1.1939  1.5767  0.1275
    8MOL   H778 6672   5.976   0.154   3.236 -2.4653 -0.4336 -0.2237
    8MOL   H779 6673   6.079   0.068   3.512  0.2336  1.3013 -0.2105
    8MOL   H780 6674   5.944   0.158   3.496  1.9812 -1.1606  2.8847
    8MOL   H781 6675   6.147   0.297   3.521 -0.4402 -0.4847  0.3407
    8MOL   H782 6676   6.096   0.315   3.353 -0.5927 -1.2049 -0.3148
    8MOL   H783 6677   6.307   0.122   3.470  1.8006 -0.2764 -0.8249
    8MOL   H784 6678   6.288   0.125   3.299 -0.1127  0.6326 -0.5581
    8MOL   H785 6679   6.377   0.346   3.489 -1.0771  0.5016 -0.0064
    8MOL   H786 6680   6.359   0.380   3.317 -1.9111 -1.8711 -2.3586
    8MOL   H787 6681   6.521   0.183   3.462 -0.3063 -0.5028 -0.7828
    8MOL   H788 6682   6.580   0.335   3.400 -0.1954 -0.5281  1.7565
    8MOL   H789 6683   6.542   0.271   3.170  0.7521 -0.3752 -1.1037
    8MOL   H790 6684   6.491   0.110   3.218  0.0540 -0.6128  0.4874
    8MOL   H791 6685   6.732   0.119   3.141  0.5190  0.5404  0.0765
    8MOL   H792 6686   6.766   0.244   3.259  2.0325 -1.1124 -0.0144
    8MOL   H793 6687   6.719   0.074   3.448  1.4412  0.1562 -0.6114
    8MOL   H794 6688   6.682   7.645   3.337 -0.7246 -0.2025  1.4150
    8MOL   H795 6689   6.914   7.681   3.222 -1.7568  1.5034 -1.1952
    8MOL   H796 6690   6.950   0.087   3.359  0.2010 -0.4516  0.6370
    8MOL   H797 6691   6.933   7.601   3.507  0.3108 -0.7935  0.3400
    8MOL   H798 6692   6.852   7.489   3.387  0.3199 -0.4267 -0.5234
    8MOL   H799 6693   7.022   7.533   3.372 -0.5615 -2.4101  0.0902
    8MOL   C800 6694   5.742   0.057   3.082  0.1657  0.2173  0.9859
    8MOL   C801 6695   5.653   0.160   3.157  0.0893 -0.2919 -0.4047
    8MOL   C802 6696   5.592   0.263   3.063  0.5068  1.2231 -0.1875
    8MOL   C803 6697   5.491   0.365   3.122 -0.1002 -0.2205  0.1578
    8MOL   C804 6698   5.424   0.456   3.018  0.0756  0.1267 -0.1590
    8MOL   C805 6699   5.358   0.591   3.068  0.3086  0.1727  0.5441
    8MOL   C806 6700   5.305   0.671   2.944 -0.0545 -0.1282 -0.2119
    8MOL   C807 6701   5.254   0.811   2.984  0.1852 -0.0683 -0.0876
    8MOL   C808 6702   5.203   0.889   2.854 -0.0394  0.4496  0.0107
    8MOL   C809 6703   5.092   0.826   2.773 -0.0593  1.2406  0.3271
    8MOL   C810 6704   5.025   0.919   2.678  0.1916 -0.4491  0.1771
    8MOL   C811 6705   4.963   0.853   2.559 -0.1717 -0.4581  0.0708
    8MOL   C812 6706   4.874   0.957   2.478  0.9667 -0.5025  0.9389
    8MOL   C813 6707   4.832   0.911   2.338 -0.6752  0.3273 -0.0476
    8MOL   H814 6708   5.690   0.023   2.993  3.2509 -1.7989 -0.1552
    8MOL   H815 6709   5.834   0.087   3.031  0.1445 -0.1076  0.7511
    8MOL   H816 6710   5.714   0.215   3.229 -0.7482 -0.1970  0.2409
    8MOL   H817 6711   5.544   0.209   2.981  0.8376  1.8588 -0.8067
    8MOL   H818 6712   5.673   0.317   3.015  1.1389  2.2082  1.9368
    8MOL   H819 6713   5.542   0.425   3.198 -1.4683  0.7955  0.3093
    8MOL   H820 6714   5.418   0.317   3.187  2.5073 -3.8611  0.5176
    8MOL   H821 6715   5.502   0.483   2.946 -0.5754  1.8671 -0.2318
    8MOL   H822 6716   5.361   0.390   2.958 -0.9140  0.5669  0.3942
    8MOL   H823 6717   5.437   0.654   3.109 -0.0584  1.4499 -0.6528
    8MOL   H824 6718   5.285   0.573   3.147 -0.5336 -2.3703 -0.7707
    8MOL   H825 6719   5.387   0.678   2.872  1.4324 -0.7462  1.3690
    8MOL   H826 6720   5.216   0.620   2.909 -0.1113 -1.5662  1.9883
    8MOL   H827 6721   5.169   0.812   3.052 -0.7364 -0.1931 -1.2236
    8MOL   H828 6722   5.327   0.879   3.027  0.0623 -0.8854  1.4196
    8MOL   H829 6723   5.162   0.983   2.891 -0.7428 -0.4064  1.4477
    8MOL   H830 6724   5.285   0.915   2.787 -0.3041 -1.8759 -1.2559
    8MOL   H831 6725   5.019   0.786   2.843  0.4862  1.7914  1.2240
    8MOL   H832 6726   5.115   0.735   2.719 -0.3751  2.0913 -1.2642
    8MOL   H833 6727   4.954   0.984   2.729 -2.8498 -2.0936 -1.8170
    8MOL   H834 6728   5.104   0.982   2.638  1.7383 -2.0890  0.5616
    8MOL   H835 6729   4.893   0.774   2.588 -1.3782  1.5870  2.8837
    8MOL   H836 6730   5.042   0.805   2.502  1.7715  0.0975  2.2258
    8MOL   H837 6731   4.786   0.996   2.528 -0.2127 -2.2883  0.3057
    8MOL   H838 6732   4.936   1.045   2.462  1.2905 -0.8450  0.2651
    8MOL   H839 6733   4.771   0.991   2.295  1.2451  1.5140 -0.6421
    8MOL   H840 6734   4.916   0.899   2.270 -0.3494  0.0446  0.3949
    8MOL   H841 6735   4.778   0.817   2.345  1.6162 -0.9471  1.8188
    8MOL   H842 6736   5.580   0.113   3.223 -0.0763  4.0318  2.7482
    9MOL     C1 6737   4.942   3.862   1.486  0.0869 -1.0731  0.2526
    9MOL     C2 6738   5.072   3.911   1.568  1.1857 -0.9677 -0.0862
    9MOL     C3 6739   5.163   3.997   1.480  0.3171 -0.3650  0.8024
    9MOL     C4 6740   5.310   3.997   1.537  0.2554 -0.1553 -0.4925
    9MOL     C5 6741   5.402   4.100   1.473  0.4857  0.4988 -0.4732
    9MOL     C6 6742   5.375   4.235   1.522  0.0600 -0.2558  0.2004
    9MOL     C7 6743   5.491   4.332   1.503  0.1475  0.6572  0.1688
    9MOL     C8 6744   5.507   4.447   1.598  0.3912  0.3386  0.4576
    9MOL     C9 6745   5.634   4.530   1.571 -0.4010  0.5640 -0.1731
    9MOL    C10 6746   5.634   4.667   1.645 -0.4714 -0.2228  0.1660
    9MOL    C11 6747   5.778   4.727   1.643 -0.3272  0.2084 -0.3162
    9MOL    C12 6748   5.789   4.842   1.748  0.2848  0.1260  0.2693
    9MOL    C13 6749   5.923   4.909   1.745 -0.2894  0.4972  0.2536
    9MOL    C14 6750   5.939   5.000   1.630  0.3198 -0.3925 -0.4398
    9MOL    H15 6751   4.973   3.818   1.390 -0.4047  1.2494 -0.9937
    9MOL    H16 6752   4.872   3.943   1.465  3.8835  2.1732 -0.4551
    9MOL    H17 6753   5.123   3.820   1.600 -0.0870 -1.0472  1.7789
    9MOL    H18 6754   5.156   3.958   1.379  3.0746  0.8052  0.0965
    9MOL    H19 6755   5.125   4.098   1.467  0.2998 -0.3505  0.9605
    9MOL    H20 6756   5.353   3.900   1.512 -0.7555 -0.5972 -0.5214
    9MOL    H21 6757   5.324   4.014   1.644 -0.6888  1.3896 -0.5985
    9MOL    H22 6758   5.412   4.079   1.367 -0.3551  0.1623 -0.4854
    9MOL    H23 6759   5.497   4.080   1.525 -0.4573 -0.1858  1.0235
    9MOL    H24 6760   5.354   4.239   1.629  0.0111  1.9510  0.1312
    9MOL    H25 6761   5.283   4.274   1.479  0.9016  0.7056 -0.7390
    9MOL    H26 6762   5.581   4.275   1.524  2.4633  3.7689 -0.8796
    9MOL    H27 6763   5.481   4.368   1.400 -1.1709  2.6323  0.9600
    9MOL    H28 6764   5.519   4.406   1.698 -0.8147 -1.2275 -0.0314
    9MOL    H29 6765   5.421   4.514   1.605  0.0639 -0.0892  0.4914
    9MOL    H30 6766   5.717   4.468   1.604 -1.6704 -1.1908 -0.2194
    9MOL    H31 6767   5.652   4.539   1.464  1.7373  0.7011  0.1841
    9MOL    H32 6768   5.555   4.735   1.614 -1.3772 -1.2883  0.0952
    9MOL    H33 6769   5.614   4.633   1.746 -0.8729 -1.3486 -0.2809
    9MOL    H34 6770   5.847   4.649   1.677 -1.0000  0.1193  0.8690
    9MOL    H35 6771   5.798   4.766   1.543 -0.5304 -1.0842 -0.8709
    9MOL    H36 6772   5.761   4.802   1.845 -1.0472 -2.2740 -1.0448
    9MOL    H37 6773   5.712   4.917   1.732 -0.8655 -0.4864  2.7036
    9MOL    H38 6774   5.935   4.973   1.832  0.9283  0.1415  0.3678
    9MOL    H39 6775   5.998   4.830   1.755 -0.6436 -0.0393 -1.1263
    9MOL    H40 6776   5.951   4.952   1.533 -1.6720 -1.5132 -0.1654
    9MOL    H41 6777   5.851   5.065   1.636 -0.5817 -1.6587  0.6646
    9MOL    H42 6778   6.025   5.064   1.650 -0.0330  0.0426 -0.3093
    9MOL    H43 6779   4.890   3.785   1.543 -1.8173 -1.3714 -1.8026
    9MOL    C44 6780   5.032   3.975   1.700 -0.2931 -0.0209  0.6034
    9MOL    C45 6781   5.057   3.897   1.829  0.5348  0.0309  0.0263
    9MOL    C46 6782   4.979   3.761   1.839 -0.2271 -0.6148 -0.1094
    9MOL    C47 6783   4.825   3.778   1.832 -1.0488 -0.0157 -0.0365
    9MOL    C48 6784   4.744   3.669   1.887  0.6929 -0.3083  0.3332
    9MOL    C49 6785   4.595   3.716   1.893 -0.1985  0.0743  0.4539
    9MOL    C50 6786   4.490   3.607   1.925 -0.7184  0.0410  0.2173
    9MOL    C51 6787   4.344   3.639   1.914  0.4656  0.1620 -0.0178
    9MOL    C52 6788   4.266   3.499   1.920  0.2792 -0.4072  0.6461
    9MOL    C53 6789   4.124   3.517   1.861 -0.2432  0.3021  0.2426
    9MOL    C54 6790   4.024   3.592   1.955 -0.6197 -0.0624 -0.0014
    9MOL    C55 6791   3.882   3.572   1.899  0.1108  0.3175 -0.2146
    9MOL    C56 6792   3.775   3.650   1.973  0.5330 -0.0206 -0.5936
    9MOL    C57 6793   3.769   3.800   1.929  0.4881 -0.5237  0.3230
    9MOL    H58 6794   5.087   4.068   1.702 -0.1370 -0.0957 -0.0923
    9MOL    H59 6795   4.926   4.003   1.699 -0.1730  0.3809 -1.1885
    9MOL    H60 6796   5.162   3.869   1.834 -0.1634 -2.9515 -0.8629
    9MOL    H61 6797   5.010   3.696   1.757  0.5804 -0.0709 -0.2341
    9MOL    H62 6798   5.011   3.718   1.934  1.2149 -0.2335 -0.4183
    9MOL    H63 6799   4.798   3.801   1.729  1.7613 -2.0739 -1.2974
    9MOL    H64 6800   4.790   3.868   1.883  0.0720  0.5014 -0.1602
    9MOL    H65 6801   4.779   3.642   1.987 -4.0693  0.1822  2.2846
    9MOL    H66 6802   4.745   3.582   1.821 -0.5214  0.7239 -1.0916
    9MOL    H67 6803   4.587   3.798   1.965 -0.4969  0.1357  0.3515
    9MOL    H68 6804   4.566   3.762   1.799 -1.3558 -2.0700 -0.2463
    9MOL    H69 6805   4.526   3.522   1.868 -1.0311 -0.1215  0.2622
    9MOL    H70 6806   4.505   3.578   2.029 -0.9796 -2.4004 -0.4076
    9MOL    H71 6807   4.332   3.682   1.815 -0.4207  3.2009  1.3511
    9MOL    H72 6808   4.314   3.709   1.992 -2.7990 -2.9810  1.7028
    9MOL    H73 6809   4.325   3.420   1.871  1.0464  1.4923 -1.5984
    9MOL    H74 6810   4.254   3.482   2.027 -0.4666  0.3477  0.6823
    9MOL    H75 6811   4.098   3.413   1.842  1.1720  0.3297 -2.0626
    9MOL    H76 6812   4.133   3.569   1.766 -1.4580 -2.4832 -1.4310
    9MOL    H77 6813   4.046   3.699   1.959 -0.2910 -0.1706  1.5054
    9MOL    H78 6814   4.032   3.558   2.059 -0.6567  2.2913  0.8077
    9MOL    H79 6815   3.876   3.597   1.793 -4.3391  1.2581  0.1535
    9MOL    H80 6816   3.858   3.466   1.905  1.2653  0.0149 -0.6647
    9MOL    H81 6817   3.797   3.653   2.080  1.7801  3.6236 -0.9088
    9MOL    H82 6818   3.675   3.610   1.955 -0.0177  1.0133  0.1375
    9MOL    H83 6819   3.692   3.844   1.992 -0.3039 -2.1061  0.4772
    9MOL    H84 6820   3.733   3.802   1.826 -2.5187 -0.0647  1.3437
    9MOL    H85 6821   3.864   3.854   1.930  0.9877 -1.3124 -1.4504
    9MOL    C86 6822   5.033   3.986   1.951 -1.2250 -0.4465 -0.1854
    9MOL    C87 6823   5.120   4.114   1.965 -0.0863 -0.2211  0.5242
    9MOL    C88 6824   5.265   4.069   2.005  0.2445  0.4565  0.0286
    9MOL    C89 6825   5.375   4.162   1.965  0.9341 -0.3335 -0.4007
    9MOL    C90 6826   5.512   4.105   1.987 -0.9405 -0.0149  0.7044
    9MOL    C91 6827   5.619   4.210   1.978 -0.1209  0.0097  0.1662
    9MOL    C92 6828   5.759   4.151   1.982  0.0266 -0.1531 -0.0960
    9MOL    C93 6829   5.866   4.253   1.988 -0.3276  0.5302  0.4368
    9MOL    C94 6830   6.003   4.197   1.943  0.0346 -0.1964  0.1876
    9MOL    C95 6831   6.054   4.095   2.040  0.5961 -0.1221 -0.1111
    9MOL    C96 6832   6.196   4.049   2.016 -0.0447  0.7837 -0.6041
    9MOL    C97 6833   6.265   3.950   2.111 -0.1492  0.7015 -0.2379
    9MOL    C98 6834   6.401   3.906   2.066 -0.0392 -0.0373 -0.5387
    9MOL    C99 6835   6.446   3.777   2.138 -0.2819  0.2741 -0.0024
    9MOL   H100 6836   4.928   4.015   1.955 -0.8353  0.9955 -0.3546
    9MOL   H101 6837   5.055   3.927   2.040 -1.3517 -0.5083 -0.1947
    9MOL   H102 6838   5.127   4.163   1.868  0.7663 -2.0183 -0.3439
    9MOL   H103 6839   5.263   4.073   2.114 -0.8274  1.9460 -0.0323
    9MOL   H104 6840   5.290   3.966   1.980  0.8033  0.5684  0.1103
    9MOL   H105 6841   5.372   4.190   1.860  1.5181  1.1240 -0.0465
    9MOL   H106 6842   5.374   4.261   2.010 -0.8849  0.5230 -2.2323
    9MOL   H107 6843   5.540   4.027   1.916 -0.3579  2.0321 -1.3908
    9MOL   H108 6844   5.516   4.069   2.090 -1.7719 -0.2993  0.6354
    9MOL   H109 6845   5.615   4.275   2.066 -1.5366 -1.8507  1.5201
    9MOL   H110 6846   5.606   4.279   1.895 -0.8510  0.7584  0.8818
    9MOL   H111 6847   5.771   4.076   2.060  1.1006  1.3551  1.2334
    9MOL   H112 6848   5.765   4.095   1.889 -1.9327  0.0752 -0.3912
    9MOL   H113 6849   5.875   4.305   2.083  0.8835  1.2429 -0.0531
    9MOL   H114 6850   5.855   4.339   1.922  1.6565  0.3073 -0.2451
    9MOL   H115 6851   5.993   4.149   1.846  1.3477  0.6451 -0.3803
    9MOL   H116 6852   6.080   4.274   1.930 -0.7612  1.0685  2.5890
    9MOL   H117 6853   5.991   4.006   2.038 -0.9378  0.9704 -1.3600
    9MOL   H118 6854   6.052   4.128   2.144  0.2456 -0.1780 -0.0994
    9MOL   H119 6855   6.193   4.003   1.918 -1.7725  0.0579 -0.2266
    9MOL   H120 6856   6.271   4.128   2.006  0.5649  0.1552 -1.0414
    9MOL   H121 6857   6.261   3.985   2.214  0.3453  2.1616 -0.7000
    9MOL   H122 6858   6.193   3.868   2.114  0.2624  0.3322 -0.3867
    9MOL   H123 6859   6.474   3.976   2.107 -0.9103  0.8434 -0.4761
    9MOL   H124 6860   6.411   3.899   1.958  1.6873  0.6071 -0.4397
    9MOL   H125 6861   6.394   3.684   2.115  1.8596 -1.3880  1.7006
    9MOL   H126 6862   6.552   3.767   2.118  0.5109  1.6628  3.1288
    9MOL   H127 6863   6.428   3.788   2.245 -3.3722 -2.4294 -0.1454
    9MOL   C128 6864   5.057   4.205   2.079  0.4100  0.6126 -0.7248
    9MOL   C129 6865   4.939   4.291   2.031 -0.4349 -0.3416  0.2464
    9MOL   C130 6866   4.835   4.326   2.147  0.6968 -0.1233  0.4639
    9MOL   C131 6867   4.746   4.210   2.184  0.4624  0.6916 -0.0799
    9MOL   C132 6868   4.651   4.236   2.293 -0.3397 -0.7575  0.8125
    9MOL   C133 6869   4.545   4.138   2.342 -0.1091 -0.1599  0.0450
    9MOL   C134 6870   4.487   4.160   2.480 -0.2064  0.1926 -0.8743
    9MOL   C135 6871   4.585   4.147   2.599 -0.3973  0.1631 -1.1002
    9MOL   C136 6872   4.521   4.158   2.739 -0.3420 -0.3784 -0.4147
    9MOL   C137 6873   4.612   4.191   2.855 -0.9343 -0.4995  0.0481
    9MOL   C138 6874   4.536   4.210   2.989  0.2453 -0.2987  0.0767
    9MOL   C139 6875   4.631   4.240   3.112  0.0559  0.2090 -1.0566
    9MOL   C140 6876   4.558   4.284   3.243 -0.3158  0.6056  0.8041
    9MOL   C141 6877   4.495   4.421   3.241 -1.0374 -0.3733  0.5384
    9MOL   H142 6878   5.024   4.146   2.164 -0.1965  1.8846 -0.0670
    9MOL   H143 6879   5.133   4.269   2.124 -2.7628  3.6264  0.5526
    9MOL   H144 6880   4.873   4.228   1.972  0.7122 -1.8053  0.4947
    9MOL   H145 6881   4.891   4.347   2.238  2.7553  2.3775 -1.3470
    9MOL   H146 6882   4.781   4.417   2.125 -1.6512 -1.5012  0.3604
    9MOL   H147 6883   4.682   4.178   2.101 -0.3905 -1.6157  1.4404
    9MOL   H148 6884   4.805   4.120   2.204 -1.4133 -0.4432  0.4154
    9MOL   H149 6885   4.721   4.248   2.375 -1.6274  1.6594  1.6091
    9MOL   H150 6886   4.613   4.337   2.277  0.8546 -0.7065 -2.0256
    9MOL   H151 6887   4.460   4.135   2.275  0.2392 -1.3676 -0.3452
    9MOL   H152 6888   4.598   4.043   2.346 -0.2373 -0.2709 -0.8438
    9MOL   H153 6889   4.423   4.247   2.494  0.4033  0.0268  3.6211
    9MOL   H154 6890   4.422   4.072   2.486 -0.9298  0.8394  1.1492
    9MOL   H155 6891   4.650   4.060   2.588 -1.8423 -1.3577  1.8620
    9MOL   H156 6892   4.641   4.239   2.580 -0.2059  0.2763 -0.0205
    9MOL   H157 6893   4.455   4.245   2.739  1.7989  1.2979  1.0222
    9MOL   H158 6894   4.466   4.065   2.754  0.1793 -1.1322 -2.8788
    9MOL   H159 6895   4.662   4.282   2.822 -2.3762 -0.9051 -3.4782
    9MOL   H160 6896   4.683   4.111   2.874 -1.0331 -0.5578  0.1702
    9MOL   H161 6897   4.460   4.287   2.990  0.3729 -0.1781  0.6451
    9MOL   H162 6898   4.485   4.115   3.006 -2.1908  0.7074 -1.4294
    9MOL   H163 6899   4.691   4.151   3.133  2.6308  2.0723 -0.2638
    9MOL   H164 6900   4.703   4.316   3.082  1.1251  0.0918  1.1406
    9MOL   H165 6901   4.479   4.210   3.250  0.5698 -0.4137  0.1741
    9MOL   H166 6902   4.636   4.272   3.318  0.2890  0.7668  0.2091
    9MOL   H167 6903   4.568   4.490   3.199  0.5493 -1.2146  1.8520
    9MOL   H168 6904   4.408   4.436   3.177 -0.7510 -1.7142 -0.1747
    9MOL   H169 6905   4.491   4.466   3.341  0.4395  0.4830  0.2345
    9MOL   C170 6906   4.988   4.431   1.966 -0.4405  0.5133  0.0560
    9MOL   C171 6907   5.056   4.429   1.829  0.2902  0.6117  0.1899
    9MOL   C172 6908   4.948   4.398   1.725 -0.0616  0.3447 -0.0874
    9MOL   C173 6909   5.008   4.368   1.587 -0.3852 -0.0932 -0.0603
    9MOL   C174 6910   4.925   4.285   1.495  0.0578  0.1473 -0.0615
    9MOL   C175 6911   4.808   4.354   1.439  0.1035  0.1219  0.4487
    9MOL   C176 6912   4.720   4.261   1.347  0.2011  0.3664 -0.6007
    9MOL   C177 6913   4.613   4.337   1.275 -0.4964 -0.1470  0.2422
    9MOL   C178 6914   4.518   4.246   1.197  0.2463 -0.1338 -0.3566
    9MOL   C179 6915   4.395   4.309   1.141 -0.5807 -0.1582 -0.3277
    9MOL   C180 6916   4.303   4.203   1.083  0.3614 -0.1667 -0.4620
    9MOL   C181 6917   4.159   4.247   1.055  0.1499  0.2074 -0.6982
    9MOL   C182 6918   4.078   4.134   1.018 -0.0119 -0.4062 -0.3083
    9MOL   C183 6919   3.945   4.173   0.963 -0.1809  0.1000  0.3279
    9MOL   H184 6920   5.056   4.475   2.039 -0.5600  0.4068  0.2308
    9MOL   H185 6921   4.895   4.486   1.965 -0.7239  0.0798  1.3708
    9MOL   H186 6922   5.142   4.362   1.826 -0.6017 -0.6161  1.3537
    9MOL   H187 6923   4.908   4.304   1.763  1.5094  0.1701  1.1949
    9MOL   H188 6924   4.871   4.475   1.721  1.2798  1.6773 -0.4330
    9MOL   H189 6925   5.044   4.458   1.538  0.2405 -1.1496 -1.6004
    9MOL   H190 6926   5.099   4.310   1.602  0.0025  0.1226 -1.4629
    9MOL   H191 6927   4.985   4.248   1.412 -0.5887 -4.0587  1.2279
    9MOL   H192 6928   4.900   4.195   1.552  1.8043 -0.8491 -0.8276
    9MOL   H193 6929   4.856   4.421   1.368  0.1316 -1.0668 -0.6745
    9MOL   H194 6930   4.752   4.415   1.510 -0.2995  0.7916 -0.4387
    9MOL   H195 6931   4.670   4.184   1.406  0.1245  1.1434  0.3559
    9MOL   H196 6932   4.782   4.205   1.277  1.3500  0.6904  0.1434
    9MOL   H197 6933   4.650   4.412   1.205  0.2751 -0.5429  0.2298
    9MOL   H198 6934   4.559   4.391   1.353  0.3836  2.6060 -0.9864
    9MOL   H199 6935   4.487   4.164   1.262  0.9370  0.9754  1.3729
    9MOL   H200 6936   4.577   4.193   1.122 -0.1988 -2.1151  0.6594
    9MOL   H201 6937   4.412   4.378   1.059  0.2668  1.8603  1.4957
    9MOL   H202 6938   4.341   4.375   1.210  0.9188 -0.4709  1.1808
    9MOL   H203 6939   4.297   4.126   1.160  0.2965 -0.0864 -0.3857
    9MOL   H204 6940   4.336   4.154   0.992  0.6739  0.9938 -0.9881
    9MOL   H205 6941   4.119   4.291   1.147  1.9499 -0.3923  0.3996
    9MOL   H206 6942   4.157   4.328   0.982  0.4240 -1.6456 -2.7832
    9MOL   H207 6943   4.133   4.084   0.939  1.4341  1.6899 -0.6414
    9MOL   H208 6944   4.071   4.063   1.101 -2.6177 -0.6524 -0.6930
    9MOL   H209 6945   3.960   4.229   0.870 -0.0417 -0.7832 -0.1896
    9MOL   H210 6946   3.891   4.238   1.032  1.4350  0.7166  1.0264
    9MOL   H211 6947   3.879   4.089   0.944 -2.1216  1.8897 -1.1771
    9MOL   C212 6948   5.103   4.572   1.795 -0.0908 -0.1460  0.6054
    9MOL   C213 6949   5.200   4.646   1.884  0.0022 -0.4836  0.1993
    9MOL   C214 6950   5.327   4.562   1.917 -0.6192 -0.2257 -0.6020
    9MOL   C215 6951   5.421   4.635   2.006  0.0978  0.1515  0.0092
    9MOL   C216 6952   5.508   4.552   2.090 -0.5367  0.4355 -1.1059
    9MOL   C217 6953   5.608   4.620   2.185  0.2358  0.0359  0.2265
    9MOL   C218 6954   5.712   4.693   2.109 -0.2279  0.4911  0.2126
    9MOL   C219 6955   5.836   4.744   2.196  0.4914  0.2827  0.3054
    9MOL   C220 6956   5.912   4.850   2.119 -0.6351  0.2995 -0.0915
    9MOL   C221 6957   6.037   4.901   2.189 -0.3553  0.3039  0.4882
    9MOL   C222 6958   6.108   4.992   2.084  0.5141  0.1508  0.0764
    9MOL   C223 6959   6.228   5.070   2.144  0.6085 -0.2405  0.0489
    9MOL   C224 6960   6.329   5.137   2.053 -0.3658 -0.2631 -0.4526
    9MOL   C225 6961   6.445   5.197   2.124 -0.0116 -0.5023 -0.2862
    9MOL   H226 6962   5.019   4.641   1.797 -0.5570 -0.6726 -0.4694
    9MOL   H227 6963   5.137   4.574   1.692 -1.6099 -0.1416  0.0981
    9MOL   H228 6964   5.140   4.673   1.971 -3.5969 -0.3949 -2.1836
    9MOL   H229 6965   5.290   4.470   1.963  1.7088 -0.2852  1.1892
    9MOL   H230 6966   5.380   4.532   1.826  0.9209 -1.8157  0.7725
    9MOL   H231 6967   5.363   4.705   2.065 -0.7362 -0.0182 -0.6048
    9MOL   H232 6968   5.485   4.695   1.942  2.2566 -0.4785  1.4923
    9MOL   H233 6969   5.559   4.474   2.032  1.0888 -0.2776  1.1877
    9MOL   H234 6970   5.446   4.493   2.158  3.0460 -0.0801  1.8863
    9MOL   H235 6971   5.658   4.543   2.244  0.3694 -0.3223 -0.3470
    9MOL   H236 6972   5.557   4.684   2.257  0.7902  0.3104  0.3783
    9MOL   H237 6973   5.748   4.635   2.024  1.7252  0.7839  0.8045
    9MOL   H238 6974   5.666   4.775   2.054  1.2040  0.8578 -0.4825
    9MOL   H239 6975   5.788   4.777   2.289  1.5177 -1.0400  1.3154
    9MOL   H240 6976   5.902   4.661   2.220  1.0164  0.3149 -0.9871
    9MOL   H241 6977   5.845   4.935   2.106 -0.8041  0.8878  4.1400
    9MOL   H242 6978   5.941   4.801   2.026 -0.3488 -1.2052  0.7694
    9MOL   H243 6979   6.026   4.942   2.290  1.2441 -0.9887  1.2003
    9MOL   H244 6980   6.108   4.819   2.199  0.6007  0.8689 -1.4575
    9MOL   H245 6981   6.035   5.065   2.051  0.1040 -0.3892 -0.2075
    9MOL   H246 6982   6.132   4.936   1.994  0.8286  1.2692 -0.5472
    9MOL   H247 6983   6.288   4.991   2.188 -0.5753 -1.1125  0.1242
    9MOL   H248 6984   6.196   5.130   2.229  1.2217  1.9942 -1.2514
    9MOL   H249 6985   6.277   5.215   1.997  1.6751  0.2993 -1.6435
    9MOL   H250 6986   6.381   5.073   1.981  2.0748 -0.2824  1.2670
    9MOL   H251 6987   6.502   5.120   2.176 -0.0635  0.7249  1.6208
    9MOL   H252 6988   6.506   5.246   2.047 -1.7405  1.6892 -0.3093
    9MOL   H253 6989   6.433   5.271   2.202  1.3696 -0.8690  0.2974
    9MOL   C254 6990   5.245   4.783   1.814 -0.2528  0.4715 -0.6017
    9MOL   C255 6991   5.145   4.900   1.795  0.1424  0.0581 -0.3956
    9MOL   C256 6992   5.147   4.992   1.913 -0.0387  0.1367 -0.2585
    9MOL   C257 6993   5.031   5.097   1.919 -0.9308 -0.4195 -0.3965
    9MOL   C258 6994   5.043   5.182   2.045 -0.2202  0.4821 -0.0710
    9MOL   C259 6995   4.932   5.287   2.059  0.1252  0.3916 -0.4480
    9MOL   C260 6996   4.981   5.385   2.169  0.6126 -0.3699  0.0163
    9MOL   C261 6997   4.872   5.492   2.213  0.3949  0.3720 -0.3061
    9MOL   C262 6998   4.890   5.522   2.356  0.3757 -0.1142  0.1255
    9MOL   C263 6999   4.814   5.648   2.387  0.2056 -0.6897 -0.5357
    9MOL   C264 7000   4.836   5.682   2.534  0.5001 -0.1575 -0.0078
    9MOL   C265 7001   4.775   5.584   2.632  0.0615  0.0552  0.1637
    9MOL   C266 7002   4.812   5.598   2.778 -1.2545  0.4452  0.7856
    9MOL   C267 7003   4.715   5.524   2.869 -0.8294 -0.3207  0.3256
    9MOL   H268 7004   5.281   4.750   1.717  0.9480  1.8355 -0.6309
    9MOL   H269 7005   5.334   4.821   1.863 -1.6209 -0.1451  2.5266
    9MOL   H270 7006   5.046   4.854   1.803  0.2479  0.2879  2.6277
    9MOL   H271 7007   5.243   5.043   1.917  1.0196 -1.8508  0.5438
    9MOL   H272 7008   5.142   4.937   2.007  1.5263  2.1980  1.0800
    9MOL   H273 7009   4.933   5.050   1.921 -1.8602  1.4886  0.3401
    9MOL   H274 7010   5.038   5.161   1.830  2.2418 -1.2869 -0.8273
    9MOL   H275 7011   5.146   5.215   2.058 -1.0359  3.0177  0.0447
    9MOL   H276 7012   5.037   5.119   2.134  1.7438  0.8089  0.3219
    9MOL   H277 7013   4.839   5.243   2.094 -0.8630  2.1895 -0.7752
    9MOL   H278 7014   4.922   5.336   1.962 -0.0954  1.0964 -0.0638
    9MOL   H279 7015   5.014   5.332   2.259  0.2015 -0.0308  0.3711
    9MOL   H280 7016   5.070   5.440   2.139 -0.8839  1.8124 -0.5447
    9MOL   H281 7017   4.768   5.467   2.190  0.3652 -0.3075  0.5275
    9MOL   H282 7018   4.885   5.581   2.153 -1.2787  1.0358  0.2727
    9MOL   H283 7019   4.859   5.431   2.408  0.4086  0.1731  0.6436
    9MOL   H284 7020   4.998   5.538   2.365  0.3976  0.2325 -0.7178
    9MOL   H285 7021   4.706   5.639   2.374  0.4403 -1.9264 -1.7809
    9MOL   H286 7022   4.845   5.733   2.327  1.5159 -1.0996 -0.4531
    9MOL   H287 7023   4.798   5.783   2.551 -0.0968 -0.4681  0.5443
    9MOL   H288 7024   4.944   5.676   2.544  0.4072 -0.2618  1.0340
    9MOL   H289 7025   4.669   5.608   2.630  0.1303  0.4242 -3.4700
    9MOL   H290 7026   4.785   5.477   2.612 -2.5797 -0.1492 -0.2794
    9MOL   H291 7027   4.910   5.552   2.792 -0.7006  1.5913  0.7257
    9MOL   H292 7028   4.824   5.703   2.804 -0.8566  1.0919 -1.8077
    9MOL   H293 7029   4.626   5.582   2.893 -0.2918  0.0635  1.3869
    9MOL   H294 7030   4.761   5.498   2.964 -0.8455 -0.1058  0.3921
    9MOL   H295 7031   4.693   5.427   2.825 -1.4867  0.1640 -0.4383
    9MOL   C296 7032   5.154   4.962   1.654  0.1022  0.0739 -0.3157
    9MOL   C297 7033   5.096   4.880   1.532  0.7102  0.5921  1.1047
    9MOL   C298 7034   4.950   4.906   1.528 -0.1829  0.7003 -0.0893
    9MOL   C299 7035   4.876   4.792   1.462  0.0865  0.5857 -0.0384
    9MOL   C300 7036   4.721   4.814   1.435 -0.5180  0.1551  0.5297
    9MOL   C301 7037   4.659   4.729   1.321  0.0978 -0.0723 -0.3659
    9MOL   C302 7038   4.514   4.779   1.291 -0.3881 -0.5826 -0.3349
    9MOL   C303 7039   4.450   4.717   1.165  0.7095 -0.3636  0.0881
    9MOL   C304 7040   4.302   4.746   1.156  0.5671 -0.7714  0.0198
    9MOL   C305 7041   4.250   4.681   1.026  0.2176  0.1286 -0.6189
    9MOL   C306 7042   4.105   4.732   1.004  0.3944 -0.0095 -0.6099
    9MOL   C307 7043   4.032   4.649   0.898  0.3559 -0.2372 -0.5681
    9MOL   C308 7044   3.889   4.698   0.898  0.0190  0.1687  0.1401
    9MOL   C309 7045   3.807   4.642   0.793  0.1220  0.0117  0.0975
    9MOL   H310 7046   5.260   4.983   1.645 -0.3035  2.6789  0.4969
    9MOL   H311 7047   5.117   5.065   1.651 -2.1186 -0.6228  1.6391
    9MOL   H312 7048   5.113   4.775   1.556 -1.1346 -0.2067 -0.9279
    9MOL   H313 7049   4.924   5.003   1.485 -0.1709  1.6242  1.9456
    9MOL   H314 7050   4.902   4.914   1.625 -1.2333  2.6585 -0.7478
    9MOL   H315 7051   4.870   4.696   1.512 -2.1705  0.3683 -0.6741
    9MOL   H316 7052   4.930   4.766   1.371  0.7421  1.8593 -0.0331
    9MOL   H317 7053   4.664   4.805   1.527 -2.8626 -1.1507 -1.0079
    9MOL   H318 7054   4.720   4.917   1.398  0.3831  0.0171  0.0895
    9MOL   H319 7055   4.663   4.624   1.348 -0.0180  0.1133  0.3833
    9MOL   H320 7056   4.719   4.740   1.230 -0.1900  2.0920 -0.3171
    9MOL   H321 7057   4.449   4.739   1.369 -0.1519 -1.0572 -0.3780
    9MOL   H322 7058   4.490   4.885   1.292 -0.4251 -0.5842  1.1820
    9MOL   H323 7059   4.475   4.611   1.169 -1.2682 -1.0960 -4.5946
    9MOL   H324 7060   4.483   4.756   1.069 -1.7573  1.1992 -0.1656
    9MOL   H325 7061   4.245   4.691   1.230  1.3074  0.6055  1.6456
    9MOL   H326 7062   4.277   4.851   1.171  2.6282 -0.3602  0.7614
    9MOL   H327 7063   4.262   4.573   1.040  1.7664  0.0697 -2.2249
    9MOL   H328 7064   4.308   4.707   0.937  0.6948  3.6116  0.6322
    9MOL   H329 7065   4.096   4.835   0.971 -0.6401 -0.6341 -2.3131
    9MOL   H330 7066   4.053   4.737   1.099  0.4929 -1.5598 -0.4616
    9MOL   H331 7067   4.026   4.543   0.922  1.9219 -0.1120  0.4791
    9MOL   H332 7068   4.065   4.656   0.795  1.0182  1.3944 -0.2711
    9MOL   H333 7069   3.895   4.804   0.872 -1.6085 -0.1534 -1.6334
    9MOL   H334 7070   3.837   4.677   0.992 -0.0239 -1.2393 -0.1940
    9MOL   H335 7071   3.800   4.535   0.808 -0.1186  0.2941  2.0556
    9MOL   H336 7072   3.714   4.697   0.804 -0.2821 -0.0907 -2.3942
    9MOL   H337 7073   3.850   4.649   0.693  0.8794 -0.4477  0.3842
    9MOL   C338 7074   5.169   4.918   1.401 -0.9150 -0.6024 -0.1616
    9MOL   C339 7075   5.311   4.851   1.386 -0.2618  0.5772  0.6206
    9MOL   C340 7076   5.296   4.696   1.380  0.1277  0.1152 -0.4834
    9MOL   C341 7077   5.236   4.648   1.252 -0.3811  0.1311  0.2656
    9MOL   C342 7078   5.233   4.497   1.240  0.1757 -0.4146 -0.4606
    9MOL   C343 7079   5.162   4.457   1.112 -0.3291 -0.3382  0.2958
    9MOL   C344 7080   5.111   4.313   1.100 -0.3870 -0.7988 -0.1778
    9MOL   C345 7081   5.006   4.307   0.994  0.1120  0.5326  0.0560
    9MOL   C346 7082   4.936   4.169   0.992 -0.1590 -0.2165 -0.1842
    9MOL   C347 7083   4.806   4.170   0.908 -0.9599 -0.0079  0.8613
    9MOL   C348 7084   4.736   4.035   0.895  0.0877 -0.7180 -0.2483
    9MOL   C349 7085   4.603   4.055   0.832  0.1390  0.5522  0.0239
    9MOL   C350 7086   4.515   3.931   0.822  0.5548 -0.8422 -0.5974
    9MOL   C351 7087   4.399   3.951   0.729  0.0597  0.3109 -0.7708
    9MOL   H352 7088   5.101   4.901   1.317  0.3467  0.3083 -1.4002
    9MOL   H353 7089   5.178   5.025   1.417 -1.8237 -0.4324 -0.7142
    9MOL   H354 7090   5.351   4.866   1.486  0.4898 -0.4057  0.4798
    9MOL   H355 7091   5.392   4.647   1.393  0.5049  0.3178 -2.4021
    9MOL   H356 7092   5.246   4.653   1.467  0.1067 -0.1376 -0.6213
    9MOL   H357 7093   5.293   4.681   1.165  0.0071 -0.7521  0.1771
    9MOL   H358 7094   5.135   4.688   1.245  0.4363  2.2751  0.4544
    9MOL   H359 7095   5.170   4.451   1.316 -2.3665  1.5361 -1.3297
    9MOL   H360 7096   5.336   4.464   1.254 -0.0496 -0.8134  0.2879
    9MOL   H361 7097   5.085   4.527   1.081 -0.2718 -1.1196 -1.6964
    9MOL   H362 7098   5.239   4.475   1.037  0.4834  2.9199  1.8611
    9MOL   H363 7099   5.198   4.255   1.068 -0.9840 -0.9477 -1.5688
    9MOL   H364 7100   5.074   4.278   1.196  1.5592 -0.1488  0.8399
    9MOL   H365 7101   4.929   4.384   1.002 -0.8349 -0.0515 -2.6851
    9MOL   H366 7102   5.051   4.306   0.895  0.8682 -0.8808  0.4013
    9MOL   H367 7103   5.000   4.093   0.946  0.7427 -0.0668  0.8193
    9MOL   H368 7104   4.914   4.121   1.087 -0.7404 -0.4323 -0.4237
    9MOL   H369 7105   4.738   4.237   0.960 -1.9091 -0.5126  0.2961
    9MOL   H370 7106   4.814   4.207   0.806 -0.9620  0.9397  1.2052
    9MOL   H371 7107   4.709   4.000   0.995 -1.2433  1.3496  0.1599
    9MOL   H372 7108   4.799   3.966   0.839  0.2897  0.0310 -0.9482
    9MOL   H373 7109   4.609   4.073   0.725  2.7978 -1.3772 -0.2238
    9MOL   H374 7110   4.546   4.135   0.879 -1.0991  1.8312 -3.4990
    9MOL   H375 7111   4.571   3.838   0.807 -0.1080 -1.7781  2.3546
    9MOL   H376 7112   4.472   3.932   0.922  0.9848  0.4138 -0.4166
    9MOL   H377 7113   4.324   3.872   0.719  0.5508  0.1011 -3.2912
    9MOL   H378 7114   4.329   4.027   0.764 -1.2196 -1.4985  0.6943
    9MOL   H379 7115   4.436   3.969   0.628 -0.3487  0.6857 -0.8527
    9MOL   C380 7116   5.386   4.918   1.278  0.6529 -0.4829 -0.4778
    9MOL   C381 7117   5.433   5.068   1.322  0.8705 -0.1122 -0.3009
    9MOL   C382 7118   5.533   5.070   1.448  0.1482  0.5958 -0.5881
    9MOL   C383 7119   5.559   5.206   1.516 -0.0757 -0.0453  0.2014
    9MOL   C384 7120   5.447   5.254   1.607  0.2465 -0.2053 -0.6305
    9MOL   C385 7121   5.503   5.361   1.703 -0.0363 -0.3878  0.4968
    9MOL   C386 7122   5.417   5.388   1.824 -0.7097 -0.1919 -0.1015
    9MOL   C387 7123   5.478   5.492   1.926 -0.6384  0.0633 -0.2019
    9MOL   C388 7124   5.381   5.519   2.032 -0.2429 -0.5480  0.6619
    9MOL   C389 7125   5.421   5.632   2.134 -0.2940 -0.1350  0.3523
    9MOL   C390 7126   5.304   5.675   2.225 -0.8519 -0.1239 -0.2724
    9MOL   C391 7127   5.361   5.776   2.328 -0.4662 -0.5021  0.4377
    9MOL   C392 7128   5.265   5.819   2.440  0.2766  0.9043 -0.0422
    9MOL   C393 7129   5.244   5.728   2.559 -0.2487  0.6485 -0.7519
    9MOL   H394 7130   5.314   4.927   1.197 -0.8013  2.2995  1.0466
    9MOL   H395 7131   5.472   4.856   1.253  0.4700 -0.8875 -0.1095
    9MOL   H396 7132   5.352   5.124   1.370  0.8544  1.6202 -2.2796
    9MOL   H397 7133   5.630   5.034   1.413  0.3198  0.3540  0.1448
    9MOL   H398 7134   5.506   5.003   1.529 -1.1335  1.4470 -0.3091
    9MOL   H399 7135   5.589   5.276   1.439 -1.2348  0.3583  0.1035
    9MOL   H400 7136   5.646   5.197   1.581 -0.7396 -0.3129  1.0697
    9MOL   H401 7137   5.410   5.172   1.668 -3.2413  1.1634 -0.7662
    9MOL   H402 7138   5.354   5.284   1.557 -0.0167  0.4947  0.2515
    9MOL   H403 7139   5.516   5.444   1.633  1.9288 -0.7115  0.4405
    9MOL   H404 7140   5.608   5.354   1.733 -0.1413 -0.1459  0.9266
    9MOL   H405 7141   5.324   5.424   1.781 -0.7275 -2.5140 -2.1374
    9MOL   H406 7142   5.399   5.290   1.869 -1.3262  0.0516  0.1836
    9MOL   H407 7143   5.569   5.451   1.970 -2.0694 -1.8593  1.0408
    9MOL   H408 7144   5.506   5.576   1.863 -1.4892  0.1238 -0.5045
    9MOL   H409 7145   5.288   5.553   1.986  0.5350  2.0745  0.9610
    9MOL   H410 7146   5.368   5.425   2.085  1.4209 -0.0516  1.9714
    9MOL   H411 7147   5.454   5.723   2.085 -1.3957 -1.1367 -2.3443
    9MOL   H412 7148   5.501   5.588   2.193  0.9597  0.9817 -0.4785
    9MOL   H413 7149   5.209   5.713   2.188 -0.2463  1.0530 -0.6465
    9MOL   H414 7150   5.290   5.583   2.282  2.6390 -0.6464 -0.0968
    9MOL   H415 7151   5.400   5.860   2.271  0.3186 -0.9424  0.3207
    9MOL   H416 7152   5.443   5.720   2.373 -2.0248 -2.1565  1.2638
    9MOL   H417 7153   5.308   5.906   2.490 -0.2185  1.7693 -1.0867
    9MOL   H418 7154   5.171   5.849   2.394 -0.5715 -2.4625 -0.6260
    9MOL   H419 7155   5.339   5.721   2.612 -0.6777 -1.4338 -0.1748
    9MOL   H420 7156   5.219   5.625   2.530  3.1988 -0.8082  1.1321
    9MOL   H421 7157   5.159   5.762   2.619  0.4143  0.0623  0.5598
    9MOL   C422 7158   5.482   5.161   1.202 -0.2268 -0.2891 -0.1225
    9MOL   C423 7159   5.378   5.185   1.090 -0.3233 -0.1508  0.2548
    9MOL   C424 7160   5.232   5.231   1.131  0.4467  0.4449  0.8762
    9MOL   C425 7161   5.215   5.380   1.183  0.1575 -0.9615 -1.2741
    9MOL   C426 7162   5.073   5.410   1.218 -0.3356  0.4769 -0.7243
    9MOL   C427 7163   4.993   5.336   1.332  0.9489 -0.5691  0.6471
    9MOL   C428 7164   5.029   5.389   1.473 -1.4165 -0.0788 -0.4298
    9MOL   C429 7165   4.965   5.322   1.589 -0.2690  0.4478  0.0602
    9MOL   C430 7166   4.823   5.347   1.625 -0.0201  0.2057  0.2235
    9MOL   C431 7167   4.804   5.488   1.676  0.0833  0.0355 -0.7297
    9MOL   C432 7168   4.662   5.493   1.738 -0.4782  0.3655  0.5051
    9MOL   C433 7169   4.638   5.628   1.802 -0.0528  0.3376 -0.1718
    9MOL   C434 7170   4.501   5.648   1.869 -0.0501  0.4217  0.4090
    9MOL   C435 7171   4.501   5.790   1.935  0.1487  0.0089  0.0957
    9MOL   H436 7172   5.570   5.120   1.152 -0.2841  1.3559 -1.6266
    9MOL   H437 7173   5.515   5.254   1.250 -0.6554 -0.8452  1.2808
    9MOL   H438 7174   5.360   5.093   1.034 -0.9123  0.6991 -0.9714
    9MOL   H439 7175   5.206   5.164   1.213 -1.9669 -3.1655 -2.6122
    9MOL   H440 7176   5.157   5.211   1.055 -0.0209  0.7924  1.2396
    9MOL   H441 7177   5.273   5.407   1.271 -0.3080 -1.8233 -0.6890
    9MOL   H442 7178   5.248   5.447   1.104 -0.3801 -0.6385 -1.2266
    9MOL   H443 7179   5.008   5.387   1.133  1.6257 -1.4296 -1.7593
    9MOL   H444 7180   5.069   5.516   1.241  0.2146  0.6134 -1.2494
    9MOL   H445 7181   4.998   5.228   1.320  0.2927 -0.4848 -0.4858
    9MOL   H446 7182   4.885   5.350   1.321  0.9907  0.5860  1.5972
    9MOL   H447 7183   5.137   5.384   1.483 -1.5410 -0.2261  0.9341
    9MOL   H448 7184   5.021   5.497   1.462  0.9048  0.4019  2.2694
    9MOL   H449 7185   4.978   5.215   1.571  2.2946  0.9350 -1.2397
    9MOL   H450 7186   5.032   5.346   1.671 -1.5252 -0.6515  1.4239
    9MOL   H451 7187   4.759   5.316   1.542 -2.6100  0.0693  2.2371
    9MOL   H452 7188   4.796   5.278   1.705 -0.6019  1.0264  0.7256
    9MOL   H453 7189   4.875   5.507   1.756 -0.7904  0.5703 -0.0661
    9MOL   H454 7190   4.820   5.570   1.606  0.2086  0.9310  0.3418
    9MOL   H455 7191   4.583   5.473   1.665 -0.4086  0.6415  0.3517
    9MOL   H456 7192   4.650   5.416   1.814  0.3297 -2.2706 -1.9039
    9MOL   H457 7193   4.636   5.707   1.727 -2.5630  0.3742 -0.1184
    9MOL   H458 7194   4.725   5.646   1.865  0.2262  0.9535 -0.7250
    9MOL   H459 7195   4.416   5.640   1.802 -0.7020  2.5183  0.9375
    9MOL   H460 7196   4.494   5.578   1.952 -2.1696  0.3431  0.1727
    9MOL   H461 7197   4.507   5.867   1.857 -1.2892 -1.0626 -1.1025
    9MOL   H462 7198   4.566   5.798   2.022 -1.3026 -0.4503  1.2444
    9MOL   H463 7199   4.402   5.807   1.976 -1.1153  0.8614 -3.0880
    9MOL   C464 7200   5.440   5.283   0.987 -0.0338 -0.7414  0.2050
    9MOL   C465 7201   5.367   5.316   0.855  0.2448  0.0053  0.1867
    9MOL   C466 7202   5.439   5.439   0.791 -0.5231  0.6258  0.2817
    9MOL   C467 7203   5.399   5.576   0.848 -0.0672  0.3159  0.0083
    9MOL   C468 7204   5.249   5.618   0.818 -0.4917  0.0160 -0.1429
    9MOL   C469 7205   5.217   5.757   0.885 -0.0808  0.1938 -0.4020
    9MOL   C470 7206   5.218   5.755   1.039 -0.1984 -0.5100 -0.0929
    9MOL   C471 7207   5.214   5.884   1.117  0.1278  0.2879 -0.1807
    9MOL   C472 7208   5.250   5.875   1.263  0.1441  0.3079 -0.5139
    9MOL   C473 7209   5.172   5.783   1.348 -0.5745  0.0100 -0.4628
    9MOL   C474 7210   5.195   5.818   1.497  0.6891 -0.3653 -0.1701
    9MOL   C475 7211   5.119   5.735   1.600  0.7197 -0.0661  0.3621
    9MOL   C476 7212   5.137   5.783   1.744 -0.5631  0.9015 -0.4577
    9MOL   C477 7213   5.058   5.706   1.847  0.1954  0.4236  0.4638
    9MOL   H478 7214   5.535   5.234   0.968  0.6192  0.4217  0.4293
    9MOL   H479 7215   5.463   5.372   1.046 -0.1136 -0.3567 -0.3412
    9MOL   H480 7216   5.265   5.353   0.869  0.7007  0.9762  1.0616
    9MOL   H481 7217   5.547   5.431   0.780 -0.7751 -0.0260 -1.8267
    9MOL   H482 7218   5.401   5.446   0.689  0.4750  1.8157 -0.0271
    9MOL   H483 7219   5.475   5.649   0.820  0.3108 -0.3219 -0.6263
    9MOL   H484 7220   5.416   5.567   0.955  1.0737  0.2938 -0.1640
    9MOL   H485 7221   5.181   5.546   0.862  0.4260 -0.1758  0.9847
    9MOL   H486 7222   5.235   5.628   0.710 -1.3059 -5.0286 -0.6310
    9MOL   H487 7223   5.281   5.835   0.843  0.9557 -2.2758 -3.5997
    9MOL   H488 7224   5.117   5.784   0.853 -1.0527  0.0206  2.3196
    9MOL   H489 7225   5.140   5.687   1.074  0.2219 -0.5223  0.8289
    9MOL   H490 7226   5.303   5.706   1.086 -0.0420  2.1039  2.4819
    9MOL   H491 7227   5.286   5.954   1.074 -1.8265  3.2348  1.2778
    9MOL   H492 7228   5.112   5.921   1.107 -0.6231 -1.7799 -0.4313
    9MOL   H493 7229   5.357   5.869   1.284 -0.3708  1.2147  2.6798
    9MOL   H494 7230   5.236   5.978   1.296 -0.5449  0.1995 -0.4670
    9MOL   H495 7231   5.063   5.780   1.339 -0.7042 -0.9360  1.2178
    9MOL   H496 7232   5.201   5.678   1.341  4.5836  1.2659  0.1452
    9MOL   H497 7233   5.299   5.822   1.528  0.5396 -0.1646  0.3169
    9MOL   H498 7234   5.157   5.920   1.502 -0.3421 -0.7787  0.8199
    9MOL   H499 7235   5.155   5.634   1.584 -1.0235 -0.2052 -3.1575
    9MOL   H500 7236   5.013   5.732   1.574  0.5934  0.2484  0.8252
    9MOL   H501 7237   5.237   5.775   1.788 -1.3315 -1.2640  1.0014
    9MOL   H502 7238   5.123   5.890   1.757 -1.3780  0.5259  2.1204
    9MOL   H503 7239   4.951   5.710   1.830  0.3509 -2.2316 -1.3260
    9MOL   H504 7240   5.098   5.606   1.865  0.7751  0.7604  1.1053
    9MOL   H505 7241   5.057   5.752   1.946 -4.2039  0.3782  0.5220
    9MOL   C506 7242   5.368   5.189   0.758 -0.4198  0.7686 -0.4720
    9MOL   C507 7243   5.230   5.140   0.711  1.1036 -0.3067  0.2266
    9MOL   C508 7244   5.171   5.222   0.588  0.0402 -0.0637 -1.3916
    9MOL   C509 7245   5.010   5.208   0.590 -0.0155 -0.2820  0.5968
    9MOL   C510 7246   4.944   5.292   0.705 -1.0532 -1.0099 -0.4335
    9MOL   C511 7247   4.795   5.297   0.690 -0.5191  0.1990 -0.6422
    9MOL   C512 7248   4.728   5.383   0.795 -0.5129 -0.4716  0.5197
    9MOL   C513 7249   4.581   5.420   0.764 -0.1528  0.8643  0.2891
    9MOL   C514 7250   4.572   5.552   0.680 -0.6041 -0.8891 -0.8030
    9MOL   C515 7251   4.427   5.603   0.652 -0.8779  0.5004 -0.5234
    9MOL   C516 7252   4.335   5.600   0.780  0.4703  0.0155 -0.2450
    9MOL   C517 7253   4.361   5.718   0.879  0.0589  0.0677 -0.6674
    9MOL   C518 7254   4.293   5.698   1.021 -0.6290 -0.5478 -0.0106
    9MOL   C519 7255   4.138   5.707   1.004  0.3023 -0.2851  0.0224
    9MOL   H520 7256   5.418   5.104   0.803 -0.4686 -0.5403 -2.8146
    9MOL   H521 7257   5.425   5.211   0.668 -2.0337  0.9217 -1.4922
    9MOL   H522 7258   5.160   5.149   0.794  0.3077 -1.4502 -0.3130
    9MOL   H523 7259   5.196   5.327   0.582 -0.2116 -0.0199 -1.6686
    9MOL   H524 7260   5.210   5.170   0.501  2.1971  1.5789 -1.4462
    9MOL   H525 7261   4.978   5.250   0.494 -1.0117  2.4117  2.0478
    9MOL   H526 7262   4.975   5.105   0.588 -1.0696  0.0671 -1.4815
    9MOL   H527 7263   4.992   5.389   0.697 -0.4363 -1.2482  0.3627
    9MOL   H528 7264   4.976   5.264   0.805 -0.6268  0.6699 -0.0944
    9MOL   H529 7265   4.752   5.198   0.706 -1.3641  0.6993  0.2201
    9MOL   H530 7266   4.768   5.335   0.591 -3.2684 -1.8127 -0.7268
    9MOL   H531 7267   4.732   5.320   0.884 -0.6827 -1.4036 -0.1295
    9MOL   H532 7268   4.788   5.472   0.814 -0.1423 -0.4830 -0.5336
    9MOL   H533 7269   4.528   5.423   0.859 -1.3532  0.5497 -0.3648
    9MOL   H534 7270   4.521   5.343   0.716  2.4303 -1.2084  0.3041
    9MOL   H535 7271   4.616   5.541   0.580  0.8012 -0.7026 -0.2141
    9MOL   H536 7272   4.629   5.626   0.735 -2.1553  1.1573 -1.8649
    9MOL   H537 7273   4.418   5.703   0.609  0.0908  0.7046 -0.2584
    9MOL   H538 7274   4.391   5.529   0.581  0.1320  0.4557 -1.0026
    9MOL   H539 7275   4.230   5.596   0.751  0.3185  0.0524  0.2941
    9MOL   H540 7276   4.344   5.506   0.834  1.4147  0.8532  1.0688
    9MOL   H541 7277   4.340   5.812   0.826  4.2111  1.0959 -0.6297
    9MOL   H542 7278   4.468   5.720   0.900 -0.1343 -2.5519  0.7038
    9MOL   H543 7279   4.328   5.778   1.085 -5.5289  2.2383 -0.5912
    9MOL   H544 7280   4.327   5.609   1.073 -0.3194  0.2026  1.0841
    9MOL   H545 7281   4.099   5.724   1.104  0.7150  1.4307 -0.0987
    9MOL   H546 7282   4.112   5.788   0.936  0.4845  0.0233  0.3176
    9MOL   H547 7283   4.101   5.609   0.972  0.1733 -0.6817  1.3468
    9MOL   C548 7284   5.233   4.993   0.675 -0.6578 -0.7622  0.8035
    9MOL   C549 7285   5.220   4.894   0.796 -0.0571  1.2021  0.6943
    9MOL   C550 7286   5.077   4.904   0.860 -0.2004 -0.0275  0.0375
    9MOL   C551 7287   5.040   4.834   0.984  0.0297  0.2776 -0.1647
    9MOL   C552 7288   4.899   4.864   1.028  0.3181  0.8331  0.6784
    9MOL   C553 7289   4.890   4.999   1.106  0.5206  0.7752 -0.4683
    9MOL   C554 7290   4.741   5.037   1.129 -0.1460 -0.4108 -0.1552
    9MOL   C555 7291   4.720   5.156   1.218 -0.1623  0.4963 -0.5054
    9MOL   C556 7292   4.573   5.205   1.240  0.5003 -0.0975  0.0950
    9MOL   C557 7293   4.473   5.188   1.118 -0.5988 -0.3878 -0.8319
    9MOL   C558 7294   4.338   5.267   1.141  0.1284 -0.0690  0.0169
    9MOL   C559 7295   4.234   5.199   1.050 -0.6528 -0.2667 -0.9319
    9MOL   C560 7296   4.102   5.279   1.047  0.2358  0.3812  0.6760
    9MOL   C561 7297   4.025   5.251   0.914  0.1383 -0.5603 -0.4419
    9MOL   H562 7298   5.162   4.962   0.599  0.3551 -0.5326 -0.2666
    9MOL   H563 7299   5.319   4.967   0.613 -0.0339  2.9275  0.0080
    9MOL   H564 7300   5.290   4.916   0.877  0.8256  2.1118 -0.3148
    9MOL   H565 7301   5.048   5.006   0.885  0.9565  0.3366 -0.0797
    9MOL   H566 7302   5.002   4.882   0.784  2.4723 -2.7231 -1.9222
    9MOL   H567 7303   5.109   4.866   1.062  0.3911  0.6108 -0.6179
    9MOL   H568 7304   5.061   4.728   0.967  0.9853  0.3782  0.3931
    9MOL   H569 7305   4.834   4.864   0.940 -2.4410  0.1051  2.6673
    9MOL   H570 7306   4.869   4.777   1.085  1.1236  0.3126  0.3163
    9MOL   H571 7307   4.928   5.079   1.043 -2.1158  1.4690 -1.2517
    9MOL   H572 7308   4.942   4.982   1.200 -1.7620 -3.3435  0.1947
    9MOL   H573 7309   4.712   5.048   1.024  1.9979 -2.7327 -1.0393
    9MOL   H574 7310   4.681   4.953   1.165 -1.6168  0.0574 -1.4400
    9MOL   H575 7311   4.775   5.230   1.160  1.0929 -2.2752 -3.0215
    9MOL   H576 7312   4.764   5.142   1.316  2.6304 -1.1932 -1.9494
    9MOL   H577 7313   4.586   5.309   1.271  2.0799  0.3420 -1.8899
    9MOL   H578 7314   4.534   5.148   1.324  3.5261 -0.7746  1.1060
    9MOL   H579 7315   4.535   5.202   1.030 -0.4115 -0.5061 -0.7196
    9MOL   H580 7316   4.442   5.085   1.108 -0.8162 -0.5025  0.8889
    9MOL   H581 7317   4.338   5.374   1.118 -1.3607 -0.3240 -1.2857
    9MOL   H582 7318   4.304   5.251   1.243 -0.5963 -2.8043 -0.6107
    9MOL   H583 7319   4.273   5.185   0.949  1.4894 -3.7048  0.2727
    9MOL   H584 7320   4.208   5.097   1.076 -1.2425  0.5709  1.9539
    9MOL   H585 7321   4.038   5.259   1.134  0.6808  1.9532  1.3718
    9MOL   H586 7322   4.119   5.386   1.039  2.3705  0.1219  1.5489
    9MOL   H587 7323   4.078   5.258   0.820 -2.4994  1.4545 -1.8446
    9MOL   H588 7324   3.964   5.160   0.920  0.6922 -0.9066  0.0314
    9MOL   H589 7325   3.957   5.336   0.916 -1.8024 -1.9511 -2.9294
    9MOL   C590 7326   5.233   4.746   0.745  1.0526 -0.1818  0.0063
    9MOL   C591 7327   5.361   4.703   0.676 -0.0918 -0.8965  0.0581
    9MOL   C592 7328   5.493   4.750   0.748  0.4722  0.4775  0.5734
    9MOL   C593 7329   5.532   4.682   0.884  0.5139 -0.0823  0.0986
    9MOL   C594 7330   5.610   4.774   0.971 -0.1104  0.3641  0.2670
    9MOL   C595 7331   5.675   4.687   1.086  0.3376  0.0658  0.4527
    9MOL   C596 7332   5.783   4.770   1.165 -1.0601 -0.0436 -0.3939
    9MOL   C597 7333   5.874   4.672   1.255  0.1859 -0.7454 -0.4152
    9MOL   C598 7334   6.006   4.737   1.301 -0.1783 -0.3909  0.1063
    9MOL   C599 7335   6.111   4.745   1.186  0.6332  0.0389 -0.3748
    9MOL   C600 7336   6.249   4.761   1.248 -0.1259 -0.9286 -0.4297
    9MOL   C601 7337   6.368   4.760   1.155  0.1594  0.0698 -0.5593
    9MOL   C602 7338   6.404   4.624   1.088  0.5838  0.2824  0.3566
    9MOL   C603 7339   6.536   4.624   1.018 -0.1885 -0.1703 -0.3892
    9MOL   H604 7340   5.145   4.724   0.684  0.9428  0.7996 -0.1929
    9MOL   H605 7341   5.232   4.684   0.835 -2.3177 -1.5499 -0.8840
    9MOL   H606 7342   5.355   4.760   0.584  0.6024 -0.2904  0.3791
    9MOL   H607 7343   5.506   4.858   0.751  0.0666  0.5069  1.1953
    9MOL   H608 7344   5.575   4.723   0.680  0.5228 -0.2107  0.9048
    9MOL   H609 7345   5.580   4.588   0.860 -1.1445 -1.6044  2.5198
    9MOL   H610 7346   5.438   4.672   0.938  0.6579  0.7095  0.5022
    9MOL   H611 7347   5.539   4.847   1.008 -0.2188  0.6812 -0.5444
    9MOL   H612 7348   5.689   4.829   0.918  1.2462  0.4462  2.3118
    9MOL   H613 7349   5.733   4.606   1.043  1.0416  1.9493 -2.2772
    9MOL   H614 7350   5.601   4.644   1.154 -2.0654  1.2777 -1.3397
    9MOL   H615 7351   5.836   4.827   1.089  2.4578 -0.9330  1.3190
    9MOL   H616 7352   5.728   4.844   1.223 -0.7182  0.7062 -1.0204
    9MOL   H617 7353   5.820   4.630   1.340 -1.4983  0.0482 -1.0678
    9MOL   H618 7354   5.885   4.592   1.182 -1.0714  0.4250 -1.9317
    9MOL   H619 7355   5.987   4.838   1.339 -0.6591 -1.1778  1.9890
    9MOL   H620 7356   6.045   4.680   1.386 -3.0645 -1.9120  0.4552
    9MOL   H621 7357   6.118   4.648   1.137 -1.9527  0.4493 -1.6358
    9MOL   H622 7358   6.090   4.823   1.113  1.2611 -0.9882 -1.6931
    9MOL   H623 7359   6.274   4.699   1.334 -0.3791  0.4215  0.6202
    9MOL   H624 7360   6.254   4.863   1.284  0.8763 -1.4354  0.9004
    9MOL   H625 7361   6.460   4.786   1.208 -0.4122  0.2326  0.3743
    9MOL   H626 7362   6.350   4.846   1.090 -0.6918  0.1691 -0.2000
    9MOL   H627 7363   6.397   4.544   1.162 -0.5715  0.0847  0.0399
    9MOL   H628 7364   6.323   4.602   1.018  1.2168 -1.7128  0.2082
    9MOL   H629 7365   6.619   4.628   1.088 -1.8676  0.4795  1.6241
    9MOL   H630 7366   6.532   4.704   0.945  1.7596 -0.8796 -1.3004
    9MOL   H631 7367   6.551   4.533   0.959 -0.6916 -1.0204  0.7617
    9MOL   C632 7368   5.364   4.551   0.651  0.6114  0.4013 -0.1448
    9MOL   C633 7369   5.246   4.489   0.567 -0.0702  0.7444 -0.3930
    9MOL   C634 7370   5.271   4.477   0.414 -0.1391 -0.3689 -0.3635
    9MOL   C635 7371   5.281   4.614   0.352  0.2120 -0.0094  0.2709
    9MOL   C636 7372   5.157   4.695   0.350  0.1229  0.3950 -0.0745
    9MOL   C637 7373   5.147   4.779   0.222  0.5776  0.0935  0.7907
    9MOL   C638 7374   5.055   4.899   0.230  0.1883 -0.0208 -0.3656
    9MOL   C639 7375   5.040   4.977   0.091  0.2980 -0.5731 -0.0569
    9MOL   C640 7376   4.969   5.111   0.114 -0.3576  0.2447 -0.0298
    9MOL   C641 7377   4.831   5.101   0.160  0.1855 -0.4709  0.0541
    9MOL   C642 7378   4.757   5.238   0.143  0.3912 -0.1157  0.3673
    9MOL   C643 7379   4.625   5.242   0.221 -0.3731  0.2972  0.2924
    9MOL   C644 7380   4.540   5.360   0.176 -0.3480  0.6799  0.7473
    9MOL   C645 7381   4.448   5.401   0.292 -0.2599 -0.0297 -0.3197
    9MOL   H646 7382   5.368   4.506   0.750 -0.2274 -1.1489 -0.7915
    9MOL   H647 7383   5.457   4.526   0.600 -0.0732  0.7711 -1.6052
    9MOL   H648 7384   5.154   4.547   0.574  0.0795  1.1254 -1.5211
    9MOL   H649 7385   5.367   4.430   0.392  0.0453 -0.6979  1.0544
    9MOL   H650 7386   5.197   4.420   0.359 -0.5417  0.5040 -0.7255
    9MOL   H651 7387   5.305   4.583   0.251  2.1616  0.3243  0.6201
    9MOL   H652 7388   5.363   4.672   0.396  0.2220  1.3572 -1.5035
    9MOL   H653 7389   5.143   4.756   0.440 -2.8020 -1.7657  1.0040
    9MOL   H654 7390   5.071   4.629   0.352  2.0397 -2.2664  3.6836
    9MOL   H655 7391   5.244   4.820   0.195  0.0559 -0.1825 -1.6220
    9MOL   H656 7392   5.114   4.717   0.139 -0.1539  2.4097 -0.6802
    9MOL   H657 7393   4.956   4.883   0.273  0.8814  2.1692  2.1365
    9MOL   H658 7394   5.101   4.967   0.302  0.5312  0.7442 -1.2891
    9MOL   H659 7395   4.998   4.903   0.023 -0.6650  0.7222 -0.9145
    9MOL   H660 7396   5.132   5.011   0.044 -0.3100  1.1836 -0.0099
    9MOL   H661 7397   4.962   5.162   0.018 -0.5524 -0.0949 -0.1958
    9MOL   H662 7398   5.034   5.165   0.183 -0.0461 -0.8235  0.5263
    9MOL   H663 7399   4.777   5.024   0.105  1.2510  0.5738 -2.5485
    9MOL   H664 7400   4.834   5.069   0.264  2.5526  0.3019  0.2400
    9MOL   H665 7401   4.819   5.324   0.167  1.8137 -1.2314  0.8459
    9MOL   H666 7402   4.739   5.249   0.036 -0.1884 -0.7296  0.3989
    9MOL   H667 7403   4.646   5.250   0.328 -2.4306 -0.3075  0.7701
    9MOL   H668 7404   4.567   5.152   0.203  0.8729  0.0105 -2.6010
    9MOL   H669 7405   4.478   5.334   0.090  1.6459 -1.8653  0.0426
    9MOL   H670 7406   4.601   5.446   0.146 -0.4355  0.2239 -0.7898
    9MOL   H671 7407   4.389   5.489   0.267  0.1808 -0.3523 -2.5809
    9MOL   H672 7408   4.378   5.320   0.312 -0.6077  0.6294  1.2123
    9MOL   H673 7409   4.505   5.427   0.381  2.4925 -1.9088 -1.4668
    9MOL   C674 7410   5.183   4.355   0.622 -0.5704  0.0356 -0.1315
    9MOL   C675 7411   5.264   4.229   0.585 -0.2151 -0.0190  0.2236
    9MOL   C676 7412   5.398   4.210   0.665 -0.3193 -0.4896 -0.0042
    9MOL   C677 7413   5.398   4.212   0.817  0.1026  0.1522 -0.1093
    9MOL   C678 7414   5.538   4.200   0.884  0.1245 -0.1915 -0.0823
    9MOL   C679 7415   5.539   4.183   1.038  0.9585  0.0881  0.2058
    9MOL   C680 7416   5.680   4.158   1.094 -0.2955  0.2426  0.0417
    9MOL   C681 7417   5.684   4.141   1.244 -0.3618 -0.3379  0.2759
    9MOL   C682 7418   5.828   4.118   1.296  0.4447  0.6105 -0.4932
    9MOL   C683 7419   5.829   4.067   1.449  0.4588 -0.1193 -0.0033
    9MOL   C684 7420   5.964   4.073   1.506 -0.6342  1.1556 -0.1936
    9MOL   C685 7421   5.988   4.219   1.553 -0.6100 -0.2089  0.6433
    9MOL   C686 7422   6.137   4.251   1.585  0.0061 -0.7572 -0.2205
    9MOL   C687 7423   6.169   4.390   1.637 -0.4491 -0.2429  0.1095
    9MOL   H688 7424   5.082   4.339   0.584 -0.5857 -1.8119  0.6567
    9MOL   H689 7425   5.187   4.359   0.730  2.7857 -0.6397 -0.1811
    9MOL   H690 7426   5.285   4.223   0.478  0.5074 -1.5660  0.4359
    9MOL   H691 7427   5.443   4.116   0.631  1.2607  0.7266 -1.3249
    9MOL   H692 7428   5.475   4.277   0.628 -1.0777  1.6865  2.2158
    9MOL   H693 7429   5.352   4.303   0.856  1.2127  1.9384 -2.8042
    9MOL   H694 7430   5.346   4.123   0.852 -2.7165  1.4648 -0.8193
    9MOL   H695 7431   5.575   4.102   0.852  2.5528  0.7148 -0.2193
    9MOL   H696 7432   5.611   4.274   0.851 -1.4686  1.8901  1.0331
    9MOL   H697 7433   5.508   4.279   1.080 -2.2844 -1.0177  0.4617
    9MOL   H698 7434   5.472   4.098   1.052  1.8852 -1.3050 -3.2439
    9MOL   H699 7435   5.721   4.072   1.041 -1.0072  0.1017 -0.2796
    9MOL   H700 7436   5.750   4.237   1.067 -0.6756  1.0470  1.3443
    9MOL   H701 7437   5.638   4.231   1.284 -0.8559  0.9213 -2.9231
    9MOL   H702 7438   5.618   4.060   1.275  1.1989 -0.7134  2.7658
    9MOL   H703 7439   5.881   4.048   1.232  0.3097  1.1655 -1.2243
    9MOL   H704 7440   5.874   4.217   1.297  0.6997  0.4853  0.8124
    9MOL   H705 7441   5.795   3.964   1.443  0.4499 -0.1655  0.7713
    9MOL   H706 7442   5.761   4.127   1.509  1.8090  2.2546 -0.7621
    9MOL   H707 7443   6.042   4.039   1.439 -0.9265  0.2579 -0.0806
    9MOL   H708 7444   5.967   4.001   1.588 -2.1913  1.0660 -0.1954
    9MOL   H709 7445   5.924   4.243   1.637 -1.1820 -0.5592  0.3159
    9MOL   H710 7446   5.955   4.281   1.469 -0.7688 -0.2771  0.6554
    9MOL   H711 7447   6.176   4.186   1.663 -0.3039  1.4468  1.8261
    9MOL   H712 7448   6.209   4.244   1.503 -0.8031 -2.8651 -0.7738
    9MOL   H713 7449   6.121   4.412   1.733 -0.4135  1.2673 -0.2047
    9MOL   H714 7450   6.276   4.396   1.653 -0.6907  2.6986  0.8854
    9MOL   H715 7451   6.122   4.456   1.564  0.6813  3.1293  2.3198
    9MOL   C716 7452   5.171   4.105   0.612  0.5003 -0.3731 -0.1251
    9MOL   C717 7453   5.076   4.085   0.489 -0.2103  0.0001 -0.0669
    9MOL   C718 7454   5.145   4.031   0.355  0.5210 -0.1971  0.0702
    9MOL   C719 7455   5.081   4.065   0.221 -0.2632  0.2834  0.1469
    9MOL   C720 7456   5.182   4.142   0.136 -0.5974 -0.3068  0.2234
    9MOL   C721 7457   5.148   4.138   7.678  0.4915 -0.1762 -0.5849
    9MOL   C722 7458   5.218   4.246   7.600 -0.3264  0.0565 -0.0332
    9MOL   C723 7459   5.154   4.387   7.613  0.0795 -0.4020  0.3331
    9MOL   C724 7460   5.210   4.480   7.501 -0.2836 -0.1260  0.1348
    9MOL   C725 7461   5.125   4.481   7.371  0.4103  0.3013  0.7585
    9MOL   C726 7462   5.164   4.601   7.290 -0.2210  0.7249  0.1434
    9MOL   C727 7463   5.085   4.605   7.154  0.2953 -0.0775 -0.3012
    9MOL   C728 7464   5.109   4.740   7.084 -0.4762 -0.6714 -0.2613
    9MOL   C729 7465   5.028   4.756   6.955  0.2568 -0.5075 -0.6383
    9MOL   H730 7466   5.232   4.015   0.613 -0.2329 -0.8663  0.2698
    9MOL   H731 7467   5.109   4.118   0.700  1.2906  0.0401  0.3737
    9MOL   H732 7468   5.040   4.181   0.454  2.1950  1.2575  0.8161
    9MOL   H733 7469   5.154   3.923   0.369 -0.7440 -0.0857  2.0329
    9MOL   H734 7470   5.252   4.053   0.349  0.6930 -0.8863  0.5720
    9MOL   H735 7471   5.064   3.968   0.174 -1.3940  0.5316  0.0300
    9MOL   H736 7472   4.990   4.125   0.232 -1.0735 -0.6269 -1.3949
    9MOL   H737 7473   5.177   4.244   0.176 -2.6213  0.0059 -0.7360
    9MOL   H738 7474   5.284   4.106   0.148 -0.8418 -1.4027 -0.9380
    9MOL   H739 7475   5.185   4.042   7.641 -1.4115 -1.7079  1.3614
    9MOL   H740 7476   5.044   4.155   7.653  0.3911  1.0134  0.6241
    9MOL   H741 7477   5.326   4.252   7.617 -0.1179 -0.7871 -1.0167
    9MOL   H742 7478   5.204   4.210   7.498 -2.3195 -0.4993  0.4158
    9MOL   H743 7479   5.175   4.431   0.015 -0.7614  0.6548  0.0409
    9MOL   H744 7480   5.045   4.381   7.613  0.0540  0.0536  0.7375
    9MOL   H745 7481   5.211   4.583   7.537 -1.3773  0.1057 -0.5064
    9MOL   H746 7482   5.315   4.455   7.486  0.3761  1.9927  0.9900
    9MOL   H747 7483   5.136   4.400   7.300 -0.5559  0.0910  0.8349
    9MOL   H748 7484   5.020   4.501   7.397  0.4663  0.9085  0.5088
    9MOL   H749 7485   5.150   4.692   7.348  0.5276 -0.1189  1.6789
    9MOL   H750 7486   5.271   4.602   7.273 -0.0717  0.0300  1.0123
    9MOL   H751 7487   5.108   4.518   7.091  0.3821 -0.6391  0.5038
    9MOL   H752 7488   4.977   4.595   7.163  0.4926 -0.4454  1.7945
    9MOL   H753 7489   5.211   4.732   7.046  0.1617  1.5966  0.9428
    9MOL   H754 7490   5.102   4.828   7.148 -0.7897 -0.7776 -0.1485
    9MOL   H755 7491   5.022   4.666   6.895 -0.4516 -0.5992 -0.4357
    9MOL   H756 7492   5.070   4.836   6.894  1.0900  0.0291  0.6106
    9MOL   H757 7493   4.932   4.798   6.984  0.4203 -1.2252  1.0431
    9MOL   C758 7494   4.944   4.005   0.534  0.1243  0.8354  0.7825
    9MOL   C759 7495   4.824   4.006   0.438 -0.1883  0.7585  0.0524
    9MOL   C760 7496   4.733   3.890   0.489 -0.5291  0.2074 -0.3760
    9MOL   C761 7497   4.780   3.744   0.474 -0.0015  0.2868 -0.0226
    9MOL   C762 7498   4.665   3.644   0.481 -0.1584 -1.0876  0.0022
    9MOL   C763 7499   4.711   3.502   0.460 -0.4233 -0.0633 -0.2006
    9MOL   C764 7500   4.779   3.429   0.584 -0.8370  0.3736  0.0590
    9MOL   C765 7501   4.776   3.269   0.573  0.0429 -0.1944 -0.5958
    9MOL   C766 7502   4.855   3.202   0.686  0.9109 -0.3064 -0.4687
    9MOL   C767 7503   4.834   3.050   0.691  0.6551 -0.4024  0.0390
    9MOL   C768 7504   4.920   2.980   0.789  0.2718  0.1404  0.4947
    9MOL   C769 7505   4.900   2.834   0.821 -0.3665 -0.0955 -0.1261
    9MOL   C770 7506   5.005   2.769   0.921  0.0008 -0.3566 -0.1927
    9MOL   C771 7507   4.988   2.621   0.924 -0.6411  0.0457 -0.7032
    9MOL   H772 7508   4.971   3.901   0.553 -2.8233 -0.6651 -2.6046
    9MOL   H773 7509   4.911   4.055   0.625  1.5993  0.6561  1.4331
    9MOL   H774 7510   4.858   3.982   0.337 -0.5626  1.9310 -0.3610
    9MOL   H775 7511   4.702   3.906   0.592  1.6741 -0.3094  0.4003
    9MOL   H776 7512   4.640   3.889   0.432 -1.9749 -1.2634  1.9111
    9MOL   H777 7513   4.831   3.730   0.379 -0.4019 -1.8992  0.0762
    9MOL   H778 7514   4.848   3.719   0.555  1.1541 -0.4032 -1.2088
    9MOL   H779 7515   4.588   3.667   0.408 -1.1594 -2.0990  0.7274
    9MOL   H780 7516   4.614   3.651   0.577  1.1990 -0.2624  0.6866
    9MOL   H781 7517   4.769   3.489   0.369  1.4260 -0.2156  0.9778
    9MOL   H782 7518   4.626   3.438   0.437 -1.1319  0.6536  0.3939
    9MOL   H783 7519   4.885   3.456   0.581 -0.2018 -1.9732  0.5111
    9MOL   H784 7520   4.730   3.447   0.680 -3.9177  2.7346 -1.8592
    9MOL   H785 7521   4.811   3.232   0.476  1.2420 -0.0577 -0.2237
    9MOL   H786 7522   4.670   3.245   0.583 -0.1230  1.3125  1.5591
    9MOL   H787 7523   4.821   3.242   0.781  1.9123 -1.6957  0.5074
    9MOL   H788 7524   4.961   3.214   0.662  1.4024 -0.7747  1.3975
    9MOL   H789 7525   4.837   3.010   0.590 -1.3943 -1.9983  0.5597
    9MOL   H790 7526   4.729   3.039   0.718  0.6756 -0.7346 -0.0208
    9MOL   H791 7527   5.017   2.988   0.741  0.6146 -2.3200  0.7020
    9MOL   H792 7528   4.920   3.042   0.879  1.7532  1.3198 -0.2962
    9MOL   H793 7529   4.797   2.830   0.855  0.2824 -1.2614  1.7737
    9MOL   H794 7530   4.901   2.780   0.726  1.2511 -0.8432  0.2910
    9MOL   H795 7531   5.105   2.794   0.883 -0.2237  0.2421 -0.3896
    9MOL   H796 7532   4.991   2.818   1.017 -0.1397 -1.4070  0.3292
    9MOL   H797 7533   5.002   2.578   0.824  2.1382  0.0830 -0.3912
    9MOL   H798 7534   5.070   2.585   0.987  0.3848 -1.2288 -2.6740
    9MOL   H799 7535   4.893   2.582   0.958  0.7893 -0.7811  2.5307
    9MOL   C800 7536   4.758   4.146   0.434  0.2474  0.1849  0.1424
    9MOL   C801 7537   4.647   4.159   0.322  0.4848  0.1927 -0.5674
    9MOL   C802 7538   4.592   4.306   0.309 -0.5671  0.0691 -0.3463
    9MOL   C803 7539   4.480   4.333   0.216  0.2234 -0.0709 -0.4750
    9MOL   C804 7540   4.532   4.363   0.077  0.1256 -0.6210  0.4393
    9MOL   C805 7541   4.426   4.425   7.681  0.2989 -0.0255  0.6793
    9MOL   C806 7542   4.462   4.440   7.530  0.4761  0.4983 -0.5476
    9MOL   C807 7543   4.429   4.311   7.462  0.2872 -0.4391  0.2175
    9MOL   C808 7544   4.452   4.315   7.311 -0.1928 -0.9677  0.6254
    9MOL   C809 7545   4.415   4.185   7.231  0.2507  0.9983 -0.1128
    9MOL   C810 7546   4.476   4.056   7.295 -0.8514 -0.0402  0.4989
    9MOL   C811 7547   4.403   3.931   7.258  0.3667  0.0833  0.5231
    9MOL   C812 7548   4.452   3.798   7.323  0.1014 -0.8775 -0.4845
    9MOL   C813 7549   4.551   3.711   7.242  1.0614 -0.5829 -0.5124
    9MOL   H814 7550   4.837   4.220   0.422 -0.0579  0.5689  0.5136
    9MOL   H815 7551   4.715   4.157   0.533  1.2473 -1.8885  0.8415
    9MOL   H816 7552   4.560   4.099   0.347  1.0336 -0.0237  0.8776
    9MOL   H817 7553   4.674   4.376   0.297  0.5108 -1.1638 -0.2501
    9MOL   H818 7554   4.555   4.334   0.408  0.6759  0.0630  0.1223
    9MOL   H819 7555   4.425   4.414   0.265 -0.5176 -1.8784  1.7277
    9MOL   H820 7556   4.403   4.256   0.219 -2.0643  2.2017  0.7990
    9MOL   H821 7557   4.626   4.415   0.059 -0.9198  1.0193 -0.4002
    9MOL   H822 7558   4.568   4.274   0.024 -0.8940  0.9423 -3.0269
    9MOL   H823 7559   4.397   4.525   0.019  1.3737  0.6813 -0.4443
    9MOL   H824 7560   4.342   4.357   0.001 -1.1045  1.4699 -0.2248
    9MOL   H825 7561   4.394   4.519   7.499 -0.3886  0.6157  1.5287
    9MOL   H826 7562   4.564   4.476   7.518  0.5303 -0.5844 -3.8152
    9MOL   H827 7563   4.493   4.237   7.511  0.9269 -1.9060 -2.7418
    9MOL   H828 7564   4.324   4.290   7.483  0.5056 -0.3510  1.4608
    9MOL   H829 7565   4.402   4.395   7.256  0.9425  1.1277  2.4983
    9MOL   H830 7566   4.559   4.320   7.295 -0.3315  2.9416  0.4216
    9MOL   H831 7567   4.444   4.201   7.127  2.7657  1.6499  0.6453
    9MOL   H832 7568   4.307   4.188   7.244  0.2926 -0.8662  0.9253
    9MOL   H833 7569   4.578   4.039   7.262 -0.1652 -0.1265  2.5504
    9MOL   H834 7570   4.468   4.062   7.404 -2.4320 -1.0822  0.4524
    9MOL   H835 7571   4.400   3.913   7.150 -0.1656 -2.1058  0.8801
    9MOL   H836 7572   4.298   3.951   7.280  0.2864 -0.8778  1.0420
    9MOL   H837 7573   4.510   3.827   7.411 -0.6423 -1.7137  0.2922
    9MOL   H838 7574   4.373   3.729   7.354 -0.6728  0.9553  1.7696
    9MOL   H839 7575   4.643   3.765   7.221  1.2110  0.6301  2.9405
    9MOL   H840 7576   4.578   3.627   7.307  3.8190  1.4309  1.0594
    9MOL   H841 7577   4.503   3.671   7.153  2.8662  0.4200 -1.9676
    9MOL   H842 7578   4.686   4.131   0.224  2.7156 -1.1931  0.6764
   10MOL     C1 7579   6.176   3.657   7.260  0.0500  0.5309  0.0539
   10MOL     C2 7580   6.128   3.667   7.409 -0.5950  0.3249  0.5643
   10MOL     C3 7581   6.114   3.809   7.460 -0.1477  0.2858  0.2710
   10MOL     C4 7582   6.229   3.913   7.440  0.1592  0.0434  0.7342
   10MOL     C5 7583   6.364   3.875   7.514  0.0369  0.1867 -0.2134
   10MOL     C6 7584   6.465   3.971   7.477 -1.0052 -0.0909  0.3093
   10MOL     C7 7585   6.601   3.943   7.541  0.2912 -0.4515 -0.8532
   10MOL     C8 7586   6.695   4.059   7.517 -0.1930 -0.3290  0.3447
   10MOL     C9 7587   6.842   4.037   7.564 -0.4755 -0.2090 -0.0574
   10MOL    C10 7588   6.911   4.172   7.547  0.0025  0.3988  0.5637
   10MOL    C11 7589   7.052   4.172   7.613 -0.5168  0.4268  0.1563
   10MOL    C12 7590   7.128   4.303   7.574  0.1287  0.1059  0.7088
   10MOL    C13 7591   7.276   4.296   7.612 -0.3954 -0.1110  0.2254
   10MOL    C14 7592   7.345   4.429   7.596 -0.5762  0.0643  0.6677
   10MOL    H15 7593   6.202   3.553   7.243 -0.6323  0.2664  0.5980
   10MOL    H16 7594   6.272   3.708   7.245 -0.7923  1.4965 -2.3424
   10MOL    H17 7595   6.202   3.616   7.470  0.9985  1.2297 -0.5717
   10MOL    H18 7596   6.021   3.841   7.414 -0.3211 -1.4369 -0.6229
   10MOL    H19 7597   6.100   3.816   7.567  0.6828  0.2394  0.3863
   10MOL    H20 7598   6.196   4.010   7.478  1.5045  1.6619 -2.0580
   10MOL    H21 7599   6.245   3.937   7.335  2.2737 -1.8232  0.5826
   10MOL    H22 7600   6.397   3.777   7.479  1.0778 -1.6160  5.2798
   10MOL    H23 7601   6.352   3.863   7.622 -1.4301 -0.6519 -0.4523
   10MOL    H24 7602   6.431   4.069   7.511  0.0655  1.6885 -3.4723
   10MOL    H25 7603   6.482   3.970   7.369  0.5270 -0.8634  0.5372
   10MOL    H26 7604   6.584   3.940   7.649 -0.2304 -1.9074 -0.9613
   10MOL    H27 7605   6.648   3.853   7.503 -0.4461 -0.5225 -1.5957
   10MOL    H28 7606   6.646   4.141   7.570 -0.6967 -0.5279  0.1929
   10MOL    H29 7607   6.694   4.087   7.412  0.1996 -1.8340 -0.0697
   10MOL    H30 7608   6.861   3.996   7.664  1.2119  0.3045 -0.1469
   10MOL    H31 7609   6.871   3.964   7.488  2.3986 -0.7171  1.4329
   10MOL    H32 7610   6.922   4.212   7.446  2.6555 -1.3273  0.1079
   10MOL    H33 7611   6.842   4.242   7.594  1.2359  0.5719  2.1493
   10MOL    H34 7612   7.056   4.152   0.025  0.6579 -0.1576  0.0142
   10MOL    H35 7613   7.103   4.083   7.577 -0.0889  0.9462 -0.5368
   10MOL    H36 7614   7.096   4.393   7.627  1.4763  0.3600  1.1151
   10MOL    H37 7615   7.116   4.323   7.468  0.9224 -3.5706 -0.1612
   10MOL    H38 7616   7.295   4.258   0.017 -1.2394 -1.3163 -0.0663
   10MOL    H39 7617   7.330   4.219   7.556 -2.1873 -1.6135  0.5084
   10MOL    H40 7618   7.289   4.510   7.644  1.4330  1.7784  0.2512
   10MOL    H41 7619   7.444   4.435   7.642  0.7282 -0.9163 -1.9238
   10MOL    H42 7620   7.360   4.441   7.489  1.4934  0.2319  0.9511
   10MOL    H43 7621   6.099   3.666   7.183  0.2185 -3.0971 -0.5849
   10MOL    C44 7622   5.997   3.583   7.415 -0.6839 -0.6013  0.0058
   10MOL    C45 7623   5.960   3.538   7.564  0.4116  0.8448  0.7947
   10MOL    C46 7624   6.038   3.402   7.595 -0.0233 -0.2459 -0.5427
   10MOL    C47 7625   6.023   3.350   0.044 -0.6372  0.7608 -0.1914
   10MOL    C48 7626   6.113   3.236   0.082  0.0484  0.5347  0.0282
   10MOL    C49 7627   6.052   3.163   0.207  0.4488 -0.4223 -0.4490
   10MOL    C50 7628   6.123   3.033   0.249  0.4839 -1.1359 -0.0578
   10MOL    C51 7629   6.112   2.931   0.132 -0.3277  0.1144 -0.8793
   10MOL    C52 7630   6.123   2.788   0.178  0.2701 -0.3065 -0.1860
   10MOL    C53 7631   6.129   2.688   0.064 -0.3432 -0.1194  0.3704
   10MOL    C54 7632   6.039   2.571   0.093 -0.7046 -0.2886 -0.4971
   10MOL    C55 7633   6.036   2.465   7.679  0.4661  0.1844 -0.4564
   10MOL    C56 7634   5.983   2.331   0.031 -0.8270  0.2993  0.0689
   10MOL    C57 7635   5.978   2.234   7.606 -0.0561  0.3218 -0.3000
   10MOL    H58 7636   5.924   3.643   7.362  0.3885  0.2706 -0.5085
   10MOL    H59 7637   5.997   3.493   7.353 -4.9224 -1.4690  1.1218
   10MOL    H60 7638   5.996   3.620   7.625  0.6942 -0.4004  2.3516
   10MOL    H61 7639   6.018   3.318   7.529  1.7056  1.3266 -3.1726
   10MOL    H62 7640   6.144   3.422   7.579 -0.5231  1.9521 -1.3720
   10MOL    H63 7641   5.917   3.330   0.056 -0.3980  0.0983  0.8632
   10MOL    H64 7642   6.046   3.434   0.109 -2.0668  0.8289  0.2192
   10MOL    H65 7643   6.217   3.268   0.096  0.0885  1.1678 -1.5810
   10MOL    H66 7644   6.113   3.164   0.000 -1.7867  1.1555 -0.5418
   10MOL    H67 7645   6.041   3.231   0.292  1.3905 -2.4357  1.3596
   10MOL    H68 7646   5.950   3.128   0.189 -0.3477  1.1123  0.9799
   10MOL    H69 7647   6.229   3.049   0.265  0.7963 -2.9925 -0.1415
   10MOL    H70 7648   6.086   2.981   0.337 -0.4897 -2.8504 -1.4527
   10MOL    H71 7649   6.182   2.948   0.051  1.5007 -0.2796  0.5784
   10MOL    H72 7650   6.011   2.942   0.091 -0.2925 -2.0279 -1.6240
   10MOL    H73 7651   6.213   2.774   0.238 -0.5561  0.7595  1.3468
   10MOL    H74 7652   6.048   2.774   0.256  0.5180 -2.2521 -0.2597
   10MOL    H75 7653   6.226   2.660   0.022 -0.4391 -1.3572  0.9388
   10MOL    H76 7654   6.074   2.726   7.674 -2.2014 -2.2810  0.5514
   10MOL    H77 7655   5.942   2.604   0.128 -0.6796  0.7160 -1.3635
   10MOL    H78 7656   6.085   2.529   0.183 -1.2937 -1.2257 -0.6340
   10MOL    H79 7657   5.966   2.505   7.605  0.1689  0.4571 -0.0285
   10MOL    H80 7658   6.136   2.467   7.635 -0.0509 -1.8574 -1.7828
   10MOL    H81 7659   5.885   2.355   0.071 -1.0464 -0.1487 -0.1954
   10MOL    H82 7660   6.045   2.288   0.109  0.1526  2.0842  0.3082
   10MOL    H83 7661   5.973   2.130   7.637  0.6479 -0.0220 -1.3099
   10MOL    H84 7662   6.064   2.230   7.538 -0.3858  1.5154 -0.7992
   10MOL    H85 7663   5.897   2.252   7.535  1.0194  2.0851 -1.1169
   10MOL    C86 7664   5.808   3.521   7.575 -0.3618 -0.1790  0.1771
   10MOL    C87 7665   5.739   3.550   0.017  0.6566 -0.1594  0.4145
   10MOL    C88 7666   5.597   3.479   0.026 -0.0368 -0.2458 -0.6654
   10MOL    C89 7667   5.610   3.329   0.037 -0.1363 -0.1228 -0.6184
   10MOL    C90 7668   5.489   3.274   0.114 -0.4976  0.0869 -0.0847
   10MOL    C91 7669   5.469   3.117   0.118  0.4513  0.8035 -0.0660
   10MOL    C92 7670   5.590   3.045   0.175 -0.0158  0.7931 -0.1114
   10MOL    C93 7671   5.582   2.890   0.179 -0.0763  0.0346  0.5026
   10MOL    C94 7672   5.695   2.820   0.264  0.2952  0.3725 -0.2780
   10MOL    C95 7673   5.672   2.663   0.284 -0.9474 -0.1773 -0.1386
   10MOL    C96 7674   5.756   2.585   0.384 -0.2070 -1.0038 -0.7293
   10MOL    C97 7675   5.739   2.430   0.367 -0.0734  0.2371  0.1782
   10MOL    C98 7676   5.800   2.343   0.479  0.9282  0.2268  0.0251
   10MOL    C99 7677   5.782   2.195   0.438  0.1961 -0.4827  0.6324
   10MOL   H100 7678   5.756   3.565   7.490  0.6787  1.8874  0.5676
   10MOL   H101 7679   5.788   3.414   7.562  0.9293 -0.2950 -0.9783
   10MOL   H102 7680   5.794   3.515   0.104  0.7998  0.3787  0.5396
   10MOL   H103 7681   5.556   3.528   0.114  0.5785  0.5538 -0.8136
   10MOL   H104 7682   5.540   3.509   7.633 -0.8975 -2.2350 -0.8196
   10MOL   H105 7683   5.611   3.286   7.632  0.1967  0.0474 -0.6896
   10MOL   H106 7684   5.691   3.291   0.098 -2.1855 -1.2799  1.4608
   10MOL   H107 7685   5.408   3.318   0.056  1.2839  2.0891 -1.1362
   10MOL   H108 7686   5.477   3.321   0.212 -0.2385  0.4100 -0.2056
   10MOL   H109 7687   5.455   3.088   0.014  1.9138  2.0669 -0.6432
   10MOL   H110 7688   5.377   3.087   0.168 -0.0389  0.0303 -1.3944
   10MOL   H111 7689   5.686   3.066   0.128  0.5662 -1.4646  0.0212
   10MOL   H112 7690   5.604   3.070   0.281 -2.2259 -2.6368  1.0706
   10MOL   H113 7691   5.582   2.848   0.078 -1.3874 -1.3631  1.0556
   10MOL   H114 7692   5.484   2.863   0.218  0.9225 -2.7400  1.2136
   10MOL   H115 7693   5.789   2.839   0.211 -0.5622 -0.6443 -2.2022
   10MOL   H116 7694   5.700   2.865   0.363 -2.5773 -2.0229  1.0465
   10MOL   H117 7695   5.681   2.610   0.190  0.3770  0.2854 -0.2855
   10MOL   H118 7696   5.572   2.653   0.326  0.0530 -1.5928  1.9992
   10MOL   H119 7697   5.856   2.616   0.357 -0.4358 -2.3579 -3.3127
   10MOL   H120 7698   5.738   2.625   0.484  1.0861  2.3090 -1.7759
   10MOL   H121 7699   5.633   2.407   0.354  0.0173  0.0344 -0.2112
   10MOL   H122 7700   5.792   2.397   0.277  1.8287 -0.9228  1.6998
   10MOL   H123 7701   5.744   2.353   0.572  0.4747 -1.2952 -0.0600
   10MOL   H124 7702   5.907   2.358   0.494  0.8352 -0.0740  1.0192
   10MOL   H125 7703   5.689   2.177   0.383  0.6538 -0.8590 -0.0332
   10MOL   H126 7704   5.856   2.177   0.359 -1.3665  0.1677 -1.0193
   10MOL   H127 7705   5.790   2.129   0.524 -0.1808 -0.1671  0.9124
   10MOL   C128 7706   5.728   3.698   0.045  0.6061  1.0303 -0.0607
   10MOL   C129 7707   5.727   3.739   0.195 -0.1612 -0.5745  0.9060
   10MOL   C130 7708   5.865   3.785   0.253 -0.5095  0.5438 -0.5373
   10MOL   C131 7709   5.965   3.669   0.252  0.3140  0.1842  0.3162
   10MOL   C132 7710   6.080   3.707   0.344  0.0599 -0.0194 -1.1108
   10MOL   C133 7711   6.157   3.843   0.327  0.0544 -0.1961 -0.3772
   10MOL   C134 7712   6.202   3.876   0.180 -0.0678 -0.6709  0.2565
   10MOL   C135 7713   6.263   4.017   0.154  0.7670 -0.2919 -0.2847
   10MOL   C136 7714   6.400   4.019   0.227 -0.3431 -0.3370 -0.2401
   10MOL   C137 7715   6.466   4.163   0.228 -0.3977 -0.5752 -0.2431
   10MOL   C138 7716   6.614   4.158   0.260  0.4189  0.4908  0.0240
   10MOL   C139 7717   6.697   4.286   0.232 -0.0254 -0.0082 -0.6328
   10MOL   C140 7718   6.837   4.282   0.281 -0.5921  0.0877  0.8103
   10MOL   C141 7719   6.845   4.288   0.427  0.0585  0.1674 -0.2017
   10MOL   H142 7720   5.811   3.756   0.003  2.3973 -1.9014 -0.6990
   10MOL   H143 7721   5.635   3.720   7.689  0.5016  2.5094  0.7222
   10MOL   H144 7722   5.695   3.653   0.253 -0.5468  0.3964  2.1609
   10MOL   H145 7723   5.893   3.871   0.192  1.3351  2.0487  2.3060
   10MOL   H146 7724   5.848   3.824   0.353 -0.5497 -1.8734  0.4437
   10MOL   H147 7725   5.912   3.582   0.291  0.7457  0.5532  1.7474
   10MOL   H148 7726   6.013   3.664   0.154  0.5843 -1.4278  0.5089
   10MOL   H149 7727   6.056   3.714   0.450  0.1458 -0.5424 -1.0571
   10MOL   H150 7728   6.151   3.624   0.335  0.5329  0.2170  0.2275
   10MOL   H151 7729   6.095   3.924   0.366 -1.1323 -0.6366 -1.3228
   10MOL   H152 7730   6.245   3.845   0.391  0.2166  2.7915 -0.6237
   10MOL   H153 7731   6.265   3.802   0.131  0.6025  0.4853 -0.6461
   10MOL   H154 7732   6.112   3.883   0.119  1.3495  0.9876 -1.7122
   10MOL   H155 7733   6.270   4.033   0.046  0.1300  2.0776 -0.0137
   10MOL   H156 7734   6.205   4.105   0.184 -0.7866 -1.9242  1.6071
   10MOL   H157 7735   6.393   3.989   0.332  1.0286  2.5298  0.7235
   10MOL   H158 7736   6.470   3.947   0.184 -0.1768 -0.9655  1.0570
   10MOL   H159 7737   6.416   4.230   0.298 -0.4683 -0.0563 -0.7888
   10MOL   H160 7738   6.461   4.214   0.132 -1.0685 -0.4438 -0.1383
   10MOL   H161 7739   6.615   4.115   0.360  1.2723 -1.4138 -0.7853
   10MOL   H162 7740   6.669   4.083   0.204  1.2883  0.4437  0.9341
   10MOL   H163 7741   6.703   4.296   0.124  0.4089  0.1753 -0.5951
   10MOL   H164 7742   6.634   4.366   0.271 -0.3317 -1.2256  1.4432
   10MOL   H165 7743   6.894   4.196   0.244 -1.4429  0.8168 -2.3096
   10MOL   H166 7744   6.883   4.366   0.229  0.0421  0.3594  1.7833
   10MOL   H167 7745   6.808   4.198   0.476 -1.9736  0.7344 -0.6611
   10MOL   H168 7746   6.942   4.311   0.472 -0.9108  1.6670  1.1390
   10MOL   H169 7747   6.793   4.376   0.465  2.3767  2.1850 -1.5547
   10MOL   C170 7748   5.623   3.852   0.209  0.4787  0.8428 -1.1721
   10MOL   C171 7749   5.563   3.859   0.349 -0.1673 -0.6099 -0.2011
   10MOL   C172 7750   5.538   4.004   0.398 -0.2592  0.1633 -0.5641
   10MOL   C173 7751   5.672   4.075   0.444 -0.6580 -0.2891  0.5362
   10MOL   C174 7752   5.732   4.018   0.573 -0.4059 -0.1216  0.4304
   10MOL   C175 7753   5.870   4.072   0.604  0.6752  0.5886 -0.7748
   10MOL   C176 7754   5.936   4.018   0.738 -0.1701 -0.8316  0.3202
   10MOL   C177 7755   5.948   3.868   0.753 -0.0212 -0.4363  0.0416
   10MOL   C178 7756   6.056   3.835   0.853  0.3846 -0.2211  0.0616
   10MOL   C179 7757   6.063   3.689   0.904  0.1570  0.4784 -0.1002
   10MOL   C180 7758   6.081   3.596   0.778 -0.2651  0.4005  0.1133
   10MOL   C181 7759   6.209   3.603   0.699 -0.9253 -0.0344 -0.2266
   10MOL   C182 7760   6.233   3.481   0.605  0.2605 -0.4639 -0.2723
   10MOL   C183 7761   6.358   3.483   0.510 -0.6871 -0.4262 -0.1505
   10MOL   H184 7762   5.547   3.829   0.134 -1.7841 -0.1396  1.3502
   10MOL   H185 7763   5.661   3.948   0.175  1.6701  1.3202  1.3430
   10MOL   H186 7764   5.636   3.821   0.422  0.1732  0.2725 -0.0807
   10MOL   H187 7765   5.500   4.061   0.314 -1.7306  1.2556  0.8060
   10MOL   H188 7766   5.460   3.995   0.473 -0.8343 -1.8548 -1.3664
   10MOL   H189 7767   5.742   4.066   0.361 -1.4004 -2.0779  0.0593
   10MOL   H190 7768   5.663   4.183   0.455 -2.5782 -0.3047 -0.5102
   10MOL   H191 7769   5.663   4.041   0.654 -1.5487 -0.3659 -0.4595
   10MOL   H192 7770   5.727   3.910   0.582  0.6123 -0.1993  0.1458
   10MOL   H193 7771   5.867   4.181   0.610 -2.0190  0.4836  0.5290
   10MOL   H194 7772   5.931   4.053   0.515  1.9516  1.6048 -0.1323
   10MOL   H195 7773   5.884   4.060   0.824 -3.0324  0.2733 -1.8615
   10MOL   H196 7774   6.033   4.067   0.743 -1.4095  1.7670 -0.0804
   10MOL   H197 7775   5.967   3.815   0.659  2.5616 -1.2180  0.9630
   10MOL   H198 7776   5.851   3.823   0.777 -0.4619 -0.8237 -2.3637
   10MOL   H199 7777   6.038   3.901   0.939  0.0609 -1.5641  1.0308
   10MOL   H200 7778   6.146   3.859   0.796 -0.6578  1.8702 -0.7687
   10MOL   H201 7779   5.962   3.662   0.935  0.1562  1.8415  1.1393
   10MOL   H202 7780   6.145   3.673   0.974  1.1091  1.6578 -0.9203
   10MOL   H203 7781   5.996   3.605   0.710 -1.8260 -1.1867  1.7967
   10MOL   H204 7782   6.080   3.492   0.812 -2.3182  1.0844  2.3628
   10MOL   H205 7783   6.193   3.692   0.639  0.3798  0.7058  0.5053
   10MOL   H206 7784   6.295   3.618   0.764 -0.0942 -1.7630 -0.8934
   10MOL   H207 7785   6.242   3.390   0.663  1.2794 -0.2354 -0.0601
   10MOL   H208 7786   6.143   3.458   0.548 -1.3865 -0.5284  2.2478
   10MOL   H209 7787   6.388   3.385   0.474 -0.8718 -0.4329 -0.2873
   10MOL   H210 7788   6.444   3.525   0.562  0.0840  1.1866 -2.6847
   10MOL   H211 7789   6.348   3.550   0.425 -0.6859 -2.5971 -1.8817
   10MOL   C212 7790   5.441   3.763   0.367  0.0812  0.7779 -0.3316
   10MOL   C213 7791   5.377   3.731   0.504  0.2810 -0.0430 -0.2325
   10MOL   C214 7792   5.273   3.620   0.482  0.1535  0.3578 -0.1129
   10MOL   C215 7793   5.327   3.474   0.461 -0.2482 -0.2224  0.1585
   10MOL   C216 7794   5.221   3.369   0.495 -0.5825 -0.7179 -0.4961
   10MOL   C217 7795   5.289   3.234   0.463  0.6637  0.4604 -0.5627
   10MOL   C218 7796   5.194   3.121   0.502 -0.0888  0.0051 -0.8936
   10MOL   C219 7797   5.242   2.990   0.441 -0.2953 -0.3169 -0.4904
   10MOL   C220 7798   5.189   2.864   0.517 -0.4134  0.3763 -0.0361
   10MOL   C221 7799   5.261   2.732   0.472 -0.4312  0.5734  0.0795
   10MOL   C222 7800   5.184   2.614   0.532 -0.3347 -0.5133  0.1325
   10MOL   C223 7801   5.243   2.468   0.510  0.1703  0.7770  0.3428
   10MOL   C224 7802   5.378   2.449   0.580  0.5697  0.1437 -1.3541
   10MOL   C225 7803   5.439   2.308   0.573  0.3759  0.6065 -0.2939
   10MOL   H226 7804   5.468   3.664   0.331 -0.6975 -0.0197  1.2205
   10MOL   H227 7805   5.366   3.791   0.293 -0.9125 -1.2445 -0.1408
   10MOL   H228 7806   5.318   3.818   0.532  1.5401  1.0015 -0.7562
   10MOL   H229 7807   5.200   3.622   0.563 -0.3856 -1.0281 -0.5486
   10MOL   H230 7808   5.210   3.639   0.395  0.5228 -3.0612 -1.1623
   10MOL   H231 7809   5.421   3.455   0.514  2.3961  2.9726 -3.1525
   10MOL   H232 7810   5.339   3.458   0.354 -2.7997 -1.5996  0.0411
   10MOL   H233 7811   5.132   3.374   0.432  0.7957  0.3267 -2.4195
   10MOL   H234 7812   5.196   3.382   0.600 -1.5889  0.8476 -0.9035
   10MOL   H235 7813   5.380   3.219   0.521  0.4598  0.4701 -0.2343
   10MOL   H236 7814   5.311   3.227   0.357  1.9073  0.6262 -0.3220
   10MOL   H237 7815   5.187   3.110   0.610  0.7499 -0.7699 -0.9177
   10MOL   H238 7816   5.108   3.153   0.443  0.4359  1.8432 -0.6905
   10MOL   H239 7817   5.210   2.976   0.338  2.1185 -2.3311 -0.9981
   10MOL   H240 7818   5.351   2.981   0.441 -0.4213 -1.9842  0.0464
   10MOL   H241 7819   5.082   2.862   0.493 -0.5528  0.2321  0.5887
   10MOL   H242 7820   5.205   2.883   0.623 -4.2693  1.3504  0.4707
   10MOL   H243 7821   5.251   2.714   0.365 -0.2041 -0.2456  0.1917
   10MOL   H244 7822   5.368   2.730   0.490 -0.7158 -2.6413  1.8702
   10MOL   H245 7823   5.082   2.615   0.496  0.1355 -0.6015 -1.2145
   10MOL   H246 7824   5.182   2.633   0.640 -0.7548 -1.3162  0.2671
   10MOL   H247 7825   5.254   2.452   0.403 -0.4684  1.3137  0.1960
   10MOL   H248 7826   5.169   2.395   0.541 -0.5718  0.6815 -1.6317
   10MOL   H249 7827   5.373   2.463   0.688  0.2411 -1.4003 -1.1568
   10MOL   H250 7828   5.450   2.517   0.535 -0.7478  1.8080 -1.0111
   10MOL   H251 7829   5.369   2.233   0.610  1.9970  0.3427  2.3264
   10MOL   H252 7830   5.448   2.274   0.469  0.1552 -0.3051 -0.0233
   10MOL   H253 7831   5.540   2.299   0.614 -0.1282 -0.9117  0.6642
   10MOL   C254 7832   5.486   3.697   0.615 -0.0331  0.2838  0.1715
   10MOL   C255 7833   5.435   3.659   0.754  0.0641 -0.3093  0.3397
   10MOL   C256 7834   5.551   3.608   0.842  0.3365  0.0285  0.7010
   10MOL   C257 7835   5.574   3.459   0.841  0.0837 -0.4095  0.1513
   10MOL   C258 7836   5.680   3.417   0.947  0.5297  0.1268  0.2261
   10MOL   C259 7837   5.670   3.268   0.959  0.2392 -0.4805 -0.0678
   10MOL   C260 7838   5.781   3.205   1.051  0.2465  0.0665 -0.1802
   10MOL   C261 7839   5.758   3.057   1.081 -0.6877  0.5847 -0.2483
   10MOL   C262 7840   5.860   2.986   1.169 -0.1891 -0.3179 -0.4715
   10MOL   C263 7841   5.841   2.837   1.181 -0.1543  0.2284  0.0617
   10MOL   C264 7842   5.945   2.763   1.270  0.5605  0.0368 -0.0801
   10MOL   C265 7843   6.087   2.749   1.216 -0.4748 -0.8467  0.1710
   10MOL   C266 7844   6.112   2.641   1.109 -0.0943  0.0454 -0.3174
   10MOL   C267 7845   6.255   2.652   1.039  0.1328  0.6699  0.2092
   10MOL   H268 7846   5.556   3.778   0.636  0.4586 -0.4699  1.5452
   10MOL   H269 7847   5.548   3.615   0.578 -0.9508 -1.7875  2.9766
   10MOL   H270 7848   5.357   3.585   0.735  0.4986 -0.2591 -1.7931
   10MOL   H271 7849   5.533   3.615   0.949 -1.6151 -1.4867  0.4933
   10MOL   H272 7850   5.648   3.655   0.822  1.1343 -1.8587 -0.0299
   10MOL   H273 7851   5.598   3.414   0.744 -0.4915  0.0246 -0.1981
   10MOL   H274 7852   5.483   3.413   0.880  0.5169  0.7190  2.5510
   10MOL   H275 7853   5.663   3.461   1.045 -0.0011 -0.4789  0.4140
   10MOL   H276 7854   5.781   3.443   0.919  0.5832 -0.1467  0.1592
   10MOL   H277 7855   5.666   3.219   0.861 -1.1490  1.3660 -0.9627
   10MOL   H278 7856   5.574   3.246   1.006 -0.0776  1.8828  0.4682
   10MOL   H279 7857   5.876   3.222   1.001  0.8901 -4.4002 -0.6785
   10MOL   H280 7858   5.786   3.257   1.147 -0.4508  1.1860 -0.7440
   10MOL   H281 7859   5.730   2.999   0.993 -0.8200  0.6720 -0.2639
   10MOL   H282 7860   5.675   3.057   1.152  0.0529  3.0912  0.6786
   10MOL   H283 7861   5.963   2.999   1.135 -0.7963  2.0554 -1.4560
   10MOL   H284 7862   5.853   3.025   1.271  3.4438  1.1086 -0.6839
   10MOL   H285 7863   5.845   2.793   1.081  0.2045 -2.3635  1.1642
   10MOL   H286 7864   5.741   2.818   1.220  0.5545 -1.4593  1.1651
   10MOL   H287 7865   5.907   2.667   1.304  0.7484  0.0426  0.1500
   10MOL   H288 7866   5.952   2.824   1.360 -0.8243  0.6122 -0.3475
   10MOL   H289 7867   6.133   2.838   1.173  0.6710 -0.8726  1.3108
   10MOL   H290 7868   6.151   2.717   1.298  1.0195 -0.2046 -0.7300
   10MOL   H291 7869   6.111   2.547   1.164  1.0645  0.3297  0.1891
   10MOL   H292 7870   6.035   2.640   1.031 -0.2371  1.1448 -0.1974
   10MOL   H293 7871   6.267   2.752   0.999  2.5927 -0.3115 -1.6355
   10MOL   H294 7872   6.266   2.580   0.957  2.2341 -0.2669  1.2756
   10MOL   H295 7873   6.335   2.634   1.110 -1.6072  1.3518  2.3882
   10MOL   C296 7874   5.362   3.772   0.820 -0.0720  0.9970 -0.6748
   10MOL   C297 7875   5.265   3.728   0.933  0.1339  0.1278  0.0940
   10MOL   C298 7876   5.256   3.834   1.041  0.0544  0.2695  0.1312
   10MOL   C299 7877   5.385   3.852   1.126 -0.2304 -0.6080  0.1371
   10MOL   C300 7878   5.402   3.749   1.237 -0.0325 -0.8978  0.3403
   10MOL   C301 7879   5.534   3.752   1.319  0.1352  0.4757 -0.3659
   10MOL   C302 7880   5.664   3.687   1.242 -0.1833 -0.2945  0.0688
   10MOL   C303 7881   5.787   3.684   1.334  0.7019 -0.3018 -0.0519
   10MOL   C304 7882   5.924   3.660   1.262 -0.2201 -0.9661 -0.2422
   10MOL   C305 7883   5.939   3.510   1.221  0.0561 -0.1040 -0.2343
   10MOL   C306 7884   6.021   3.434   1.331  0.2516 -1.0213 -0.1333
   10MOL   C307 7885   6.044   3.283   1.312 -0.3456 -0.3268 -1.0162
   10MOL   C308 7886   6.164   3.216   1.388 -0.1210 -0.0186  0.2255
   10MOL   C309 7887   6.149   3.064   1.389 -0.1296 -1.4870  0.8382
   10MOL   H310 7888   5.312   3.831   0.744 -1.0165 -0.1534 -0.9626
   10MOL   H311 7889   5.436   3.844   0.855 -0.3568  0.6372  0.7231
   10MOL   H312 7890   5.296   3.637   0.983 -1.6274 -0.1073  0.7844
   10MOL   H313 7891   5.175   3.811   1.110  0.3070 -1.7831 -0.2100
   10MOL   H314 7892   5.231   3.931   1.000  1.7756  0.7638  0.2108
   10MOL   H315 7893   5.383   3.953   1.166 -0.3854  0.6077 -2.7777
   10MOL   H316 7894   5.471   3.855   1.058 -0.3970  2.4538 -0.0209
   10MOL   H317 7895   5.320   3.759   1.308  1.0485 -0.4997  1.5567
   10MOL   H318 7896   5.397   3.648   1.196  0.5636 -1.2169  1.0642
   10MOL   H319 7897   5.518   3.686   1.403  0.8675  0.4443 -0.2461
   10MOL   H320 7898   5.546   3.850   1.366 -2.6057  0.4923  0.3316
   10MOL   H321 7899   5.646   3.585   1.209  1.5895  0.0017 -1.8853
   10MOL   H322 7900   5.687   3.739   1.149 -0.6291  0.3767  0.3348
   10MOL   H323 7901   5.776   3.608   1.411  0.9420 -1.4797 -1.1640
   10MOL   H324 7902   5.802   3.782   1.379  2.5093 -0.2423 -0.7505
   10MOL   H325 7903   5.912   3.721   1.173  1.3929 -2.1626 -1.3094
   10MOL   H326 7904   6.004   3.704   1.323  2.8018 -2.8977 -2.6858
   10MOL   H327 7905   6.003   3.513   1.133  2.0235  2.9458  1.2231
   10MOL   H328 7906   5.849   3.455   1.192 -0.8456  0.2753  1.7646
   10MOL   H329 7907   5.963   3.457   1.421  1.1552  0.4067  0.1081
   10MOL   H330 7908   6.113   3.490   1.351 -1.3223  1.1995  1.0939
   10MOL   H331 7909   6.055   3.265   1.205 -0.6257 -1.5633 -0.8402
   10MOL   H332 7910   5.952   3.238   1.347  0.4369 -1.9747 -1.0507
   10MOL   H333 7911   6.166   3.243   1.494  0.9108 -0.4359  0.3201
   10MOL   H334 7912   6.260   3.243   1.344  0.3217  0.7061  1.6013
   10MOL   H335 7913   6.156   3.020   1.290  2.2284 -0.6446  0.6013
   10MOL   H336 7914   6.230   3.017   1.444  2.1122 -2.3323 -2.9925
   10MOL   H337 7915   6.060   3.039   1.446  0.5341 -3.2245  1.1284
   10MOL   C338 7916   5.121   3.705   0.874 -0.3731 -0.1062 -0.2000
   10MOL   C339 7917   5.034   3.606   0.956  0.2185  0.1771  0.1844
   10MOL   C340 7918   4.882   3.618   0.925 -0.3038  0.2784  0.3515
   10MOL   C341 7919   4.791   3.532   1.004 -0.6292 -0.5888  0.4567
   10MOL   C342 7920   4.764   3.585   1.146 -0.3151 -0.2050  0.2642
   10MOL   C343 7921   4.678   3.719   1.162 -0.5887 -0.2686  0.1402
   10MOL   C344 7922   4.641   3.748   1.312 -0.1816  0.3403 -0.3785
   10MOL   C345 7923   4.548   3.867   1.346 -0.9457  0.5889  0.4301
   10MOL   C346 7924   4.535   3.873   1.505  0.0466 -0.2916  0.1202
   10MOL   C347 7925   4.442   3.992   1.546 -0.5947  0.2135 -0.7551
   10MOL   C348 7926   4.428   4.000   1.708  0.4450  0.3675 -0.2364
   10MOL   C349 7927   4.378   4.139   1.747  0.0149  0.2640  0.0194
   10MOL   C350 7928   4.291   4.140   1.871  0.8242  0.3531  0.6845
   10MOL   C351 7929   4.361   4.127   2.002  0.5773 -0.0298 -0.0464
   10MOL   H352 7930   5.073   3.799   0.849  0.4445  0.3045 -0.2550
   10MOL   H353 7931   5.130   3.651   0.779 -1.2091 -0.0567 -0.3102
   10MOL   H354 7932   5.059   3.640   1.057 -0.8426  3.9456 -0.7774
   10MOL   H355 7933   4.859   3.724   0.928 -0.7428  0.1763  0.6406
   10MOL   H356 7934   4.883   3.582   0.822  0.0434 -0.5207  0.6323
   10MOL   H357 7935   4.815   3.426   1.009  1.5297 -0.1299  0.6317
   10MOL   H358 7936   4.701   3.536   0.943 -0.0079 -0.6418 -0.4824
   10MOL   H359 7937   4.850   3.592   1.213  0.9148 -0.4176 -1.2569
   10MOL   H360 7938   4.703   3.510   1.197  1.9999 -1.8192  0.7653
   10MOL   H361 7939   4.737   3.801   1.121 -1.7240  0.7304  0.4854
   10MOL   H362 7940   4.588   3.709   1.101 -1.8846 -0.1015  1.9758
   10MOL   H363 7941   4.592   3.660   1.353  1.1128 -0.8111 -1.2623
   10MOL   H364 7942   4.737   3.749   1.363 -0.3645 -0.9738 -0.0007
   10MOL   H365 7943   4.583   3.964   1.308  0.0930  0.2733  0.5746
   10MOL   H366 7944   4.446   3.853   1.310 -0.9630  0.4796  0.5248
   10MOL   H367 7945   4.486   3.780   1.535 -2.4321  0.4483 -1.4449
   10MOL   H368 7946   4.633   3.881   1.552 -0.6057 -0.3770  1.5115
   10MOL   H369 7947   4.499   4.078   1.509 -1.6664  1.0622 -0.4510
   10MOL   H370 7948   4.344   3.972   1.504 -1.2025 -0.2868  0.8428
   10MOL   H371 7949   4.525   3.993   1.758  1.0351 -1.0131 -1.5158
   10MOL   H372 7950   4.370   3.911   1.733  2.4548 -0.4247  1.7877
   10MOL   H373 7951   4.319   4.165   1.658 -0.2513  1.8207  0.6355
   10MOL   H374 7952   4.467   4.201   1.751  1.1152 -1.1272 -1.7637
   10MOL   H375 7953   4.233   4.231   1.880  0.3810  0.1181  0.2416
   10MOL   H376 7954   4.225   4.053   1.863 -0.6323  1.3751  1.4177
   10MOL   H377 7955   4.429   4.043   2.010 -0.2587 -0.5095  2.6015
   10MOL   H378 7956   4.424   4.216   2.000  1.5608 -0.7385 -0.9515
   10MOL   H379 7957   4.295   4.136   2.088  0.5407  1.7568 -0.2468
   10MOL   C380 7958   5.078   3.463   0.949 -0.6981 -0.3591 -0.8688
   10MOL   C381 7959   5.091   3.381   1.074 -0.4126  0.5466 -0.6557
   10MOL   C382 7960   5.112   3.223   1.046  0.0191 -0.2986  0.5301
   10MOL   C383 7961   5.250   3.200   0.984 -0.6031  0.1418 -0.1098
   10MOL   C384 7962   5.286   3.060   0.938 -0.4593  0.3672 -0.0353
   10MOL   C385 7963   5.281   2.946   1.045  0.2410  0.1758  0.3509
   10MOL   C386 7964   5.381   2.959   1.156 -0.4469  0.2025 -0.0176
   10MOL   C387 7965   5.333   2.876   1.277 -0.5814 -0.6590 -0.1562
   10MOL   C388 7966   5.443   2.880   1.382  0.4541 -0.2010  0.5915
   10MOL   C389 7967   5.426   2.786   1.501 -0.6489  0.4737  0.2166
   10MOL   C390 7968   5.515   2.798   1.628  0.1335  0.2953 -0.9644
   10MOL   C391 7969   5.662   2.791   1.593 -0.3017 -0.2291  0.0012
   10MOL   C392 7970   5.751   2.750   1.705 -0.3353  0.5337  0.3251
   10MOL   C393 7971   5.901   2.790   1.667 -0.3844  0.8474  0.1249
   10MOL   H394 7972   5.184   3.471   0.924 -0.5706 -0.3900 -0.3350
   10MOL   H395 7973   5.021   3.413   0.870 -0.8767 -0.1869 -0.8507
   10MOL   H396 7974   4.996   3.386   1.128  0.4812 -0.8120  1.0996
   10MOL   H397 7975   5.035   3.185   0.979  0.0999  2.2447 -1.0865
   10MOL   H398 7976   5.100   3.176   1.143  1.1224 -2.2235 -0.2286
   10MOL   H399 7977   5.325   3.225   1.059 -0.2437 -2.2816  0.3966
   10MOL   H400 7978   5.267   3.265   0.898  1.0307 -1.2862 -0.8912
   10MOL   H401 7979   5.392   3.062   0.909  0.5985 -1.2609  3.4263
   10MOL   H402 7980   5.237   3.023   0.847  0.9069  0.1377 -0.7004
   10MOL   H403 7981   5.301   2.847   1.005  1.3710  0.4291  0.2573
   10MOL   H404 7982   5.182   2.942   1.091 -0.3230 -2.3660 -1.0292
   10MOL   H405 7983   5.484   2.926   1.145 -0.2037  0.6408  0.8850
   10MOL   H406 7984   5.393   3.063   1.183  0.2297  0.6307 -1.9087
   10MOL   H407 7985   5.235   2.901   1.319 -0.5597 -0.2368 -0.3572
   10MOL   H408 7986   5.325   2.773   1.244 -4.8006  0.4667 -3.1343
   10MOL   H409 7987   5.535   2.849   1.333 -0.8095 -0.4417 -1.7115
   10MOL   H410 7988   5.463   2.982   1.415 -1.7485  1.1968 -2.1729
   10MOL   H411 7989   5.430   2.682   1.467 -1.1575  0.9069 -1.1712
   10MOL   H412 7990   5.327   2.796   1.543 -1.8150 -2.6803 -1.6356
   10MOL   H413 7991   5.499   2.883   1.694  0.0098  0.2268 -0.9075
   10MOL   H414 7992   5.479   2.706   1.674 -0.8115  1.3031  0.3273
   10MOL   H415 7993   5.679   2.891   1.551 -2.2639  0.1802  0.1249
   10MOL   H416 7994   5.663   2.728   1.504 -0.5993  0.5145 -0.5416
   10MOL   H417 7995   5.725   2.798   1.799  1.2648  2.3698 -0.1364
   10MOL   H418 7996   5.744   2.643   1.725 -0.1091 -0.1395 -2.8793
   10MOL   H419 7997   5.977   2.769   1.741 -0.0556 -0.6537 -0.6244
   10MOL   H420 7998   5.915   2.896   1.644  1.3370  0.4725 -0.5661
   10MOL   H421 7999   5.934   2.735   1.579 -0.5758 -0.4266  0.8321
   10MOL   C422 8000   5.201   3.440   1.166 -0.3519 -0.4445 -0.7321
   10MOL   C423 8001   5.214   3.371   1.309  0.2223  0.5951  0.7426
   10MOL   C424 8002   5.343   3.405   1.390  0.4762  0.0560  0.4520
   10MOL   C425 8003   5.458   3.301   1.361  0.4339  0.0163 -0.4447
   10MOL   C426 8004   5.593   3.302   1.445  0.1393 -0.0832  0.5370
   10MOL   C427 8005   5.563   3.246   1.586 -0.1919 -0.3280  0.0245
   10MOL   C428 8006   5.700   3.242   1.668  1.1099 -0.0436  0.2902
   10MOL   C429 8007   5.682   3.207   1.822 -0.8794  0.1864  0.2301
   10MOL   C430 8008   5.582   3.289   1.902  0.7373 -0.7459 -0.0782
   10MOL   C431 8009   5.597   3.273   2.053  0.9025 -0.4954 -0.9324
   10MOL   C432 8010   5.539   3.146   2.113  0.2242  0.5278  0.3160
   10MOL   C433 8011   5.546   3.138   2.262 -0.1230  0.2219 -0.0861
   10MOL   C434 8012   5.546   2.999   2.312  0.1163  0.4695  0.5409
   10MOL   C435 8013   5.584   2.982   2.459  0.9005 -0.2051 -0.3606
   10MOL   H436 8014   5.181   3.545   1.188  3.1347 -0.3018  2.0963
   10MOL   H437 8015   5.299   3.445   1.119  1.4548  1.9873  3.0384
   10MOL   H438 8016   5.215   3.264   1.291 -1.3623  0.3775  1.8302
   10MOL   H439 8017   5.322   3.407   1.497 -3.0052  2.4054 -0.1873
   10MOL   H440 8018   5.380   3.506   1.371  1.5343 -0.1703  1.2706
   10MOL   H441 8019   5.417   3.200   1.368 -0.2723  0.3363  0.2050
   10MOL   H442 8020   5.475   3.312   1.254  2.4685 -1.6938 -0.3184
   10MOL   H443 8021   5.651   3.394   1.445  1.3233 -0.7665  3.8908
   10MOL   H444 8022   5.653   3.239   1.380  1.3951  1.2956  0.3278
   10MOL   H445 8023   5.515   3.150   1.576  0.6867 -1.0978  2.7730
   10MOL   H446 8024   5.499   3.321   1.633 -1.2562 -0.4067 -1.2644
   10MOL   H447 8025   5.753   3.159   1.621 -0.9385 -0.8900 -0.6046
   10MOL   H448 8026   5.752   3.337   1.652  1.1739 -0.5031 -2.5516
   10MOL   H449 8027   5.650   3.103   1.818  2.1065 -0.7028 -3.0701
   10MOL   H450 8028   5.785   3.210   1.858 -1.1877 -0.1319  1.1402
   10MOL   H451 8029   5.596   3.395   1.879 -2.2305  0.0069  1.3307
   10MOL   H452 8030   5.487   3.254   1.862  0.6132  1.9646 -2.2472
   10MOL   H453 8031   5.703   3.292   2.073 -0.0412  3.7454  0.7864
   10MOL   H454 8032   5.541   3.359   2.090 -0.7500 -1.4234 -1.2497
   10MOL   H455 8033   5.436   3.144   2.078  0.4324 -0.5514 -0.2715
   10MOL   H456 8034   5.591   3.061   2.068  0.5200  0.6367  0.4528
   10MOL   H457 8035   5.478   3.199   2.322 -1.0788 -0.2236 -0.7042
   10MOL   H458 8036   5.643   3.184   2.285 -0.1967 -0.4976  1.7939
   10MOL   H459 8037   5.445   2.962   2.296  0.4941 -0.8636  1.1661
   10MOL   H460 8038   5.606   2.924   2.260  0.7914  1.6288 -0.3890
   10MOL   H461 8039   5.508   3.034   2.518  0.1332  0.7841 -2.1964
   10MOL   H462 8040   5.682   3.029   2.466 -0.0911  1.9817 -0.4315
   10MOL   H463 8041   5.576   2.877   2.484 -1.5084 -0.5613 -2.4019
   10MOL   C464 8042   5.091   3.404   1.391 -0.1247  0.5717  0.6736
   10MOL   C465 8043   5.075   3.303   1.510 -0.3362  0.1980 -0.1146
   10MOL   C466 8044   4.952   3.353   1.586  0.2983  0.3814 -0.0793
   10MOL   C467 8045   4.814   3.351   1.510  1.0536  0.2454  0.4725
   10MOL   C468 8046   4.699   3.348   1.617 -0.4163  0.2911 -0.4573
   10MOL   C469 8047   4.563   3.318   1.572 -0.3399  0.1994  0.0841
   10MOL   C470 8048   4.542   3.177   1.512  0.1909 -0.2771  0.4314
   10MOL   C471 8049   4.390   3.148   1.492  0.5749  0.0129 -0.6227
   10MOL   C472 8050   4.365   3.011   1.434  0.5958  0.4948 -0.0637
   10MOL   C473 8051   4.212   2.974   1.426 -0.0833 -0.0969 -0.2452
   10MOL   C474 8052   4.153   2.974   1.568 -0.2037 -0.1118  0.3034
   10MOL   C475 8053   4.010   2.927   1.561  0.7072 -0.2251  0.5155
   10MOL   C476 8054   3.924   2.941   1.684  0.1220  0.0941  0.4454
   10MOL   C477 8055   3.862   3.080   1.695  0.2449  0.9780  0.0433
   10MOL   H478 8056   4.998   3.382   1.337  0.0806 -0.3068  0.6766
   10MOL   H479 8057   5.098   3.510   1.413 -0.7064  0.6038  0.7048
   10MOL   H480 8058   5.151   3.323   1.586  1.4230 -3.7218 -0.7146
   10MOL   H481 8059   4.940   3.281   1.667  0.1487  1.5067  0.9024
   10MOL   H482 8060   4.965   3.451   1.633  1.6972  0.7842 -1.2897
   10MOL   H483 8061   4.810   3.270   1.438 -2.4303  0.0391  0.8058
   10MOL   H484 8062   4.804   3.441   1.449  0.5472  0.4102  0.7957
   10MOL   H485 8063   4.697   3.452   1.653 -1.0446  1.0142 -2.5441
   10MOL   H486 8064   4.725   3.287   1.704  0.2940 -0.8832 -1.4858
   10MOL   H487 8065   4.496   3.315   1.659 -2.7652  0.8922 -1.7060
   10MOL   H488 8066   4.532   3.394   1.500  0.0486  0.3273  0.0516
   10MOL   H489 8067   4.597   3.166   1.418 -0.1004  0.2497  0.1972
   10MOL   H490 8068   4.571   3.100   1.583 -0.7943  0.9229  2.1676
   10MOL   H491 8069   4.346   3.151   1.591  2.3521  0.0597  0.1811
   10MOL   H492 8070   4.333   3.218   1.431 -1.0646 -1.9779 -1.4434
   10MOL   H493 8071   4.409   3.009   1.335 -1.8489  1.9412 -1.2442
   10MOL   H494 8072   4.413   2.937   1.497  1.9438  0.7955 -0.7164
   10MOL   H495 8073   4.163   3.032   1.348  0.1702  0.1855 -0.1940
   10MOL   H496 8074   4.193   2.873   1.389  1.1689 -0.3856 -0.1222
   10MOL   H497 8075   4.217   2.911   1.629 -0.2111  1.0556  1.5336
   10MOL   H498 8076   4.148   3.071   1.618  3.2847  0.8951 -1.1844
   10MOL   H499 8077   4.014   2.819   1.543 -0.6616 -0.1991  0.0149
   10MOL   H500 8078   3.959   2.969   1.475  0.5863  0.0807  0.7341
   10MOL   H501 8079   3.856   2.856   1.676  0.8296 -0.3098 -1.7225
   10MOL   H502 8080   3.990   2.925   1.769  0.0077 -0.1463  0.4897
   10MOL   H503 8081   3.769   3.080   1.751 -0.2615  0.8228 -0.7884
   10MOL   H504 8082   3.925   3.153   1.747  1.4426  1.6451 -2.2786
   10MOL   H505 8083   3.840   3.119   1.596  2.4426  1.5493 -0.2470
   10MOL   C506 8084   5.090   3.149   1.486 -0.3427  0.5832  0.0328
   10MOL   C507 8085   5.038   3.048   1.602  0.5210 -0.5071  0.8690
   10MOL   C508 8086   4.989   2.918   1.548  0.1376  0.1465  0.4032
   10MOL   C509 8087   4.854   2.931   1.487  0.0745 -0.1410 -0.0825
   10MOL   C510 8088   4.824   2.807   1.398 -0.1373 -0.2828 -0.9203
   10MOL   C511 8089   4.683   2.812   1.347 -0.7888  0.1224 -0.3181
   10MOL   C512 8090   4.644   2.689   1.264  0.2330  0.2772 -0.0349
   10MOL   C513 8091   4.631   2.558   1.346  0.1784 -0.5515 -0.7098
   10MOL   C514 8092   4.547   2.447   1.272 -0.8839  0.1794  0.2051
   10MOL   C515 8093   4.578   2.319   1.331  0.8764 -0.5365  0.1237
   10MOL   C516 8094   4.513   2.198   1.263  0.5492 -0.1778 -0.0993
   10MOL   C517 8095   4.593   2.063   1.274 -0.3947  0.6696 -0.1189
   10MOL   C518 8096   4.596   2.012   1.420 -0.0614  0.6041 -0.9257
   10MOL   C519 8097   4.625   1.864   1.436  0.8999  0.2504  0.2482
   10MOL   H520 8098   5.191   3.121   1.456 -0.9439 -0.4269 -1.1085
   10MOL   H521 8099   5.020   3.126   1.406 -0.2142 -1.8731  0.5837
   10MOL   H522 8100   4.952   3.083   1.660  0.0192 -1.1656  0.5380
   10MOL   H523 8101   5.039   2.895   1.454 -2.4050  1.6673 -1.3922
   10MOL   H524 8102   4.995   2.833   1.616 -1.4553 -0.3228 -0.0173
   10MOL   H525 8103   4.792   2.930   1.576  0.7826 -4.0344  0.4766
   10MOL   H526 8104   4.833   3.026   1.438  0.2152 -0.7155 -1.2794
   10MOL   H527 8105   4.847   2.721   1.461  0.9139  0.9450  0.4294
   10MOL   H528 8106   4.894   2.810   1.314  0.0741  1.6916 -0.7036
   10MOL   H529 8107   4.668   2.892   1.275  0.4173  0.3222 -0.3548
   10MOL   H530 8108   4.620   2.830   1.435 -0.9871  0.5284 -0.5433
   10MOL   H531 8109   4.550   2.722   1.221  0.0057 -2.0190 -1.3692
   10MOL   H532 8110   4.713   2.685   1.180  0.2718 -0.7156  0.0401
   10MOL   H533 8111   4.587   2.587   1.441  1.1612  1.3101 -0.8048
   10MOL   H534 8112   4.729   2.515   1.367  0.5828 -0.2108 -1.8599
   10MOL   H535 8113   4.588   2.452   1.171  0.0941  0.4264  0.6182
   10MOL   H536 8114   4.440   2.467   1.268 -1.5091 -3.0611 -1.2170
   10MOL   H537 8115   4.684   2.314   1.307  1.2573  2.1357  1.0829
   10MOL   H538 8116   4.569   2.318   1.440 -0.2770  1.0556  0.0539
   10MOL   H539 8117   4.414   2.178   1.305  1.8999  0.7838  3.7356
   10MOL   H540 8118   4.498   2.216   1.157  3.4123 -2.1899 -0.9102
   10MOL   H541 8119   4.693   2.073   1.233 -0.9726  0.6212 -1.5714
   10MOL   H542 8120   4.545   1.994   1.205  1.5978 -0.9864  0.1118
   10MOL   H543 8121   4.493   2.031   1.450 -0.0023 -1.7197  0.8636
   10MOL   H544 8122   4.656   2.084   1.476  1.2273  0.4568 -2.0888
   10MOL   H545 8123   4.536   1.809   1.404  1.5563 -1.2694  0.9767
   10MOL   H546 8124   4.710   1.832   1.376  1.3505  2.9851 -0.6580
   10MOL   H547 8125   4.634   1.827   1.538  0.0674 -4.2486 -1.1977
   10MOL   C548 8126   5.155   3.026   1.703  0.0228  0.2592 -0.4296
   10MOL   C549 8127   5.131   3.041   1.863  0.5456 -0.1291  0.0156
   10MOL   C550 8128   5.238   2.978   1.954  0.4885  0.7605  0.6115
   10MOL   C551 8129   5.216   2.828   1.961 -0.3389  0.0683  0.3967
   10MOL   C552 8130   5.101   2.795   2.051  0.0474 -0.1265  0.3592
   10MOL   C553 8131   5.091   2.643   2.059  0.6040  0.1122 -0.2196
   10MOL   C554 8132   4.968   2.614   2.148 -0.3381  0.1113 -0.0981
   10MOL   C555 8133   4.956   2.458   2.181 -0.2885 -0.1530 -0.8357
   10MOL   C556 8134   4.820   2.428   2.238 -1.0374  0.0300 -0.0300
   10MOL   C557 8135   4.794   2.287   2.284  0.4781 -0.0848 -0.0361
   10MOL   C558 8136   4.824   2.262   2.426 -0.8829 -0.1277  0.1653
   10MOL   C559 8137   4.811   2.114   2.469 -0.2335 -0.6110 -0.3497
   10MOL   C560 8138   4.846   2.098   2.617 -0.3772 -0.3474  0.6340
   10MOL   C561 8139   4.805   1.966   2.671 -0.0498 -0.4432 -0.5006
   10MOL   H562 8140   5.219   2.944   1.669  1.6770  1.2819  0.1729
   10MOL   H563 8141   5.226   3.104   1.677  0.3529  0.5625  1.2988
   10MOL   H564 8142   5.032   2.996   1.876 -0.7117  2.1034 -1.4771
   10MOL   H565 8143   5.339   2.997   1.917  0.4320  1.0268  0.5902
   10MOL   H566 8144   5.238   3.013   2.057  1.1837  4.3557 -0.5310
   10MOL   H567 8145   5.308   2.790   2.005  1.4922 -0.7612 -3.8450
   10MOL   H568 8146   5.204   2.783   1.862  0.1977  0.3944  0.1771
   10MOL   H569 8147   5.119   2.835   2.151 -0.1622 -0.1513  0.4069
   10MOL   H570 8148   5.003   2.829   2.019 -0.0818 -1.4208 -0.6633
   10MOL   H571 8149   5.179   2.602   2.109  1.5762 -0.0000 -1.9876
   10MOL   H572 8150   5.073   2.588   1.967 -0.3429 -0.6779  0.4339
   10MOL   H573 8151   4.969   2.667   2.243 -1.6156 -1.8039  1.0181
   10MOL   H574 8152   4.871   2.646   2.110 -1.7790 -0.4016  3.0191
   10MOL   H575 8153   5.041   2.439   2.246 -1.0845  1.8725  0.8505
   10MOL   H576 8154   4.965   2.394   2.093 -1.6898  0.3169 -1.3378
   10MOL   H577 8155   4.755   2.457   2.155 -2.4023 -0.2322  0.9240
   10MOL   H578 8156   4.794   2.496   2.320  1.4281  0.3317  0.5398
   10MOL   H579 8157   4.693   2.265   2.252  0.4712 -0.0098 -0.0676
   10MOL   H580 8158   4.853   2.225   2.216  0.4474 -0.4536  0.2712
   10MOL   H581 8159   4.750   2.307   2.491 -0.9416 -1.7123  1.2506
   10MOL   H582 8160   4.918   2.296   2.469 -1.2605 -0.2316  1.0944
   10MOL   H583 8161   4.708   2.080   2.456 -0.8731  1.2575 -0.2807
   10MOL   H584 8162   4.869   2.049   2.403 -0.2862 -0.7232 -0.2870
   10MOL   H585 8163   4.949   2.128   2.639 -0.2840 -0.7476  0.7388
   10MOL   H586 8164   4.790   2.176   2.668  1.7019  2.4888 -1.1936
   10MOL   H587 8165   4.836   1.956   2.775 -1.3745  1.6795  0.1178
   10MOL   H588 8166   4.699   1.942   2.667 -0.2844  0.0381  2.0125
   10MOL   H589 8167   4.853   1.882   2.620  0.3643  0.3753 -1.4629
   10MOL   C590 8168   5.127   3.195   1.904  0.6934  0.3758  0.1683
   10MOL   C591 8169   5.034   3.230   2.015 -0.4037 -0.5099 -0.1573
   10MOL   C592 8170   5.067   3.369   2.071 -0.0157  0.5279 -0.6631
   10MOL   C593 8171   5.214   3.369   2.134  0.5118  0.1828  0.8538
   10MOL   C594 8172   5.231   3.471   2.250  0.0092 -0.4100  0.1462
   10MOL   C595 8173   5.208   3.617   2.212 -0.1751 -0.0615  0.1896
   10MOL   C596 8174   5.229   3.725   2.320  0.5160  0.1951  0.6124
   10MOL   C597 8175   5.361   3.725   2.390 -0.0301  0.2586  0.2522
   10MOL   C598 8176   5.489   3.723   2.296 -0.2044  0.2028  0.3958
   10MOL   C599 8177   5.622   3.733   2.374 -0.2903  0.2268  0.2714
   10MOL   C600 8178   5.743   3.760   2.284 -0.7119  0.4684  0.7651
   10MOL   C601 8179   5.861   3.809   2.375  0.1087  0.4189  0.5187
   10MOL   C602 8180   6.005   3.808   2.313  1.1875 -0.0955  0.3506
   10MOL   C603 8181   6.117   3.847   2.401  0.8402 -0.2268 -0.0779
   10MOL   H604 8182   5.104   3.265   1.824  1.1691  0.0484 -0.2538
   10MOL   H605 8183   5.229   3.214   1.936 -0.1419  2.2055  1.8279
   10MOL   H606 8184   5.040   3.160   2.098  0.2109 -1.6138 -1.1253
   10MOL   H607 8185   4.998   3.392   2.152 -0.9937 -0.5934 -1.1519
   10MOL   H608 8186   5.066   3.448   1.996 -2.5805 -0.2469 -1.4942
   10MOL   H609 8187   5.287   3.371   2.054 -0.0575 -2.5194  0.2290
   10MOL   H610 8188   5.231   3.274   2.185  2.6247  0.9014  1.5078
   10MOL   H611 8189   5.334   3.465   2.286 -0.3293 -1.9860  0.8805
   10MOL   H612 8190   5.171   3.456   2.340 -1.9251  2.4163 -0.5999
   10MOL   H613 8191   5.109   3.627   2.168  0.4148  1.7388 -0.7575
   10MOL   H614 8192   5.272   3.635   2.126  1.3873 -0.8786  1.1446
   10MOL   H615 8193   5.208   3.824   2.279 -2.1607 -0.1645  1.0935
   10MOL   H616 8194   5.156   3.719   2.400  1.2268  0.4817  1.2961
   10MOL   H617 8195   5.355   3.817   2.448 -3.4843  0.6431 -0.5941
   10MOL   H618 8196   5.373   3.640   2.457 -0.4280  0.4306  0.5424
   10MOL   H619 8197   5.498   3.645   2.220 -0.0616  0.1399  0.4785
   10MOL   H620 8198   5.473   3.821   2.250 -1.2223  0.4966  1.3530
   10MOL   H621 8199   5.612   3.805   2.455  2.8559 -0.1735  1.0652
   10MOL   H622 8200   5.630   3.635   2.420  2.8167  0.8827  1.2738
   10MOL   H623 8201   5.730   3.829   2.201  0.2421  0.9581  1.0256
   10MOL   H624 8202   5.788   3.673   2.237  0.6154  0.9593  1.1172
   10MOL   H625 8203   5.856   3.764   2.474 -0.5944  0.3556  0.4551
   10MOL   H626 8204   5.838   3.914   2.397 -3.4799  0.0766 -1.2281
   10MOL   H627 8205   6.020   3.704   2.285  1.9216  0.2603 -0.6055
   10MOL   H628 8206   5.999   3.853   2.214 -0.5536  0.9778  0.9236
   10MOL   H629 8207   6.112   3.953   2.425  1.6489 -0.9007  3.3155
   10MOL   H630 8208   6.212   3.811   2.362  0.0010 -0.7654 -1.6556
   10MOL   H631 8209   6.103   3.790   2.493 -2.2763 -3.8801 -2.6861
   10MOL   C632 8210   4.885   3.225   1.977  0.3623  0.2932 -0.0626
   10MOL   C633 8211   4.800   3.199   2.107  0.9047 -0.6410  0.2977
   10MOL   C634 8212   4.659   3.251   2.082  0.4190 -0.4298  0.0005
   10MOL   C635 8213   4.560   3.236   2.200  0.0325  0.1257  0.1847
   10MOL   C636 8214   4.433   3.314   2.194  0.5694  0.3839  0.0349
   10MOL   C637 8215   4.356   3.295   2.320  0.1129 -0.0475 -0.0024
   10MOL   C638 8216   4.225   3.376   2.322 -0.6617 -0.2749  0.7712
   10MOL   C639 8217   4.134   3.350   2.447 -0.0032 -0.0156  0.2723
   10MOL   C640 8218   4.184   3.383   2.593 -0.1580 -0.5071  0.0516
   10MOL   C641 8219   4.083   3.351   2.704  0.6501 -0.4534  0.3224
   10MOL   C642 8220   4.149   3.372   2.845  0.1377  0.7759 -0.1248
   10MOL   C643 8221   4.053   3.307   2.947  0.0035  0.1913 -0.0130
   10MOL   C644 8222   4.117   3.302   3.080  0.4100  0.2840  0.1991
   10MOL   C645 8223   4.168   3.443   3.139 -0.0902 -0.3740  0.9045
   10MOL   H646 8224   4.861   3.138   1.916 -0.8904 -0.7191  1.8426
   10MOL   H647 8225   4.858   3.306   1.909 -0.9807 -0.0744  0.0222
   10MOL   H648 8226   4.837   3.262   2.187  2.0934  0.1369 -0.8384
   10MOL   H649 8227   4.663   3.356   2.052  1.6123 -1.1572 -2.4957
   10MOL   H650 8228   4.618   3.198   1.996  0.6364  1.1850 -1.1371
   10MOL   H651 8229   4.606   3.254   2.297  1.3315  0.3060 -0.4604
   10MOL   H652 8230   4.530   3.132   2.214  0.7147  0.2752  2.9867
   10MOL   H653 8231   4.378   3.283   2.105  0.0503  0.1293  0.4442
   10MOL   H654 8232   4.454   3.421   2.195 -0.1170  0.5351 -0.9690
   10MOL   H655 8233   4.337   3.188   2.324  1.0887 -0.1637  1.8576
   10MOL   H656 8234   4.426   3.325   2.398  0.0847 -0.9050  0.3543
   10MOL   H657 8235   4.242   3.483   2.313 -0.9032 -0.4004 -1.5492
   10MOL   H658 8236   4.171   3.345   2.232 -0.4641 -1.2942  0.9974
   10MOL   H659 8237   4.105   3.245   2.447  0.2144 -0.1010 -1.8565
   10MOL   H660 8238   4.042   3.406   2.434  0.1338  0.2430  0.4059
   10MOL   H661 8239   4.213   3.488   2.600  0.4518 -0.6459 -0.2789
   10MOL   H662 8240   4.280   3.335   2.612  1.2242  1.0902 -2.5052
   10MOL   H663 8241   4.009   3.427   2.679  0.9756  0.4036  1.8645
   10MOL   H664 8242   4.052   3.250   2.679 -1.5606  0.5678 -1.1462
   10MOL   H665 8243   4.243   3.318   2.855 -1.5464 -1.9240  1.8645
   10MOL   H666 8244   4.173   3.477   2.860  0.8288  0.9264 -2.0671
   10MOL   H667 8245   4.022   3.208   2.913  2.5956  0.3301 -3.0640
   10MOL   H668 8246   3.957   3.359   2.951 -0.9379 -1.5892  1.1357
   10MOL   H669 8247   4.200   3.232   3.073  0.6200  0.3548  1.8687
   10MOL   H670 8248   4.037   3.259   3.141 -1.4322 -0.4434 -2.6390
   10MOL   H671 8249   4.086   3.513   3.121 -2.8861 -3.7866 -0.3922
   10MOL   H672 8250   4.181   3.449   3.247  0.0322 -1.3320  0.9489
   10MOL   H673 8251   4.263   3.474   3.096 -0.4695  1.1174  1.1317
   10MOL   C674 8252   4.802   3.046   2.135  0.6424 -0.2411 -0.8738
   10MOL   C675 8253   4.805   3.009   2.289 -0.6276 -0.4428  0.0677
   10MOL   C676 8254   4.752   2.868   2.316 -0.4932 -0.2899 -0.4532
   10MOL   C677 8255   4.611   2.862   2.374  0.2055  0.6234  0.2437
   10MOL   C678 8256   4.530   2.719   2.365  0.1059 -0.2160  0.4913
   10MOL   C679 8257   4.482   2.668   2.223 -0.1371  0.3019 -0.3836
   10MOL   C680 8258   4.423   2.530   2.218  0.4411  0.4191 -0.1369
   10MOL   C681 8259   4.388   2.494   2.074 -0.0473  0.0393 -0.7618
   10MOL   C682 8260   4.262   2.566   2.027 -0.1370 -0.2274  0.0722
   10MOL   C683 8261   4.198   2.492   1.911  0.5477  0.4300  0.7669
   10MOL   C684 8262   4.273   2.508   1.777 -0.2138  0.5253  0.9089
   10MOL   C685 8263   4.194   2.449   1.658  0.6133 -0.0746  0.0613
   10MOL   C686 8264   4.276   2.465   1.531 -0.2438 -0.5956 -0.3930
   10MOL   C687 8265   4.274   2.607   1.464  0.3119 -0.0928 -0.8790
   10MOL   H688 8266   4.896   3.008   2.096  0.2525 -2.3195  0.1665
   10MOL   H689 8267   4.720   2.987   2.094  0.1953  0.4093 -0.9189
   10MOL   H690 8268   4.749   3.081   2.350 -0.0354 -0.0042  0.0948
   10MOL   H691 8269   4.763   2.803   2.229  0.8998 -2.2118  1.1068
   10MOL   H692 8270   4.821   2.822   2.386  0.3695  1.8749  0.1437
   10MOL   H693 8271   4.609   2.903   2.475 -0.0962  1.4125 -0.0744
   10MOL   H694 8272   4.552   2.924   2.306  1.7083  1.2464 -0.5080
   10MOL   H695 8273   4.597   2.645   2.409  0.2213 -0.4256 -0.0414
   10MOL   H696 8274   4.443   2.717   2.430 -1.2586  2.8302 -1.1483
   10MOL   H697 8275   4.401   2.734   2.193 -1.2227 -0.5209  0.6930
   10MOL   H698 8276   4.567   2.672   2.155 -1.0945 -0.4384 -1.6424
   10MOL   H699 8277   4.498   2.462   2.259  0.6346 -0.6234 -2.1294
   10MOL   H700 8278   4.336   2.533   2.283  0.9338  0.8129  0.5205
   10MOL   H701 8279   4.475   2.523   2.015 -0.0656 -1.7479 -1.7060
   10MOL   H702 8280   4.363   2.388   2.071 -1.7983  0.4120 -0.1692
   10MOL   H703 8281   4.191   2.574   2.109 -1.2951 -1.4992 -0.7568
   10MOL   H704 8282   4.284   2.665   1.988  2.4403 -0.7858  0.0235
   10MOL   H705 8283   4.095   2.528   1.899  0.6435  0.1301 -1.0446
   10MOL   H706 8284   4.177   2.389   1.940  1.1802  0.1792  0.3374
   10MOL   H707 8285   4.375   2.472   1.792  0.0900  1.2846  0.6895
   10MOL   H708 8286   4.288   2.616   1.769 -0.4641  0.5401  0.6388
   10MOL   H709 8287   4.094   2.493   1.650  1.1323  1.0205 -0.4416
   10MOL   H710 8288   4.176   2.343   1.677  1.9637 -0.1114  1.1723
   10MOL   H711 8289   4.377   2.436   1.559 -0.9685 -0.5568  2.3419
   10MOL   H712 8290   4.241   2.390   1.459  0.0521 -0.2226 -0.9282
   10MOL   H713 8291   4.320   2.685   1.525  2.2477 -2.8858  1.4147
   10MOL   H714 8292   4.313   2.621   1.364  2.6939 -2.1273 -0.2908
   10MOL   H715 8293   4.170   2.637   1.451  0.8513  1.6218 -1.2904
   10MOL   C716 8294   4.947   3.029   2.358  0.0055  0.8080  0.5413
   10MOL   C717 8295   4.949   3.072   2.499  0.2544  0.0820  0.0989
   10MOL   C718 8296   5.084   3.032   2.558 -0.4367  0.3464 -0.2244
   10MOL   C719 8297   5.107   2.880   2.587 -0.2440  0.0163 -0.2773
   10MOL   C720 8298   5.008   2.826   2.701  0.3741  0.4801  0.6711
   10MOL   C721 8299   5.011   2.668   2.688 -0.1417 -0.2758 -0.7428
   10MOL   C722 8300   4.913   2.592   2.776  0.5044 -0.2855 -0.6888
   10MOL   C723 8301   4.948   2.442   2.794 -0.0419 -0.0210  0.3977
   10MOL   C724 8302   4.839   2.375   2.878  0.6464 -0.8155 -0.1503
   10MOL   C725 8303   4.825   2.406   3.028 -0.5491  0.0435 -0.0524
   10MOL   C726 8304   4.727   2.322   3.100 -0.1568  0.1800  0.3247
   10MOL   C727 8305   4.721   2.349   3.254 -0.1333  0.3098  0.2819
   10MOL   C728 8306   4.671   2.234   3.336  0.2923 -0.0688  0.4328
   10MOL   C729 8307   4.519   2.207   3.332 -0.0934 -0.2148  0.3805
   10MOL   H730 8308   4.997   2.932   2.356 -1.7694 -0.1194 -0.4084
   10MOL   H731 8309   5.017   3.092   2.301  1.9581 -1.2371  0.6036
   10MOL   H732 8310   4.867   3.010   2.536 -0.3526  0.6829 -0.2402
   10MOL   H733 8311   5.105   3.085   2.650 -0.7888 -2.0663  1.2666
   10MOL   H734 8312   5.155   3.075   2.486  0.8192 -0.3193  0.6148
   10MOL   H735 8313   5.084   2.817   2.501 -0.7069  0.3439 -0.3955
   10MOL   H736 8314   5.214   2.871   2.607 -0.2828  0.2609  0.0571
   10MOL   H737 8315   5.032   2.852   2.804 -1.3257  2.1282  0.6635
   10MOL   H738 8316   4.908   2.862   2.677 -0.4101 -2.3213 -0.4430
   10MOL   H739 8317   4.987   2.645   2.584 -0.3925  2.2247 -1.2753
   10MOL   H740 8318   5.106   2.618   2.708 -1.2411 -0.6950  3.8787
   10MOL   H741 8319   4.911   2.642   2.873 -0.0384  0.0811 -0.8897
   10MOL   H742 8320   4.819   2.598   2.721 -0.0687  0.7590  0.3817
   10MOL   H743 8321   5.044   2.417   2.838  0.4200 -1.2654 -1.2609
   10MOL   H744 8322   4.941   2.394   2.696  2.5472 -0.5551  0.4516
   10MOL   H745 8323   4.739   2.380   2.835  1.3374 -0.3265 -1.7246
   10MOL   H746 8324   4.853   2.267   2.877 -1.2662 -1.0959  0.4212
   10MOL   H747 8325   4.922   2.400   3.076  0.5908  2.6606 -1.9082
   10MOL   H748 8326   4.801   2.512   3.035 -0.3938 -0.0075  1.3214
   10MOL   H749 8327   4.629   2.335   3.055  0.7768 -1.9138 -2.4228
   10MOL   H750 8328   4.752   2.217   3.085 -2.8417 -0.6672  1.4043
   10MOL   H751 8329   4.822   2.378   3.284  0.7213  1.1115 -3.1018
   10MOL   H752 8330   4.664   2.441   3.269  0.3037  0.3126  2.0984
   10MOL   H753 8331   4.700   2.244   3.441 -0.1870  1.1386  0.4571
   10MOL   H754 8332   4.715   2.139   3.307  1.0263  0.5386 -0.4709
   10MOL   H755 8333   4.498   2.115   3.386  1.0070 -1.1464 -0.7195
   10MOL   H756 8334   4.485   2.196   3.229  0.8740 -0.1409  0.0433
   10MOL   H757 8335   4.467   2.291   3.378  0.4357  0.1048  0.4034
   10MOL   C758 8336   4.925   3.225   2.504 -0.1466 -0.2877  0.2413
   10MOL   C759 8337   4.934   3.289   2.649 -0.3289 -0.1486 -0.8338
   10MOL   C760 8338   4.892   3.441   2.650 -0.0962 -0.3423  0.6430
   10MOL   C761 8339   4.909   3.518   2.784 -0.2773  0.1885  0.2107
   10MOL   C762 8340   4.884   3.663   2.781  0.7843 -0.6616 -0.2063
   10MOL   C763 8341   4.971   3.747   2.696 -0.2107  0.0470  0.1832
   10MOL   C764 8342   4.913   3.887   2.672 -1.3591 -0.3297 -0.7997
   10MOL   C765 8343   4.990   3.974   2.569  0.4601  0.2152  0.5783
   10MOL   C766 8344   5.127   4.020   2.613 -0.2439 -0.2927 -0.1358
   10MOL   C767 8345   5.207   4.091   2.503  0.1846  0.1393  0.0762
   10MOL   C768 8346   5.349   4.124   2.546  0.4416 -0.8397 -1.1333
   10MOL   C769 8347   5.434   4.178   2.432 -0.3153 -0.2550  0.0441
   10MOL   C770 8348   5.582   4.170   2.466  0.2345 -0.1711  0.6017
   10MOL   C771 8349   5.676   4.215   2.352 -0.1035  0.0168  0.6091
   10MOL   H772 8350   4.998   3.270   2.437 -2.0563  4.2577  1.0795
   10MOL   H773 8351   4.826   3.248   2.465 -0.0964  1.3469  1.0642
   10MOL   H774 8352   5.038   3.291   2.681 -0.1933 -2.1526 -1.0936
   10MOL   H775 8353   4.960   3.496   2.586 -0.2569  0.2093  0.9395
   10MOL   H776 8354   4.789   3.451   2.616 -0.1584 -3.3387 -0.2111
   10MOL   H777 8355   4.845   3.475   2.860 -1.0369  1.2146  0.1466
   10MOL   H778 8356   5.003   3.493   2.834 -2.2987  1.2081  4.7188
   10MOL   H779 8357   4.882   3.716   2.876 -3.5653  1.4008 -1.3245
   10MOL   H780 8358   4.784   3.680   2.742  0.3802  1.6357  1.7194
   10MOL   H781 8359   4.994   3.707   2.597 -1.8103 -1.9546  0.5765
   10MOL   H782 8360   5.068   3.751   2.744 -0.0062 -0.8702 -0.1330
   10MOL   H783 8361   4.813   3.870   2.632 -1.3483  1.9529 -1.8552
   10MOL   H784 8362   4.908   3.942   2.766  1.8055  2.0247 -1.9248
   10MOL   H785 8363   4.939   4.066   2.545  0.1676  0.8711  3.5148
   10MOL   H786 8364   4.998   3.920   2.474 -0.3124  0.1628  0.5458
   10MOL   H787 8365   5.181   3.930   2.643  1.5361  0.6447 -0.4268
   10MOL   H788 8366   5.135   4.073   2.708  1.9808 -1.7363  0.5304
   10MOL   H789 8367   5.145   4.175   2.472  1.1482  1.8453  2.6174
   10MOL   H790 8368   5.221   4.025   2.417  1.3930  0.7411 -0.1968
   10MOL   H791 8369   5.357   4.184   2.637  2.0301 -1.2331 -0.9924
   10MOL   H792 8370   5.394   4.030   2.578  2.4615  0.1694 -0.8774
   10MOL   H793 8371   5.417   4.121   2.341 -1.4536  0.1402  0.0002
   10MOL   H794 8372   5.413   4.284   2.418  1.2602  0.5265  3.0211
   10MOL   H795 8373   5.604   4.234   2.551 -0.0807  0.0513  0.5121
   10MOL   H796 8374   5.611   4.067   2.488  1.7826  0.1397  0.0794
   10MOL   H797 8375   5.676   4.324   2.342 -0.5008 -0.2009 -2.3276
   10MOL   H798 8376   5.779   4.183   2.367  0.1800 -0.1505 -1.4786
   10MOL   H799 8377   5.655   4.157   2.261  0.5775 -1.2325  1.2426
   10MOL   C800 8378   4.852   3.217   2.755 -0.7955  0.5217  0.3450
   10MOL   C801 8379   4.701   3.213   2.725 -0.1646  0.1433  0.2126
   10MOL   C802 8380   4.632   3.117   2.820  0.2822  1.1259  0.4475
   10MOL   C803 8381   4.478   3.138   2.811 -0.4172  0.1159 -0.1086
   10MOL   C804 8382   4.412   3.085   2.675 -0.0235 -0.2908 -0.1878
   10MOL   C805 8383   4.271   3.033   2.676  0.8373  0.5918  0.1786
   10MOL   C806 8384   4.211   2.981   2.544  0.3267 -0.0256 -0.0408
   10MOL   C807 8385   4.072   2.920   2.579  0.3708 -0.2540 -0.1277
   10MOL   C808 8386   4.003   2.868   2.454  0.4894 -0.2029 -0.0301
   10MOL   C809 8387   3.867   2.798   2.484 -0.4735 -0.0584 -0.0404
   10MOL   C810 8388   3.888   2.646   2.520  0.3348  0.7610  0.3471
   10MOL   C811 8389   3.747   2.583   2.527 -0.1566  0.0807  0.0405
   10MOL   C812 8390   3.752   2.434   2.572 -0.4168  0.0460 -0.5002
   10MOL   C813 8391   3.833   2.401   2.694 -0.3455  0.4336  0.5150
   10MOL   H814 8392   4.881   3.257   2.852  0.8823  0.1578  0.0027
   10MOL   H815 8393   4.886   3.113   2.762 -0.1394  0.6947 -0.1587
   10MOL   H816 8394   4.682   3.183   2.622  0.0852  0.8699 -0.0504
   10MOL   H817 8395   4.660   3.131   2.924 -0.9351 -2.0492  1.2306
   10MOL   H818 8396   4.659   3.013   2.802 -2.3018  0.4215  0.4224
   10MOL   H819 8397   4.460   3.245   2.818 -0.1355  0.2314 -1.0790
   10MOL   H820 8398   4.433   3.099   2.902  1.1928  1.4958  1.3002
   10MOL   H821 8399   4.421   3.157   2.594 -2.2005  0.8771  0.5791
   10MOL   H822 8400   4.475   3.001   2.645  0.6792 -0.4787  1.7876
   10MOL   H823 8401   4.195   3.102   2.716 -2.3513 -2.5180 -0.2560
   10MOL   H824 8402   4.253   2.950   2.745 -0.9676 -0.0970 -1.0767
   10MOL   H825 8403   4.203   3.062   2.472  0.8150 -0.2257 -0.3156
   10MOL   H826 8404   4.284   2.910   2.505  2.0087  1.6507 -0.0117
   10MOL   H827 8405   4.097   2.836   2.642 -0.3956 -0.0731  0.4301
   10MOL   H828 8406   4.008   2.984   2.640 -0.7893 -2.4545  1.0323
   10MOL   H829 8407   3.980   2.948   2.383 -2.6860  0.2925  1.5001
   10MOL   H830 8408   4.061   2.793   2.400 -2.6515 -1.1310 -2.2426
   10MOL   H831 8409   3.789   2.805   2.409 -0.5577 -0.9296 -0.0354
   10MOL   H832 8410   3.827   2.853   2.569  1.1313  0.1012  0.6323
   10MOL   H833 8411   3.939   2.590   2.442 -1.9367 -0.9286  0.0503
   10MOL   H834 8412   3.953   2.632   2.606  0.2259  0.3662  0.3661
   10MOL   H835 8413   3.686   2.601   2.438  0.6628 -1.2212 -0.8076
   10MOL   H836 8414   3.690   2.636   2.602  0.5814  0.1588  0.5483
   10MOL   H837 8415   3.656   2.392   2.602  0.7945 -0.5162  2.8040
   10MOL   H838 8416   3.784   2.375   2.486  0.0803 -2.1201  1.1479
   10MOL   H839 8417   3.795   2.477   2.763 -0.2422  1.4367 -0.5215
   10MOL   H840 8418   3.818   2.297   2.723  1.9134  0.4066  1.7570
   10MOL   H841 8419   3.940   2.418   2.678 -0.8964  1.0246 -2.7835
   10MOL   H842 8420   4.672   3.317   2.737 -1.1798  0.1645 -2.1959
   11MOL     C1 8421   5.347   5.451   5.507  0.5576 -0.6822  0.6435
   11MOL     C2 8422   5.469   5.398   5.588  0.1489  0.4318  0.0744
   11MOL     C3 8423   5.423   5.343   5.722 -0.5563 -0.5161 -0.1572
   11MOL     C4 8424   5.526   5.357   5.833  0.8139 -0.4487  0.3963
   11MOL     C5 8425   5.473   5.307   5.965 -0.3789 -0.4006 -0.4335
   11MOL     C6 8426   5.587   5.314   6.064 -0.5145 -0.3770 -0.3560
   11MOL     C7 8427   5.564   5.287   6.213  0.4545  0.5158  0.2212
   11MOL     C8 8428   5.513   5.144   6.241 -0.0162  1.0289  0.1415
   11MOL     C9 8429   5.510   5.122   6.393 -0.2292  0.3364 -0.6474
   11MOL    C10 8430   5.483   4.972   6.422 -0.0419  0.7690  0.6460
   11MOL    C11 8431   5.474   4.944   6.578 -0.3674  0.2899 -0.3638
   11MOL    C12 8432   5.437   4.794   6.607 -0.5601  0.1542 -0.3888
   11MOL    C13 8433   5.378   4.777   6.745 -0.3921 -0.7141  0.1268
   11MOL    C14 8434   5.360   4.626   6.771  0.6111  0.2945  0.1581
   11MOL    H15 8435   5.386   5.494   5.414 -1.6827 -0.8083 -0.3810
   11MOL    H16 8436   5.295   5.528   5.564 -0.5262 -1.2605  0.4416
   11MOL    H17 8437   5.520   5.494   5.599 -3.5723  2.3408  1.5079
   11MOL    H18 8438   5.332   5.396   5.751 -0.0453  0.0211  0.4877
   11MOL    H19 8439   5.396   5.237   5.719  0.5483 -0.7470 -2.2109
   11MOL    H20 8440   5.550   5.463   5.835  0.1556 -0.2888 -0.0278
   11MOL    H21 8441   5.618   5.302   5.814  2.0400  1.4491  0.6875
   11MOL    H22 8442   5.439   5.203   5.964 -1.9999  0.0969  0.4223
   11MOL    H23 8443   5.396   5.370   6.010 -1.1126 -1.6406  0.1090
   11MOL    H24 8444   5.629   5.415   6.063 -0.2541 -0.4083  2.6225
   11MOL    H25 8445   5.669   5.249   6.034 -0.4391 -1.4611  2.0510
   11MOL    H26 8446   5.662   5.296   6.260 -0.4327 -0.3145  2.3295
   11MOL    H27 8447   5.495   5.361   6.255  1.4786  1.3182  0.5177
   11MOL    H28 8448   5.578   5.075   6.187  0.1693  1.2425  0.0928
   11MOL    H29 8449   5.410   5.127   6.210  0.5681 -0.1368 -1.2091
   11MOL    H30 8450   5.600   5.169   6.434  0.5233  0.3979 -2.3335
   11MOL    H31 8451   5.428   5.185   6.429 -0.7676 -1.4342  1.3051
   11MOL    H32 8452   5.395   4.935   6.368  1.8236 -0.4219 -1.6465
   11MOL    H33 8453   5.567   4.918   6.378  0.0433  3.3291 -2.5610
   11MOL    H34 8454   5.554   4.985   6.639  0.3138 -0.0788 -1.0183
   11MOL    H35 8455   5.397   5.012   6.616  1.2266  0.8761  1.9301
   11MOL    H36 8456   5.526   4.734   6.586 -0.3429  0.6368 -0.8516
   11MOL    H37 8457   5.359   4.767   6.536 -0.7247 -2.0778  0.6069
   11MOL    H38 8458   5.431   4.816   6.832  0.1117 -1.0022 -0.0452
   11MOL    H39 8459   5.282   4.827   6.751  0.9022  1.8350  0.0250
   11MOL    H40 8460   5.305   4.600   6.861  0.5355 -2.4247 -0.6442
   11MOL    H41 8461   5.310   4.578   6.687 -1.7100  2.8008  0.0388
   11MOL    H42 8462   5.461   4.588   6.788  0.4932 -0.0261  0.1387
   11MOL    H43 8463   5.284   5.366   5.482 -1.2529  0.5773  0.8537
   11MOL    C44 8464   5.553   5.289   5.508 -0.3187  0.4912 -0.0513
   11MOL    C45 8465   5.628   5.354   5.392 -0.4524  0.1702  0.4220
   11MOL    C46 8466   5.545   5.358   5.260 -0.1242 -0.1224  0.3870
   11MOL    C47 8467   5.580   5.483   5.171 -0.6702  0.1129  0.7009
   11MOL    C48 8468   5.491   5.471   5.049  0.4665 -0.0561 -0.0155
   11MOL    C49 8469   5.534   5.570   4.929 -0.0468  0.2277 -0.5310
   11MOL    C50 8470   5.447   5.561   4.807 -0.4546  0.5565  0.5162
   11MOL    C51 8471   5.479   5.662   4.698 -0.6323 -0.2276  0.1841
   11MOL    C52 8472   5.394   5.629   4.569 -0.2383 -0.4865  0.5351
   11MOL    C53 8473   5.432   5.729   4.451 -0.0831  0.3495 -0.1218
   11MOL    C54 8474   5.381   5.873   4.483 -0.0718 -0.5886 -0.0377
   11MOL    C55 8475   5.435   5.982   4.391  0.1217 -0.6695 -0.1865
   11MOL    C56 8476   5.414   6.131   4.430 -0.1915 -0.4556  0.0968
   11MOL    C57 8477   5.266   6.179   4.444 -0.2116  0.2338 -0.5610
   11MOL    H58 8478   5.622   5.250   5.583  1.2490  0.0636 -1.7145
   11MOL    H59 8479   5.489   5.211   5.467  1.5113 -0.4254 -1.1937
   11MOL    H60 8480   5.656   5.456   5.420  0.9315 -0.1472  0.2283
   11MOL    H61 8481   5.571   5.265   5.210 -1.0986  0.6398 -1.6053
   11MOL    H62 8482   5.438   5.351   5.279 -0.0836  2.0653  1.6065
   11MOL    H63 8483   5.687   5.479   5.153 -0.5432  2.5467  0.6664
   11MOL    H64 8484   5.558   5.578   5.220  0.9311  1.0517 -0.3784
   11MOL    H65 8485   5.384   5.485   5.063  0.6700  1.1739  0.3508
   11MOL    H66 8486   5.506   5.370   5.010  1.5918  0.0373  0.1670
   11MOL    H67 8487   5.535   5.673   4.964 -0.7561 -0.8232  2.6557
   11MOL    H68 8488   5.633   5.540   4.894  0.4056  1.7541 -0.6035
   11MOL    H69 8489   5.428   5.460   4.771 -0.5916 -0.3823  3.1138
   11MOL    H70 8490   5.351   5.597   4.842 -0.2341 -1.2668  3.1821
   11MOL    H71 8491   5.581   5.664   4.661 -0.9650 -1.3469 -0.8204
   11MOL    H72 8492   5.451   5.761   4.733 -0.5454 -0.6163  1.4033
   11MOL    H73 8493   5.429   5.530   4.537  1.3610  0.8761 -2.1006
   11MOL    H74 8494   5.288   5.630   4.593 -0.3762  1.0593 -0.1417
   11MOL    H75 8495   5.400   5.702   4.351  2.4567  0.2288 -0.9329
   11MOL    H76 8496   5.538   5.750   4.437 -0.3761  0.9257 -1.5268
   11MOL    H77 8497   5.403   5.899   4.587  0.3125 -0.1328 -0.2356
   11MOL    H78 8498   5.272   5.873   4.475 -0.1648  2.3133  0.7377
   11MOL    H79 8499   5.542   5.967   4.377  0.4675  1.9495 -0.5825
   11MOL    H80 8500   5.389   5.970   4.293  0.6491 -3.0124 -0.1736
   11MOL    H81 8501   5.459   6.198   4.356 -0.0468  0.4202  0.9609
   11MOL    H82 8502   5.465   6.155   4.523 -0.3368  0.9358 -0.1615
   11MOL    H83 8503   5.203   6.109   4.498  0.4185 -0.4684 -0.7256
   11MOL    H84 8504   5.222   6.194   4.346 -1.5654  1.3017  0.1892
   11MOL    H85 8505   5.268   6.278   4.490 -0.2060 -1.1915  2.6392
   11MOL    C86 8506   5.767   5.290   5.371  0.4904 -0.0387  0.2604
   11MOL    C87 8507   5.885   5.335   5.461  0.5154  0.3164  0.2334
   11MOL    C88 8508   5.946   5.476   5.419  0.7200  0.2306  0.0606
   11MOL    C89 8509   6.015   5.491   5.280  0.3821  0.0876 -0.0332
   11MOL    C90 8510   6.090   5.630   5.265  0.3130 -0.4769  0.0765
   11MOL    C91 8511   6.146   5.657   5.125  0.6202 -0.6833 -0.0245
   11MOL    C92 8512   6.191   5.803   5.105 -0.3875  0.4396  0.1568
   11MOL    C93 8513   6.267   5.837   4.978  0.4930  0.2153 -0.2066
   11MOL    C94 8514   6.353   5.976   4.997  0.5634  0.0100  0.4773
   11MOL    C95 8515   6.267   6.099   5.040  0.0627  0.5653  0.0450
   11MOL    C96 8516   6.155   6.143   4.936 -0.2378 -0.4922 -0.0141
   11MOL    C97 8517   6.127   6.293   4.939 -0.3495 -0.8323  0.0034
   11MOL    C98 8518   6.006   6.332   4.857  0.1647 -0.5244  0.3369
   11MOL    C99 8519   5.868   6.297   4.923  0.1979  0.4201 -0.3542
   11MOL   H100 8520   5.759   5.182   5.378 -0.5922  0.0745  0.8010
   11MOL   H101 8521   5.789   5.306   5.266  0.0114  0.2492  0.1997
   11MOL   H102 8522   5.846   5.356   5.560 -0.4029  0.2461 -0.1141
   11MOL   H103 8523   5.869   5.550   5.439  0.1479 -0.5372  0.7095
   11MOL   H104 8524   6.018   5.508   5.494 -1.5393 -1.7486  3.1619
   11MOL   H105 8525   6.077   5.407   5.250 -1.4919 -1.3141 -0.0599
   11MOL   H106 8526   5.936   5.502   5.206 -0.2086 -0.1922  0.5543
   11MOL   H107 8527   6.175   5.638   5.332  0.2531 -0.3197  0.1346
   11MOL   H108 8528   6.015   5.705   5.290  1.2867  1.1097 -1.7176
   11MOL   H109 8529   6.055   5.648   5.065  1.5331  0.2631 -1.5968
   11MOL   H110 8530   6.223   5.585   5.099  1.1245 -1.0051  2.2580
   11MOL   H111 8531   6.112   5.869   5.142 -0.0343  1.5741 -1.0958
   11MOL   H112 8532   6.258   5.828   5.187  0.6734 -0.1003 -0.5486
   11MOL   H113 8533   6.200   5.830   4.892 -1.8372 -1.2820  1.6679
   11MOL   H114 8534   6.339   5.756   4.966  1.1691  0.6726  0.7129
   11MOL   H115 8535   6.433   5.960   5.069  1.8608 -0.7774 -1.0853
   11MOL   H116 8536   6.401   6.002   4.902  1.9548 -2.3382  0.4945
   11MOL   H117 8537   6.339   6.175   5.069  0.2568  0.9682 -1.4426
   11MOL   H118 8538   6.228   6.071   5.138 -1.1374  1.1436 -0.2532
   11MOL   H119 8539   6.185   6.123   4.833 -2.6050 -0.2067 -0.7825
   11MOL   H120 8540   6.065   6.083   4.946 -1.0195  0.7294  0.4564
   11MOL   H121 8541   6.104   6.317   5.043  1.9811  0.5392  0.2231
   11MOL   H122 8542   6.215   6.346   4.906 -0.0411 -0.9294  0.6603
   11MOL   H123 8543   6.014   6.293   4.756 -0.1121 -0.9211  0.4691
   11MOL   H124 8544   6.017   6.440   4.848  0.9914 -0.7506 -1.5354
   11MOL   H125 8545   5.872   6.313   5.031 -0.8283 -0.7890 -0.1263
   11MOL   H126 8546   5.788   6.353   4.876  1.4750  0.9718 -1.9203
   11MOL   H127 8547   5.857   6.192   4.895 -0.0957  0.4427 -0.3254
   11MOL   C128 8548   5.986   5.223   5.489  0.1173  1.5035  0.1317
   11MOL   C129 8549   6.078   5.245   5.608 -0.2332 -0.3104  0.5160
   11MOL   C130 8550   6.015   5.180   5.730  0.3875 -0.0135 -0.3813
   11MOL   C131 8551   6.080   5.223   5.865  0.1033 -0.2153  0.1107
   11MOL   C132 8552   5.991   5.192   5.989 -0.4190 -0.5339 -0.3722
   11MOL   C133 8553   5.988   5.038   6.016 -0.0068 -0.0789 -0.0800
   11MOL   C134 8554   5.951   5.007   6.161  0.7275  0.2577 -0.1146
   11MOL   C135 8555   5.992   4.866   6.212 -0.4388 -0.1002 -0.0548
   11MOL   C136 8556   5.974   4.865   6.364 -0.0360  0.2798 -0.2247
   11MOL   C137 8557   6.004   4.726   6.420  0.1983  0.4533 -0.4376
   11MOL   C138 8558   6.013   4.735   6.575  0.0451  0.3008  0.3580
   11MOL   C139 8559   6.023   4.598   6.637 -0.2796 -0.3755  0.3373
   11MOL   C140 8560   6.013   4.595   6.796  0.3823  0.2575  0.1576
   11MOL   C141 8561   6.042   4.462   6.857 -0.0546 -0.5951  0.5485
   11MOL   H142 8562   5.933   5.129   5.506  2.0355 -0.1633 -2.5635
   11MOL   H143 8563   6.046   5.213   5.398 -1.1508  1.7372 -0.7432
   11MOL   H144 8564   6.081   5.349   5.639 -2.3191 -0.9616  2.9881
   11MOL   H145 8565   5.912   5.217   5.727  0.3134 -0.0231  1.3823
   11MOL   H146 8566   6.020   5.071   5.729  0.0597 -0.0499  1.2500
   11MOL   H147 8567   6.177   5.174   5.870 -1.2039 -2.8414  0.3997
   11MOL   H148 8568   6.108   5.329   5.860  0.1731 -0.2082  0.5613
   11MOL   H149 8569   6.035   5.247   6.072 -1.8442  2.8190 -1.7343
   11MOL   H150 8570   5.890   5.232   5.979  0.2358  0.8805 -1.4597
   11MOL   H151 8571   5.912   4.996   5.951  0.0090  1.0519 -0.8465
   11MOL   H152 8572   6.086   4.995   5.995 -0.2090 -0.0675 -1.0603
   11MOL   H153 8573   6.006   5.085   6.212  1.0222  0.1506 -0.2699
   11MOL   H154 8574   5.848   5.036   6.180  0.3221 -1.2299  0.0767
   11MOL   H155 8575   5.930   4.790   6.163 -1.0583  0.4327 -0.1098
   11MOL   H156 8576   6.090   4.832   6.181 -0.6633  0.5536 -1.5104
   11MOL   H157 8577   6.032   4.942   6.415  0.6086  1.7843 -3.1229
   11MOL   H158 8578   5.870   4.888   6.387 -0.4723 -1.4229 -0.4648
   11MOL   H159 8579   6.080   4.676   6.360  0.9821  0.7357  0.3083
   11MOL   H160 8580   5.925   4.656   6.393  0.9553 -0.2223 -0.8839
   11MOL   H161 8581   6.085   4.809   6.612 -0.6977  2.0654 -1.6188
   11MOL   H162 8582   5.918   4.777   6.608  0.0783  1.4785 -0.9800
   11MOL   H163 8583   5.942   4.541   6.592 -1.5306 -1.3173  3.5802
   11MOL   H164 8584   6.112   4.546   6.602 -0.6633  0.8670 -2.6228
   11MOL   H165 8585   6.088   4.667   6.829  1.9959 -1.4236  0.2550
   11MOL   H166 8586   5.916   4.636   6.821  0.2169  0.2556 -0.4630
   11MOL   H167 8587   5.954   4.397   6.861  1.6652 -3.0398 -0.2285
   11MOL   H168 8588   6.127   4.408   6.816  1.1582  1.5200  0.2600
   11MOL   H169 8589   6.060   4.473   6.964 -0.6678 -0.5678  0.6493
   11MOL   C170 8590   6.228   5.199   5.588 -0.5880 -0.1055 -0.2870
   11MOL   C171 8591   6.317   5.290   5.500 -0.4577  0.5545 -0.1147
   11MOL   C172 8592   6.346   5.428   5.556 -0.4338  0.2788  0.1494
   11MOL   C173 8593   6.420   5.531   5.466 -0.0648  0.1124  0.2146
   11MOL   C174 8594   6.410   5.674   5.519  0.0045 -1.2629  0.5101
   11MOL   C175 8595   6.486   5.769   5.432 -0.3788 -0.5241  0.3637
   11MOL   C176 8596   6.441   5.908   5.478  0.0625  0.0518  0.0225
   11MOL   C177 8597   6.527   6.023   5.425  0.0163  0.0510 -0.0369
   11MOL   C178 8598   6.459   6.159   5.434  0.2223  0.7691  0.3605
   11MOL   C179 8599   6.543   6.278   5.393 -0.5612  0.3804  0.6111
   11MOL   C180 8600   6.458   6.412   5.387  0.1370  0.5865 -0.4258
   11MOL   C181 8601   6.414   6.450   5.250  0.2264  0.0230  0.4352
   11MOL   C182 8602   6.341   6.591   5.246  0.4991  0.5470  0.0637
   11MOL   C183 8603   6.261   6.601   5.119  0.2913  0.0584  0.6009
   11MOL   H184 8604   6.219   5.098   5.547  0.1100 -1.6210  3.1225
   11MOL   H185 8605   6.271   5.185   5.687 -1.3051  0.9963  0.1988
   11MOL   H186 8606   6.256   5.311   5.413 -0.0007  1.2232 -0.2761
   11MOL   H187 8607   6.247   5.468   5.577 -0.8553 -0.5374 -0.2725
   11MOL   H188 8608   6.383   5.428   5.658 -4.0240 -1.8579  1.5642
   11MOL   H189 8609   6.528   5.512   5.466 -0.0495  0.1934  0.3196
   11MOL   H190 8610   6.404   5.530   5.359  2.7259  0.2964 -0.2433
   11MOL   H191 8611   6.303   5.689   5.531  0.4153  0.3227  2.4534
   11MOL   H192 8612   6.454   5.679   5.619  2.6829  1.4310 -0.7127
   11MOL   H193 8613   6.459   5.751   5.327  2.9844 -0.3244 -0.5903
   11MOL   H194 8614   6.594   5.751   5.437 -0.1140  0.2706 -1.7831
   11MOL   H195 8615   6.440   5.922   5.586  0.8815  1.0727 -0.0980
   11MOL   H196 8616   6.338   5.917   5.443 -0.0927 -0.0233  0.4673
   11MOL   H197 8617   6.583   6.006   5.334  0.5196  0.5873  0.1642
   11MOL   H198 8618   6.602   6.026   5.505  0.4297  3.4743 -0.4694
   11MOL   H199 8619   6.434   6.175   5.538  1.1879 -2.3501  1.1239
   11MOL   H200 8620   6.366   6.159   5.378 -0.3959 -0.8704  1.3665
   11MOL   H201 8621   6.591   6.252   5.298 -2.1857  0.7830 -0.3444
   11MOL   H202 8622   6.630   6.297   5.455  0.9571  2.8531 -2.1149
   11MOL   H203 8623   6.530   6.487   5.419  0.9302  0.1530 -1.1718
   11MOL   H204 8624   6.375   6.419   5.457  0.2089 -1.0862 -0.1475
   11MOL   H205 8625   6.496   6.451   5.178  0.9506 -1.7123  1.2061
   11MOL   H206 8626   6.352   6.371   5.207 -2.9614  2.8229 -0.3217
   11MOL   H207 8627   6.260   6.598   5.319 -2.0478 -0.3168 -2.6043
   11MOL   H208 8628   6.401   6.680   5.267 -0.5412  1.3687 -0.3445
   11MOL   H209 8629   6.172   6.538   5.115 -2.3832  3.7067 -0.3127
   11MOL   H210 8630   6.323   6.572   5.034  1.6412 -0.4605  1.7321
   11MOL   H211 8631   6.223   6.703   5.108 -2.9159 -1.0180  1.2287
   11MOL   C212 8632   6.442   5.197   5.469 -0.0797  0.3101 -0.4608
   11MOL   C213 8633   6.422   5.125   5.336 -0.3037 -0.7704  0.2024
   11MOL   C214 8634   6.461   5.229   5.227  0.1509  0.2103 -0.0628
   11MOL   C215 8635   6.440   5.201   5.075  0.5679 -0.1035  0.0332
   11MOL   C216 8636   6.301   5.234   5.023  0.7964  0.3263 -1.0498
   11MOL   C217 8637   6.293   5.246   4.866  0.4372  0.0508 -0.3388
   11MOL   C218 8638   6.337   5.385   4.818 -0.1514  0.4219  0.1712
   11MOL   C219 8639   6.347   5.378   4.663  0.0779  0.3516  1.0448
   11MOL   C220 8640   6.380   5.508   4.589 -0.0468 -0.8077  0.1723
   11MOL   C221 8641   6.295   5.628   4.631  0.0793 -0.3335 -0.9270
   11MOL   C222 8642   6.306   5.747   4.531  0.6805  0.3429 -0.4753
   11MOL   C223 8643   6.250   5.875   4.583 -0.3411  0.3167 -0.0626
   11MOL   C224 8644   6.259   5.992   4.476 -0.8619  0.6355  0.6140
   11MOL   C225 8645   6.402   6.017   4.433  0.6643 -0.9747  0.1138
   11MOL   H226 8646   6.472   5.140   5.557  2.0913  0.4905 -1.0587
   11MOL   H227 8647   6.524   5.268   5.463 -0.2935  0.5480 -0.5617
   11MOL   H228 8648   6.319   5.094   5.317  0.0597 -2.2432  0.6084
   11MOL   H229 8649   6.419   5.326   5.251 -0.8893 -0.2559  0.0388
   11MOL   H230 8650   6.568   5.241   5.244  0.1668  1.0676 -0.7722
   11MOL   H231 8651   6.468   5.100   5.047 -1.6346 -0.2883 -1.6248
   11MOL   H232 8652   6.506   5.267   5.018  0.8964 -0.1673  0.3342
   11MOL   H233 8653   6.258   5.322   5.070  1.1432  0.2277 -0.5454
   11MOL   H234 8654   6.244   5.146   5.054  0.6825  1.0896  0.9842
   11MOL   H235 8655   6.194   5.230   4.823  0.1876 -0.4772  0.4113
   11MOL   H236 8656   6.355   5.164   4.829  0.3608 -0.2853  0.2805
   11MOL   H237 8657   6.263   5.460   4.848 -0.5098 -0.4050  1.3652
   11MOL   H238 8658   6.427   5.431   4.858 -0.3705  1.4734 -0.5106
   11MOL   H239 8659   6.415   5.297   4.637 -1.1560 -0.0199 -1.0870
   11MOL   H240 8660   6.252   5.344   4.624  0.3554 -0.7236  1.2835
   11MOL   H241 8661   6.363   5.491   4.483  2.4935  1.2374 -0.6404
   11MOL   H242 8662   6.488   5.528   4.586 -0.0293 -0.9425 -0.1445
   11MOL   H243 8663   6.193   5.596   4.652 -0.7567  1.8918 -1.5029
   11MOL   H244 8664   6.332   5.669   4.725 -1.8893  3.1591 -1.6173
   11MOL   H245 8665   6.263   5.711   4.437  0.8555  2.5901 -1.4463
   11MOL   H246 8666   6.413   5.752   4.511  1.0227 -1.6488  0.7320
   11MOL   H247 8667   6.292   5.909   4.678 -1.8923  0.6498  0.5083
   11MOL   H248 8668   6.148   5.870   4.620 -1.0402 -2.8204 -2.2001
   11MOL   H249 8669   6.208   6.081   4.513 -0.5680  0.9855  0.1882
   11MOL   H250 8670   6.207   5.953   4.388  0.8310  1.8196 -0.9464
   11MOL   H251 8671   6.442   5.926   4.390 -0.7039 -0.9162 -1.3129
   11MOL   H252 8672   6.404   6.103   4.365  1.3420  0.1726  1.5445
   11MOL   H253 8673   6.466   6.034   4.520 -0.7919 -2.1952  1.4477
   11MOL   C254 8674   6.508   4.998   5.321 -1.1128  0.2134  0.8193
   11MOL   C255 8675   6.446   4.874   5.394 -0.2255 -0.8603 -0.0639
   11MOL   C256 8676   6.330   4.815   5.295  0.4667 -0.2544  0.0242
   11MOL   C257 8677   6.234   4.726   5.371  0.1496  0.4986  0.3141
   11MOL   C258 8678   6.132   4.669   5.273 -0.1008 -0.5750  0.0188
   11MOL   C259 8679   6.169   4.554   5.174 -0.4302 -0.7783  0.0074
   11MOL   C260 8680   6.053   4.507   5.078 -0.6024  0.1770 -0.2002
   11MOL   C261 8681   6.099   4.385   4.998  1.0220 -0.6708 -0.4667
   11MOL   C262 8682   6.013   4.341   4.888  0.6028 -0.5363 -0.3114
   11MOL   C263 8683   6.006   4.440   4.778 -0.0328 -0.7696  0.2506
   11MOL   C264 8684   5.957   4.394   4.647 -0.0024 -0.2955  0.4086
   11MOL   C265 8685   5.988   4.487   4.532  0.3072  0.2677 -0.2190
   11MOL   C266 8686   5.963   4.427   4.387  0.3770 -0.0155  0.6528
   11MOL   C267 8687   6.010   4.540   4.287 -0.5831 -0.1100  0.4486
   11MOL   H268 8688   6.604   5.016   5.369 -0.3786 -1.7229  0.1365
   11MOL   H269 8689   6.512   4.968   5.216  1.8062  0.4138  0.8376
   11MOL   H270 8690   6.397   4.905   5.486  0.5295  2.2668 -0.6387
   11MOL   H271 8691   6.382   4.756   5.219 -1.3092 -0.8109 -0.7862
   11MOL   H272 8692   6.270   4.896   5.252  0.3298  0.8552  2.2441
   11MOL   H273 8693   6.173   4.779   5.444 -1.2260  0.1908 -0.5926
   11MOL   H274 8694   6.286   4.638   5.408  0.7954  1.2464  1.1912
   11MOL   H275 8695   6.087   4.760   5.233  0.0752 -0.4295  0.1553
   11MOL   H276 8696   6.050   4.624   5.329  0.3694  0.1922  1.3269
   11MOL   H277 8697   6.204   4.474   5.239  0.8450  0.0576  0.3684
   11MOL   H278 8698   6.250   4.574   5.104 -1.3824  0.8284 -0.6502
   11MOL   H279 8699   5.964   4.468   5.127 -1.8011  0.9608 -1.6859
   11MOL   H280 8700   6.016   4.583   5.008 -0.1932  0.2067 -0.3856
   11MOL   H281 8701   6.092   4.297   5.062  3.5247  0.0565  0.8780
   11MOL   H282 8702   6.203   4.382   4.966  0.1449  2.5461 -3.8625
   11MOL   H283 8703   6.042   4.243   4.850 -1.1214 -0.8100 -0.9403
   11MOL   H284 8704   5.916   4.319   4.932 -0.0286  0.4399 -1.2092
   11MOL   H285 8705   6.102   4.487   4.755  1.0712 -2.8313  0.4902
   11MOL   H286 8706   5.938   4.522   4.801 -1.1655 -0.8793 -2.4801
   11MOL   H287 8707   5.854   4.361   4.656 -0.4054  1.2766  1.7514
   11MOL   H288 8708   6.007   4.297   4.643  0.4175 -0.1614  1.9784
   11MOL   H289 8709   5.923   4.575   4.539 -0.4177 -0.3129  0.5615
   11MOL   H290 8710   6.093   4.512   4.541  0.8883 -0.8983 -3.3989
   11MOL   H291 8711   6.036   4.347   4.376  0.8995  0.3627  1.2553
   11MOL   H292 8712   5.861   4.395   4.368  0.3595 -0.6912  1.8080
   11MOL   H293 8713   5.981   4.511   4.186 -0.3018  0.7763  0.1137
   11MOL   H294 8714   6.119   4.551   4.285 -0.5020 -0.8864  0.3016
   11MOL   H295 8715   5.977   4.640   4.312  0.0808 -0.3263  2.2931
   11MOL   C296 8716   6.550   4.760   5.425  0.8543 -0.0022  0.1902
   11MOL   C297 8717   6.666   4.793   5.528  0.0596 -0.1689 -0.3913
   11MOL   C298 8718   6.635   4.748   5.673  0.4323  0.1565  0.5833
   11MOL   C299 8719   6.550   4.838   5.758 -0.5029 -0.9623 -0.0377
   11MOL   C300 8720   6.538   4.780   5.905 -0.0190  0.4885 -0.3093
   11MOL   C301 8721   6.426   4.850   5.989  0.7516 -0.1490  0.1285
   11MOL   C302 8722   6.423   4.791   6.138  0.4353  0.6692  0.2179
   11MOL   C303 8723   6.363   4.646   6.130  0.4651 -0.0978 -0.0673
   11MOL   C304 8724   6.361   4.574   6.273  0.2098  0.2554  0.3831
   11MOL   C305 8725   6.328   4.425   6.250 -0.6421  0.1402  0.7317
   11MOL   C306 8726   6.345   4.341   6.380 -0.3595  0.2996 -0.0095
   11MOL   C307 8727   6.293   4.196   6.374 -0.0727 -1.0659 -0.7177
   11MOL   C308 8728   6.139   4.189   6.343 -0.4986  0.8303  0.6265
   11MOL   C309 8729   6.048   4.276   6.438  0.0740 -0.1352 -0.3033
   11MOL   H310 8730   6.597   4.739   5.329  1.4151 -0.0271  0.4664
   11MOL   H311 8731   6.491   4.673   5.453  0.5914  0.1128 -0.0076
   11MOL   H312 8732   6.680   4.899   5.549 -0.1225 -0.4415  1.1836
   11MOL   H313 8733   6.729   4.722   5.722  0.7189 -0.0388 -0.0609
   11MOL   H314 8734   6.581   4.654   5.661 -1.4007  1.4035 -1.2592
   11MOL   H315 8735   6.451   4.843   5.712 -0.6392  0.2439  0.3705
   11MOL   H316 8736   6.595   4.937   5.765 -0.3451 -1.0470  0.1356
   11MOL   H317 8737   6.507   4.675   5.909 -0.6661  0.7156  0.5341
   11MOL   H318 8738   6.629   4.795   5.964 -0.1088  0.8662 -0.2691
   11MOL   H319 8739   6.328   4.838   5.945 -0.2620  3.3666  1.2711
   11MOL   H320 8740   6.441   4.958   5.999 -0.2980 -0.0185  0.3904
   11MOL   H321 8741   6.520   4.795   6.187  1.2759 -0.6181 -1.2930
   11MOL   H322 8742   6.345   4.841   6.196  0.9564  0.2783  1.2570
   11MOL   H323 8743   6.424   4.582   6.066  0.6694  1.6458 -1.6749
   11MOL   H324 8744   6.270   4.650   6.074  0.3251  0.9676  0.2348
   11MOL   H325 8745   6.460   4.578   6.316  0.5046 -0.0655 -0.2574
   11MOL   H326 8746   6.287   4.619   6.339  0.5126 -2.6387  2.7612
   11MOL   H327 8747   6.399   4.381   6.180 -1.9208  0.6531 -0.9378
   11MOL   H328 8748   6.232   4.403   6.202 -0.4914 -0.8774  0.8726
   11MOL   H329 8749   6.298   4.394   6.463 -1.6353 -1.1417  0.1998
   11MOL   H330 8750   6.450   4.343   6.412 -0.3659  1.9843 -0.0351
   11MOL   H331 8751   6.310   4.151   6.472  2.8596  0.4193 -0.4707
   11MOL   H332 8752   6.357   4.130   6.316  4.2482  1.9002  0.3428
   11MOL   H333 8753   6.116   4.083   6.337 -1.1977  0.9397  1.2927
   11MOL   H334 8754   6.131   4.216   6.238  2.4080 -2.7591 -0.5955
   11MOL   H335 8755   6.061   4.251   6.543 -1.3572  2.1257  0.4555
   11MOL   H336 8756   6.074   4.382   6.439 -1.0499  0.2467  4.9331
   11MOL   H337 8757   5.940   4.264   6.431 -0.2130 -0.5728  3.6838
   11MOL   C338 8758   6.803   4.741   5.478 -0.9703  0.2894  0.5243
   11MOL   C339 8759   6.877   4.832   5.381 -0.2914 -0.0954  0.9690
   11MOL   C340 8760   6.911   4.966   5.445  0.1605 -0.3500  0.0657
   11MOL   C341 8761   6.964   5.077   5.358 -0.3761  0.4364  0.3961
   11MOL   C342 8762   6.952   5.206   5.431  0.0943  0.2309  0.0200
   11MOL   C343 8763   6.956   5.332   5.350  0.2024  0.6946 -0.0273
   11MOL   C344 8764   6.964   5.457   5.431 -0.4894  0.2473 -0.3687
   11MOL   C345 8765   6.988   5.582   5.345 -0.2085  0.4841 -0.2358
   11MOL   C346 8766   7.017   5.703   5.420 -0.4028  0.1117  0.0014
   11MOL   C347 8767   6.974   5.838   5.359 -0.1311 -0.1022  0.5102
   11MOL   C348 8768   7.088   5.951   5.366 -0.2180  0.0153 -0.1166
   11MOL   C349 8769   7.040   6.099   5.341  1.0173 -0.5582  0.9289
   11MOL   C350 8770   6.948   6.125   5.214  0.4445 -0.5706 -0.0771
   11MOL   C351 8771   6.908   6.265   5.177 -0.4523  0.0480  0.2284
   11MOL   H352 8772   6.876   4.714   5.553 -2.0408  1.3817  1.9856
   11MOL   H353 8773   6.780   4.650   5.423  1.3493  0.8963 -1.5225
   11MOL   H354 8774   6.811   4.856   5.298  0.2379 -0.3411  0.4693
   11MOL   H355 8775   6.842   5.009   5.518  1.1405  1.5144 -0.0782
   11MOL   H356 8776   6.999   4.950   5.508 -0.6581  2.1661  1.9427
   11MOL   H357 8777   6.895   5.086   5.274  0.4077  1.8233 -0.1096
   11MOL   H358 8778   7.066   5.070   5.321 -0.8407  0.3946 -0.8810
   11MOL   H359 8779   7.034   5.218   5.503  1.4655 -1.7454 -1.1536
   11MOL   H360 8780   6.862   5.210   5.493  0.8296  0.6579  1.0804
   11MOL   H361 8781   7.043   5.320   5.285 -0.9006 -1.0690 -1.2186
   11MOL   H362 8782   6.868   5.328   5.284 -0.9467  1.9988  1.3947
   11MOL   H363 8783   6.875   5.483   5.489  0.3309  1.2216  0.4781
   11MOL   H364 8784   7.049   5.449   5.499  0.4832  3.0166 -1.1771
   11MOL   H365 8785   7.068   5.575   5.272 -0.1700  0.3756 -0.1823
   11MOL   H366 8786   6.896   5.603   5.291 -0.3413 -0.7470 -0.5026
   11MOL   H367 8787   6.967   5.705   5.517 -2.0056 -2.3670 -0.7050
   11MOL   H368 8788   7.124   5.713   5.440  0.1658 -1.8193 -1.8846
   11MOL   H369 8789   6.953   5.824   5.253  0.3798  1.5559  0.1647
   11MOL   H370 8790   6.878   5.873   5.398 -0.2923  1.2649 -1.0239
   11MOL   H371 8791   7.157   5.929   5.285  2.0798 -1.8170  2.2422
   11MOL   H372 8792   7.140   5.949   5.462  0.1609  2.8396 -0.2264
   11MOL   H373 8793   7.120   6.172   5.329 -0.7285  1.1662 -0.7193
   11MOL   H374 8794   6.981   6.137   5.424 -0.8864 -1.3971 -0.0172
   11MOL   H375 8795   7.005   6.088   5.129  1.5992  2.3571 -0.6494
   11MOL   H376 8796   6.865   6.055   5.219  0.5360 -0.8594 -2.1142
   11MOL   H377 8797   6.868   6.268   5.075 -1.2333  1.8349  0.5664
   11MOL   H378 8798   6.831   6.304   5.243  0.6250  1.0564  0.8991
   11MOL   H379 8799   6.992   6.333   5.165 -0.6589  0.4282  0.9156
   11MOL   C380 8800   7.017   4.778   5.329 -0.4075  0.6705 -0.5005
   11MOL   C381 8801   7.019   4.634   5.268 -0.1358  0.0569 -0.2857
   11MOL   C382 8802   6.917   4.614   5.157  0.3760  0.5591  0.0019
   11MOL   C383 8803   6.915   4.724   5.051 -0.4848  0.4389  0.1396
   11MOL   C384 8804   6.811   4.717   4.941  0.5639  0.4844  0.2941
   11MOL   C385 8805   6.665   4.758   4.978 -0.0947 -0.4202 -0.0314
   11MOL   C386 8806   6.558   4.729   4.875  0.8780  0.0877 -0.5320
   11MOL   C387 8807   6.421   4.782   4.888  0.6111  0.2753  0.0618
   11MOL   C388 8808   6.329   4.746   4.770 -0.0159 -0.2936  0.2230
   11MOL   C389 8809   6.211   4.838   4.761  0.3148  0.7729 -0.2777
   11MOL   C390 8810   6.123   4.815   4.636 -0.8308  0.1991  0.1622
   11MOL   C391 8811   5.994   4.892   4.643  0.2613  0.1120 -0.0430
   11MOL   C392 8812   5.900   4.887   4.526  0.5310 -0.5979  0.6798
   11MOL   C393 8813   5.960   4.926   4.386  0.6894  0.7477  0.9736
   11MOL   H394 8814   7.086   4.787   5.413  1.3297  0.5012 -1.8760
   11MOL   H395 8815   7.045   4.842   5.246  0.1469  1.5562  0.3516
   11MOL   H396 8816   6.990   4.568   5.350  1.8284 -0.1298  0.2962
   11MOL   H397 8817   6.815   4.607   5.196 -1.1338 -1.1642 -3.9575
   11MOL   H398 8818   6.933   4.518   5.106 -0.7290 -0.8767  2.2883
   11MOL   H399 8819   7.011   4.730   5.000 -0.1516  4.2940  1.0413
   11MOL   H400 8820   6.886   4.818   5.099 -0.3847  0.0905  0.8887
   11MOL   H401 8821   6.805   4.621   4.890  3.7382  0.2056  0.3652
   11MOL   H402 8822   6.841   4.781   4.858 -0.2831 -1.2350 -1.3707
   11MOL   H403 8823   6.669   4.863   5.006 -1.5782 -0.4261  0.2120
   11MOL   H404 8824   6.639   4.706   5.070 -0.6576 -1.0942 -0.5734
   11MOL   H405 8825   6.598   4.762   4.779 -0.7528 -0.9125 -1.5717
   11MOL   H406 8826   6.546   4.622   4.861  0.9145  0.2289 -1.6440
   11MOL   H407 8827   6.374   4.757   4.983  0.8937 -1.6725 -0.3038
   11MOL   H408 8828   6.434   4.891   4.891 -1.3870  0.5321 -0.1876
   11MOL   H409 8829   6.382   4.751   4.675  1.2968  0.3522  0.9767
   11MOL   H410 8830   6.295   4.649   4.806  0.5592  0.1313  1.9768
   11MOL   H411 8831   6.250   4.939   4.753 -0.5222  1.6413  4.8900
   11MOL   H412 8832   6.145   4.831   4.847  1.4424 -0.7701  0.4663
   11MOL   H413 8833   6.188   4.853   4.557  1.0684  0.1139  1.6489
   11MOL   H414 8834   6.106   4.708   4.620  3.4689 -0.4300 -0.7162
   11MOL   H415 8835   6.010   4.994   4.679 -1.7584 -0.0254  1.3515
   11MOL   H416 8836   5.935   4.844   4.722  1.1879 -1.3732 -0.2259
   11MOL   H417 8837   5.862   4.785   4.521  0.2590 -0.4688  0.0347
   11MOL   H418 8838   5.811   4.945   4.552  0.6541 -0.1766  0.1780
   11MOL   H419 8839   5.984   5.031   4.371  0.2813  1.0999  2.6816
   11MOL   H420 8840   5.899   4.889   4.304  2.4023  1.4186 -0.6149
   11MOL   H421 8841   6.053   4.869   4.383  1.6751  2.3904 -2.8735
   11MOL   C422 8842   7.161   4.600   5.213 -0.1097  0.0923 -0.2184
   11MOL   C423 8843   7.280   4.587   5.311 -0.3112  0.2039  0.2217
   11MOL   C424 8844   7.270   4.494   5.434  0.2600 -0.4254  0.0404
   11MOL   C425 8845   7.373   4.508   5.553  0.1981  0.2973  0.4146
   11MOL   C426 8846   7.329   4.441   5.679  0.3376  0.0924  0.9499
   11MOL   C427 8847   7.296   4.291   5.670  0.0456 -1.3820 -0.5499
   11MOL   C428 8848   7.264   4.214   5.800 -1.1882  0.1084 -0.7560
   11MOL   C429 8849   7.224   4.069   5.770  0.5078 -0.3690 -0.5581
   11MOL   C430 8850   7.172   3.995   5.891  0.0145  0.1515 -0.3444
   11MOL   C431 8851   7.090   3.871   5.855  0.1422  0.8029 -0.3266
   11MOL   C432 8852   7.037   3.795   5.972 -0.2362  0.1298 -0.5429
   11MOL   C433 8853   6.976   3.667   5.940 -0.0164  0.6313  0.6281
   11MOL   C434 8854   6.930   3.585   6.059  0.6680 -0.5217  0.3782
   11MOL   C435 8855   6.807   3.491   6.033 -0.0520  0.1795  0.2129
   11MOL   H436 8856   7.180   4.664   5.127 -1.2944  1.0413  0.2059
   11MOL   H437 8857   7.149   4.503   5.163  2.6461  0.8125 -2.3662
   11MOL   H438 8858   7.292   4.687   5.353  2.2300  0.0189 -0.0004
   11MOL   H439 8859   7.286   4.391   5.402 -0.2981 -0.9000  1.2353
   11MOL   H440 8860   7.173   4.500   5.485  1.4861 -1.6449  2.6232
   11MOL   H441 8861   7.462   4.451   5.527 -3.2074 -4.5980 -1.3057
   11MOL   H442 8862   7.395   4.614   5.562 -0.5901  0.3809  1.4496
   11MOL   H443 8863   7.243   4.498   5.713  1.9388  1.6237  2.5670
   11MOL   H444 8864   7.409   4.454   5.752  0.9982 -0.4621  0.3375
   11MOL   H445 8865   7.377   4.244   5.614  1.9409 -1.1761  1.9320
   11MOL   H446 8866   7.209   4.286   5.604 -0.2001 -1.2120 -0.2416
   11MOL   H447 8867   7.356   4.207   5.859 -1.9064  1.5120  0.5664
   11MOL   H448 8868   7.186   4.258   5.860 -1.3042 -1.2498  0.1004
   11MOL   H449 8869   7.133   4.087   5.712  1.0225  0.3132 -1.1600
   11MOL   H450 8870   7.292   4.025   5.697  1.7854 -0.9969  0.9927
   11MOL   H451 8871   7.262   3.983   5.951 -0.0821  0.4686 -0.1371
   11MOL   H452 8872   7.108   4.058   5.952 -0.8661 -2.3818  1.4116
   11MOL   H453 8873   7.000   3.893   5.797 -0.2190 -0.5814 -0.3086
   11MOL   H454 8874   7.149   3.810   5.787  1.2779  1.5715 -0.0428
   11MOL   H455 8875   7.108   3.787   6.054 -2.2122 -0.5780  1.1468
   11MOL   H456 8876   6.953   3.846   6.020 -1.3981 -1.5352 -0.7447
   11MOL   H457 8877   7.045   3.605   5.883  0.8532  0.6248  1.6636
   11MOL   H458 8878   6.893   3.693   5.873 -0.5047 -0.1166  0.9314
   11MOL   H459 8879   7.010   3.519   6.092 -0.4380 -2.6390 -1.0597
   11MOL   H460 8880   6.889   3.659   6.128  0.3960 -0.5656  0.2618
   11MOL   H461 8881   6.779   3.445   6.128  1.1789  2.0972  1.5241
   11MOL   H462 8882   6.842   3.412   5.965 -0.3749 -0.4863  0.8104
   11MOL   H463 8883   6.715   3.532   5.994  0.1852  1.5379  1.0584
   11MOL   C464 8884   7.408   4.540   5.239 -0.6979 -0.3905  0.2595
   11MOL   C465 8885   7.472   4.647   5.150  0.0635  0.0697 -0.1603
   11MOL   C466 8886   7.532   4.772   5.222  0.1203  0.4646  0.6080
   11MOL   C467 8887   7.654   4.745   5.315 -0.0706  0.2926  0.0091
   11MOL   C468 8888   0.018   4.873   5.384  0.1015 -0.4464  0.8038
   11MOL   C469 8889   0.169   4.849   5.421  0.5781 -0.1501 -0.4738
   11MOL   C470 8890   0.185   4.740   5.533  0.9356 -0.4974  0.7475
   11MOL   C471 8891   0.326   4.743   5.599  0.5033  0.4197 -1.0990
   11MOL   C472 8892   0.357   4.605   5.655  0.2671 -0.3732  0.3294
   11MOL   C473 8893   0.498   4.622   5.715 -0.2290  0.3594 -0.4672
   11MOL   C474 8894   0.573   4.488   5.742 -0.0749 -0.7472  0.5468
   11MOL   C475 8895   0.704   4.510   5.818  0.6337 -0.0564  0.0343
   11MOL   C476 8896   0.803   4.594   5.745  0.3086  0.1321 -0.4801
   11MOL   C477 8897   0.917   4.631   5.840 -0.4361 -0.2567  0.1367
   11MOL   H478 8898   7.369   4.455   5.183 -0.1573  0.4687 -1.4580
   11MOL   H479 8899   7.474   4.483   5.305 -0.4837 -0.1684  0.2352
   11MOL   H480 8900   7.385   4.681   5.094  1.6242 -0.0440 -2.7385
   11MOL   H481 8901   7.558   4.846   5.147 -1.9254  0.3499 -0.2206
   11MOL   H482 8902   7.452   4.820   5.277 -0.9624 -1.0492  0.3828
   11MOL   H483 8903   0.037   4.692   5.259  0.6497  1.9572 -0.5964
   11MOL   H484 8904   7.611   4.685   5.396 -1.3417  0.4022 -0.5717
   11MOL   H485 8905   7.659   4.911   5.470 -0.0324  0.3089  0.3873
   11MOL   H486 8906   0.022   4.953   5.310 -0.6844 -1.7138 -0.6371
   11MOL   H487 8907   0.227   4.834   5.330 -1.0299  1.3268 -1.7626
   11MOL   H488 8908   0.197   4.942   5.469  0.0917  0.6229 -1.6760
   11MOL   H489 8909   0.111   4.751   5.612 -0.9824 -1.9400 -0.7661
   11MOL   H490 8910   0.164   4.639   5.497 -0.0365 -0.4833  1.2486
   11MOL   H491 8911   0.400   4.761   5.521  0.5700 -0.3961 -1.2358
   11MOL   H492 8912   0.315   4.815   5.679  0.6756 -1.7668  0.9374
   11MOL   H493 8913   0.288   4.577   5.735 -1.1361  3.7597  0.7282
   11MOL   H494 8914   0.359   4.536   5.571 -0.1213  2.4388 -2.0942
   11MOL   H495 8915   0.560   4.679   5.646  0.6906 -0.0261  0.0414
   11MOL   H496 8916   0.488   4.668   5.813 -2.1731 -0.3470 -0.3005
   11MOL   H497 8917   0.500   4.422   5.789 -1.9282  1.4074  0.7533
   11MOL   H498 8918   0.576   4.433   5.647 -1.6907  0.7870 -0.4257
   11MOL   H499 8919   0.743   4.417   5.858  0.4613 -1.1444 -2.2729
   11MOL   H500 8920   0.687   4.568   5.909  0.8402  0.9645 -0.5595
   11MOL   H501 8921   0.854   4.537   5.667  3.6060  1.7010  0.4251
   11MOL   H502 8922   0.752   4.687   5.717 -0.9940  0.3128  2.2802
   11MOL   H503 8923   0.975   4.551   5.887  0.2267 -0.2627 -0.6854
   11MOL   H504 8924   0.983   4.699   5.786 -0.8420 -0.3513 -0.4801
   11MOL   H505 8925   0.877   4.698   5.916  1.5297  2.0385 -0.8040
   11MOL   C506 8926   7.571   4.587   5.048  0.2538  0.2140  0.5309
   11MOL   C507 8927   7.515   4.557   4.907  0.0561 -0.4570 -0.1434
   11MOL   C508 8928   7.614   4.515   4.794 -0.2865 -0.1959  0.1161
   11MOL   C509 8929   7.689   4.382   4.833 -0.2956 -0.0577 -0.1661
   11MOL   C510 8930   0.108   4.358   4.727 -0.0512  0.3043 -0.6851
   11MOL   C511 8931   0.178   4.224   4.764 -0.5144 -0.2611 -0.2944
   11MOL   C512 8932   0.269   4.224   4.889 -0.2518  0.3712  0.2885
   11MOL   C513 8933   0.361   4.098   4.898 -0.0358  0.6629 -0.4250
   11MOL   C514 8934   0.285   3.970   4.930  0.3552  0.1195  0.0132
   11MOL   C515 8935   0.280   3.951   5.082  0.2996 -0.0937  0.0091
   11MOL   C516 8936   0.187   3.838   5.126  0.5090  0.1902  0.4796
   11MOL   C517 8937   0.238   3.689   5.091  0.3145 -0.1288 -0.0487
   11MOL   C518 8938   0.119   3.581   5.093 -0.2054 -0.2915 -0.0435
   11MOL   C519 8939   0.059   3.564   5.235 -0.1891  0.1622  0.2089
   11MOL   H520 8940   7.620   4.502   5.095  0.2535 -0.8630 -1.3933
   11MOL   H521 8941   7.646   4.663   5.026  1.9391 -1.2266  1.1775
   11MOL   H522 8942   7.468   4.651   4.875  1.8847  0.0400 -1.4787
   11MOL   H523 8943   7.564   4.501   4.698 -0.6457 -0.9885  0.4138
   11MOL   H524 8944   7.688   4.592   4.774 -0.4144 -0.3311 -0.8762
   11MOL   H525 8945   0.039   4.388   4.932  1.8479 -0.0272 -1.1258
   11MOL   H526 8946   7.618   4.299   4.837  1.5248 -1.6213  0.3412
   11MOL   H527 8947   0.181   4.440   4.725 -0.5097  0.8071  1.5133
   11MOL   H528 8948   0.051   4.355   4.635 -1.4051  0.1535  0.1441
   11MOL   H529 8949   0.237   4.190   4.679  1.7352 -0.7565  1.4295
   11MOL   H530 8950   0.106   4.143   4.773 -0.1994 -0.2485  2.6937
   11MOL   H531 8951   0.340   4.306   4.875  0.4812 -0.6380 -2.0971
   11MOL   H532 8952   0.216   4.244   4.983  1.5197  0.7993  1.2245
   11MOL   H533 8953   0.435   4.124   4.974  1.4844  0.9354 -1.9431
   11MOL   H534 8954   0.426   4.098   4.810  0.8256 -1.9399  0.1559
   11MOL   H535 8955   0.320   3.883   4.874  0.2000  0.1095 -0.0692
   11MOL   H536 8956   0.184   3.977   4.890  0.5270  0.1994 -0.4098
   11MOL   H537 8957   0.382   3.929   5.114  0.7812  2.0865  0.0084
   11MOL   H538 8958   0.260   4.052   5.117  1.0288  1.4561 -3.7894
   11MOL   H539 8959   0.188   3.842   5.235 -0.2458 -2.3913  0.6156
   11MOL   H540 8960   0.081   3.849   5.101  0.7272 -0.3253 -0.6997
   11MOL   H541 8961   0.313   3.648   5.158  0.1600 -0.4310 -0.0570
   11MOL   H542 8962   0.286   3.679   4.994 -0.4385 -1.7291 -0.2710
   11MOL   H543 8963   0.144   3.481   5.056  1.8769  0.4825 -0.8275
   11MOL   H544 8964   0.038   3.611   5.027  0.8931  0.6284 -0.9971
   11MOL   H545 8965   7.680   3.487   5.219 -0.2335  0.0390  1.0048
   11MOL   H546 8966   0.130   3.534   5.312 -0.8393 -1.6097  0.1441
   11MOL   H547 8967   0.009   3.651   5.277 -0.8931 -0.2953  0.3376
   11MOL   C548 8968   7.389   4.463   4.915  0.4589 -0.6106 -0.6453
   11MOL   C549 8969   7.309   4.431   4.790 -0.7125 -0.1833  0.4025
   11MOL   C550 8970   7.203   4.315   4.819 -0.0816  0.2521 -0.0944
   11MOL   C551 8971   7.077   4.348   4.899  0.4537 -0.3995 -0.5109
   11MOL   C552 8972   6.962   4.250   4.866  0.1225 -0.7143  0.1938
   11MOL   C553 8973   6.968   4.120   4.940 -0.2048 -0.1526 -0.0577
   11MOL   C554 8974   6.951   4.117   5.091 -0.4233 -0.1892 -0.9912
   11MOL   C555 8975   6.940   3.976   5.146 -0.8138 -0.3787  0.2449
   11MOL   C556 8976   6.884   3.971   5.287  0.1659  0.5052 -0.1615
   11MOL   C557 8977   6.862   3.825   5.330 -0.0649 -0.1725 -0.3464
   11MOL   C558 8978   6.992   3.739   5.341  0.2473 -0.5728 -0.7105
   11MOL   C559 8979   6.974   3.620   5.434  0.1760  0.5818 -0.4792
   11MOL   C560 8980   7.099   3.527   5.418  0.3640 -0.1756 -0.0376
   11MOL   C561 8981   7.077   3.399   5.506 -0.0202  0.2225  0.6091
   11MOL   H562 8982   7.407   4.369   4.967 -0.1162 -1.1941 -1.4966
   11MOL   H563 8983   7.312   4.513   4.974  0.6347  1.0603 -1.7824
   11MOL   H564 8984   7.370   4.402   4.705  0.2671  0.7037  0.7973
   11MOL   H565 8985   7.168   4.279   4.722  2.4913  1.4754 -1.5046
   11MOL   H566 8986   7.258   4.231   4.860  2.5767  1.4061 -1.2125
   11MOL   H567 8987   7.034   4.445   4.870  0.3062 -0.1434  0.5525
   11MOL   H568 8988   7.092   4.354   5.006 -0.3858  0.6312 -0.4387
   11MOL   H569 8989   6.862   4.289   4.878 -0.4335 -2.2406  0.6793
   11MOL   H570 8990   6.971   4.235   4.759 -0.2176  1.7462 -0.2053
   11MOL   H571 8991   7.055   4.057   4.919 -0.1140 -0.2396  0.5678
   11MOL   H572 8992   6.881   4.067   4.902  0.2557 -0.5516 -0.5800
   11MOL   H573 8993   7.033   4.175   5.132 -0.5809  1.0986 -2.4741
   11MOL   H574 8994   6.867   4.176   5.128  1.0606 -0.0270  2.2687
   11MOL   H575 8995   7.037   3.930   5.126 -1.2876 -2.0169  1.5965
   11MOL   H576 8996   6.879   3.916   5.078 -1.7710  2.6603 -1.6595
   11MOL   H577 8997   6.791   4.028   5.282  0.6364  1.1803 -1.3441
   11MOL   H578 8998   6.944   4.021   5.362 -0.6430  0.4207  0.5575
   11MOL   H579 8999   6.800   3.821   5.420 -2.1914 -1.2415 -1.8197
   11MOL   H580 9000   6.793   3.775   5.262  1.1508 -0.7899 -1.1603
   11MOL   H581 9001   7.069   3.802   5.386  0.7862 -0.0547 -2.3423
   11MOL   H582 9002   7.031   3.714   5.242  1.2674 -0.2787 -0.3867
   11MOL   H583 9003   6.955   3.652   5.536  1.7964 -2.6296  0.8953
   11MOL   H584 9004   6.881   3.575   5.398  1.0778 -2.2165  0.5362
   11MOL   H585 9005   7.101   3.503   5.311  2.5770  0.9174 -0.2872
   11MOL   H586 9006   7.194   3.575   5.442  1.7373  0.0263 -5.2359
   11MOL   H587 9007   7.143   3.313   5.495  0.5846  0.5261  1.8101
   11MOL   H588 9008   7.075   3.414   5.614 -0.0548  2.2923  0.3436
   11MOL   H589 9009   6.980   3.353   5.487 -0.0929 -0.1459  1.8300
   11MOL   C590 9010   7.244   4.555   4.728  0.1138 -0.5617  0.2113
   11MOL   C591 9011   7.146   4.529   4.609 -0.0741 -0.7519 -0.6069
   11MOL   C592 9012   7.082   4.661   4.568 -0.0909  0.2185 -0.2992
   11MOL   C593 9013   7.177   4.756   4.488 -0.2677 -0.9593 -0.1550
   11MOL   C594 9014   7.116   4.894   4.468 -0.1613 -0.7375  0.1940
   11MOL   C595 9015   7.212   4.989   4.405 -1.0037  0.6571 -0.1682
   11MOL   C596 9016   7.162   5.128   4.387 -0.2737 -0.1423 -0.4979
   11MOL   C597 9017   7.273   5.227   4.351 -0.2989 -0.0177 -0.8948
   11MOL   C598 9018   7.214   5.363   4.341  0.0857 -0.4781 -0.7308
   11MOL   C599 9019   7.320   5.468   4.313  0.8422  0.4194  0.5714
   11MOL   C600 9020   7.278   5.613   4.358  0.2328  1.2543 -0.3182
   11MOL   C601 9021   7.391   5.717   4.339 -0.2885 -0.7199 -0.1448
   11MOL   C602 9022   7.347   5.848   4.406  0.2494  0.9488  0.5580
   11MOL   C603 9023   7.449   5.961   4.378  0.7277 -0.5473  0.0941
   11MOL   H604 9024   7.320   4.625   4.693  1.6274 -1.4523  1.6363
   11MOL   H605 9025   7.183   4.609   4.800  1.1631  0.7453  0.1378
   11MOL   H606 9026   7.057   4.476   4.641 -1.9668  2.6390  0.0090
   11MOL   H607 9027   7.046   4.708   4.660  0.7706  3.6591 -1.6389
   11MOL   H608 9028   6.984   4.648   4.522  0.5545  0.6935 -1.8588
   11MOL   H609 9029   7.211   4.719   4.391  0.3502 -1.8350  0.3824
   11MOL   H610 9030   7.269   4.779   4.542 -0.1042  0.3429 -0.9840
   11MOL   H611 9031   7.064   4.929   4.557  2.9243  2.6276  0.7773
   11MOL   H612 9032   7.038   4.902   4.392  0.8200  1.2736 -0.6604
   11MOL   H613 9033   7.248   4.956   4.308  0.7745  0.9205  0.3989
   11MOL   H614 9034   7.305   5.000   4.461 -0.3391 -0.3949 -1.0489
   11MOL   H615 9035   7.082   5.129   4.314  1.1122 -0.7212 -2.0579
   11MOL   H616 9036   7.121   5.148   4.486  0.0547 -0.4060 -0.3081
   11MOL   H617 9037   7.360   5.231   4.416 -0.1611 -0.1590 -1.0731
   11MOL   H618 9038   7.311   5.207   4.251 -0.3621  0.7036 -1.0689
   11MOL   H619 9039   7.133   5.361   4.268  0.7958  0.0900 -1.5286
   11MOL   H620 9040   7.166   5.389   4.436  1.1102  3.1584 -1.1370
   11MOL   H621 9041   7.410   5.445   4.370  2.4361 -0.4844 -2.2039
   11MOL   H622 9042   7.358   5.474   4.211 -1.5694  2.5158 -0.2417
   11MOL   H623 9043   7.258   5.601   4.465  0.3075  1.9459 -0.2249
   11MOL   H624 9044   7.181   5.645   4.318  0.6153  0.3500 -2.0206
   11MOL   H625 9045   7.407   5.734   4.233  0.2184  0.4071  0.1112
   11MOL   H626 9046   7.487   5.676   4.371  0.3251  1.2958  0.6832
   11MOL   H627 9047   7.252   5.882   4.364  0.0185  0.8923  1.0296
   11MOL   H628 9048   7.331   5.831   4.512 -1.4437 -2.4065 -0.1699
   11MOL   H629 9049   7.409   6.058   4.405 -0.0276 -1.1445  1.1383
   11MOL   H630 9050   7.499   5.955   4.281  2.0453 -0.4345  0.7592
   11MOL   H631 9051   7.531   5.945   4.448  1.0051  1.9149  0.3737
   11MOL   C632 9052   7.209   4.449   4.485 -0.2839  0.3584 -0.3918
   11MOL   C633 9053   7.104   4.399   4.380 -0.1420  0.3507 -0.0723
   11MOL   C634 9054   7.180   4.354   4.248 -0.0837 -0.9897 -0.8381
   11MOL   C635 9055   7.239   4.481   4.175 -0.1908  0.1413  0.0649
   11MOL   C636 9056   7.315   4.448   4.048  0.4134 -0.1216  0.8541
   11MOL   C637 9057   7.370   4.568   3.969 -0.0991 -0.1863  0.0017
   11MOL   C638 9058   7.392   4.534   3.827  0.4599 -0.2883 -0.1701
   11MOL   C639 9059   7.493   4.624   3.757  0.5853 -0.2516  0.5755
   11MOL   C640 9060   7.501   4.570   3.613 -0.1545 -0.0600 -0.1476
   11MOL   C641 9061   7.578   4.668   3.528  0.1392  0.1404 -0.1026
   11MOL   C642 9062   7.593   4.622   3.376 -0.1320 -0.5020  1.2761
   11MOL   C643 9063   7.689   4.713   3.290  0.7898 -0.2805 -0.1807
   11MOL   C644 9064   0.035   4.645   3.162  0.0787 -0.0403 -0.1806
   11MOL   C645 9065   0.119   4.520   3.167 -0.0096  1.0504 -0.0971
   11MOL   H646 9066   7.250   4.356   4.522  0.1451  0.0633 -1.5860
   11MOL   H647 9067   7.303   4.495   4.451  0.6943  1.0164  3.0445
   11MOL   H648 9068   7.045   4.487   4.355 -1.0298 -0.6545 -1.6177
   11MOL   H649 9069   7.260   4.284   4.274  1.4595  1.0368 -0.0068
   11MOL   H650 9070   7.111   4.306   4.178 -0.0540  0.1601 -1.6685
   11MOL   H651 9071   7.306   4.542   4.235 -0.1571 -1.1949  1.4091
   11MOL   H652 9072   7.159   4.547   4.141 -0.2062 -0.3523 -0.8780
   11MOL   H653 9073   7.243   4.395   3.987  0.5904 -2.3528  2.5249
   11MOL   H654 9074   7.400   4.382   4.067 -0.7262 -1.8262  0.0884
   11MOL   H655 9075   7.303   4.653   3.986 -0.1401 -0.3934  0.9024
   11MOL   H656 9076   7.461   4.599   4.020  0.0842  0.1580 -0.5356
   11MOL   H657 9077   7.416   4.428   3.817  0.1975 -0.6359  2.5964
   11MOL   H658 9078   7.295   4.542   3.779 -0.0920 -1.9693  0.6303
   11MOL   H659 9079   7.591   4.645   3.799 -0.0081  2.4718  0.6756
   11MOL   H660 9080   7.441   4.720   3.757  1.0904  0.0316  1.6299
   11MOL   H661 9081   7.404   4.541   3.573 -0.8893  1.0114  0.8392
   11MOL   H662 9082   7.539   4.468   3.606 -2.4956 -0.9971  0.5688
   11MOL   H663 9083   7.528   4.765   3.525  0.9627  0.6009  0.9335
   11MOL   H664 9084   7.677   4.688   3.570  1.4858 -2.7478 -1.7477
   11MOL   H665 9085   7.612   4.516   3.386  0.8109 -0.4805 -0.2058
   11MOL   H666 9086   7.498   4.639   3.324  0.7243 -0.8259 -0.4250
   11MOL   H667 9087   0.083   4.734   3.348  0.2520  1.7960 -0.0465
   11MOL   H668 9088   7.647   4.811   3.268  0.4384 -0.9017 -2.3468
   11MOL   H669 9089   0.087   4.709   3.090 -0.4079  0.5055 -0.0439
   11MOL   H670 9090   7.644   4.624   3.099  0.4020 -1.3377 -0.2072
   11MOL   H671 9091   0.146   4.486   3.067 -1.1074 -3.3805  0.9931
   11MOL   H672 9092   0.207   4.530   3.231  0.3963  0.1559 -0.5103
   11MOL   H673 9093   0.058   4.439   3.206  1.1662 -0.0466 -0.4994
   11MOL   C674 9094   7.011   4.284   4.437 -0.1656  0.2004  0.3817
   11MOL   C675 9095   6.863   4.297   4.391  0.0863 -0.5552  0.3129
   11MOL   C676 9096   6.812   4.170   4.328  0.0883 -0.7576  0.0401
   11MOL   C677 9097   6.804   4.044   4.417 -0.2499 -0.1225 -0.8757
   11MOL   C678 9098   6.696   3.941   4.392 -0.0077  1.2628 -0.0445
   11MOL   C679 9099   6.712   3.803   4.454 -0.3965  0.1041 -0.3126
   11MOL   C680 9100   6.603   3.698   4.428  1.0768 -0.2376 -0.1497
   11MOL   C681 9101   6.643   3.568   4.489  0.3071 -0.0620 -0.0363
   11MOL   C682 9102   6.547   3.443   4.486 -0.3362 -0.4678 -0.0954
   11MOL   C683 9103   6.604   3.337   4.584 -0.1863 -0.1221 -0.1238
   11MOL   C684 9104   6.505   3.216   4.601  0.3640 -0.3095 -0.1597
   11MOL   C685 9105   6.538   3.130   4.722  0.4206 -0.1897 -0.4203
   11MOL   C686 9106   6.438   3.029   4.769 -0.5391  0.0658  0.7510
   11MOL   C687 9107   6.417   2.906   4.677 -1.2401  0.1209  0.2124
   11MOL   H688 9108   7.017   4.286   4.546 -0.3155 -0.4016  0.4017
   11MOL   H689 9109   7.046   4.184   4.411 -1.2940 -0.0148 -0.3588
   11MOL   H690 9110   6.852   4.373   4.314 -1.6886  0.4012  1.4936
   11MOL   H691 9111   6.713   4.192   4.287  0.7420  1.0075 -0.6202
   11MOL   H692 9112   6.870   4.138   4.242  0.1868 -0.1110 -0.1362
   11MOL   H693 9113   6.902   3.997   4.422 -0.6622 -1.1410 -2.0493
   11MOL   H694 9114   6.794   4.075   4.521  0.7692  0.7035 -1.0189
   11MOL   H695 9115   6.598   3.987   4.407 -2.3768 -3.6403  0.5467
   11MOL   H696 9116   6.695   3.918   4.286 -0.0256 -0.5878  0.3508
   11MOL   H697 9117   6.807   3.765   4.417  0.5341 -1.9256  3.8818
   11MOL   H698 9118   6.718   3.816   4.562 -1.8802 -1.6921  0.0002
   11MOL   H699 9119   6.507   3.735   4.465  1.4183  1.0381 -0.5144
   11MOL   H700 9120   6.572   3.689   4.324  0.4797 -0.1429  0.0147
   11MOL   H701 9121   6.741   3.540   4.451 -0.6018 -0.5533 -2.0918
   11MOL   H702 9122   6.668   3.588   4.594  2.7763  0.7395 -0.7422
   11MOL   H703 9123   6.448   3.478   4.515 -0.5738 -0.7844 -0.5370
   11MOL   H704 9124   6.534   3.399   4.387 -0.3704 -0.1012 -0.2569
   11MOL   H705 9125   6.625   3.372   4.685 -3.5389 -2.6868  1.5658
   11MOL   H706 9126   6.694   3.290   4.545  1.0943  1.8223  0.4533
   11MOL   H707 9127   6.505   3.153   4.512 -1.6282  0.7244 -0.9251
   11MOL   H708 9128   6.404   3.254   4.617  1.2688  1.4386  1.6235
   11MOL   H709 9129   6.560   3.199   4.803  1.0251 -0.7641 -0.0909
   11MOL   H710 9130   6.635   3.085   4.700  0.9571  0.7727 -0.0586
   11MOL   H711 9131   6.482   2.997   4.864 -0.4356  1.4640  1.1863
   11MOL   H712 9132   6.345   3.079   4.791  0.8595  2.3036  1.7027
   11MOL   H713 9133   6.344   2.838   4.722 -1.2592 -0.9260 -1.3716
   11MOL   H714 9134   6.380   2.943   4.582 -3.9235 -1.0758  0.7224
   11MOL   H715 9135   6.504   2.850   4.643  0.0790  2.4811 -0.3554
   11MOL   C716 9136   6.778   4.352   4.505 -0.4025 -0.1068  0.1406
   11MOL   C717 9137   6.633   4.394   4.475 -0.2174 -0.3105 -0.1348
   11MOL   C718 9138   6.614   4.472   4.348  0.3905 -0.7506  0.4530
   11MOL   C719 9139   6.694   4.607   4.350 -0.5066 -0.3511 -0.4830
   11MOL   C720 9140   6.665   4.694   4.221 -0.8839  0.0370  0.5622
   11MOL   C721 9141   6.768   4.813   4.212  0.5966  0.0024 -0.3237
   11MOL   C722 9142   6.738   4.897   4.089 -0.0473  0.0965 -0.0419
   11MOL   C723 9143   6.820   5.028   4.067  0.5747 -0.5399 -0.4276
   11MOL   C724 9144   6.971   5.026   4.059 -0.0704  0.0779 -0.4381
   11MOL   C725 9145   7.027   4.980   3.920 -0.3496 -0.2338 -0.2831
   11MOL   C726 9146   7.158   4.904   3.932  0.3577  0.8281 -0.2349
   11MOL   C727 9147   7.269   4.991   3.988 -0.0960 -0.2897  0.5538
   11MOL   C728 9148   7.383   4.913   4.051 -0.2046  0.5675 -0.0576
   11MOL   C729 9149   7.509   4.995   4.093  0.0314 -0.4795 -0.0645
   11MOL   H730 9150   6.789   4.288   4.592  0.4401  1.4511  1.2019
   11MOL   H731 9151   6.835   4.441   4.531 -0.5704 -0.1681  0.7090
   11MOL   H732 9152   6.610   4.455   4.563 -1.7257 -0.9759 -0.0573
   11MOL   H733 9153   6.509   4.489   4.325  0.4606  0.3330  0.9023
   11MOL   H734 9154   6.646   4.409   4.265  3.2489  1.0232  0.1304
   11MOL   H735 9155   6.667   4.663   4.439 -0.5813 -0.1616 -0.6239
   11MOL   H736 9156   6.801   4.586   4.356 -1.1202 -4.0371 -1.1991
   11MOL   H737 9157   6.670   4.632   4.131  0.6882 -0.3914  0.9276
   11MOL   H738 9158   6.561   4.724   4.230 -1.3118 -1.5960  1.1654
   11MOL   H739 9159   6.749   4.871   4.302 -0.2651  2.1050 -1.8162
   11MOL   H740 9160   6.872   4.780   4.201  0.2239 -1.3444  0.1005
   11MOL   H741 9161   6.736   4.832   4.001  1.9595  0.7731 -0.6144
   11MOL   H742 9162   6.635   4.933   4.088  0.5138  1.8035  0.9739
   11MOL   H743 9163   6.781   5.110   4.128 -0.3221 -0.2511 -1.3717
   11MOL   H744 9164   6.783   5.062   3.970  1.0926  1.7109  0.1238
   11MOL   H745 9165   6.996   5.130   4.082 -3.2202  0.2671  2.5463
   11MOL   H746 9166   7.021   4.968   4.137  0.9960 -1.8953 -2.5475
   11MOL   H747 9167   6.959   4.919   3.861  0.5501 -1.5282  0.0039
   11MOL   H748 9168   7.045   5.063   3.852  0.1518 -0.3098 -0.2389
   11MOL   H749 9169   7.146   4.817   3.997  1.6811  1.9125  1.5414
   11MOL   H750 9170   7.193   4.867   3.836 -0.8996  0.0658 -0.4072
   11MOL   H751 9171   7.313   5.059   3.915 -0.0084 -1.7295 -0.7545
   11MOL   H752 9172   7.237   5.049   4.075 -0.1180 -2.9791  2.4042
   11MOL   H753 9173   7.413   4.845   3.971 -1.9700 -0.8825  0.4896
   11MOL   H754 9174   7.360   4.847   4.134  0.4209  1.1410  0.5696
   11MOL   H755 9175   7.508   5.045   4.190  0.9650  2.2487 -1.4180
   11MOL   H756 9176   7.543   5.062   4.015  0.8514 -1.0286 -0.1788
   11MOL   H757 9177   7.585   4.917   4.099 -1.6279 -2.0642  1.3473
   11MOL   C758 9178   6.534   4.274   4.497  0.3813  0.1577  0.8882
   11MOL   C759 9179   6.394   4.304   4.558  0.0922  0.7786 -0.0253
   11MOL   C760 9180   6.306   4.179   4.561 -1.1426 -0.6908  0.7241
   11MOL   C761 9181   6.261   4.127   4.421 -0.4077 -0.2503 -0.3596
   11MOL   C762 9182   6.168   4.016   4.437 -0.3236 -0.8496  0.1823
   11MOL   C763 9183   6.233   3.877   4.444 -0.0488  0.0731 -0.6492
   11MOL   C764 9184   6.134   3.765   4.443 -0.1264 -1.1100  0.5271
   11MOL   C765 9185   6.192   3.629   4.473 -0.2968 -0.4335  0.5005
   11MOL   C766 9186   6.077   3.523   4.477 -0.9937 -1.3346  0.1101
   11MOL   C767 9187   6.133   3.385   4.466  0.0976  0.6897 -0.6594
   11MOL   C768 9188   6.028   3.279   4.492  0.4658  0.3548 -0.2909
   11MOL   C769 9189   6.073   3.130   4.486  0.2712  0.0095 -0.9010
   11MOL   C770 9190   5.985   3.023   4.546 -0.5934 -0.2337  1.3126
   11MOL   C771 9191   6.044   2.875   4.542  0.0606  0.0041 -0.1982
   11MOL   H772 9192   6.521   4.232   4.397 -3.1318  1.1888  0.8361
   11MOL   H773 9193   6.576   4.191   4.554  0.8532 -0.1991  0.0242
   11MOL   H774 9194   6.343   4.373   4.490  3.5206  0.7881 -2.7452
   11MOL   H775 9195   6.355   4.100   4.618  1.1751 -0.0224 -0.2754
   11MOL   H776 9196   6.210   4.196   4.610 -2.0141  1.2617 -1.5959
   11MOL   H777 9197   6.208   4.205   4.367  0.4198 -2.3849 -4.5113
   11MOL   H778 9198   6.349   4.100   4.363 -0.6443 -1.0926 -0.3375
   11MOL   H779 9199   6.102   4.016   4.350 -1.2473 -0.3763  0.8717
   11MOL   H780 9200   6.097   4.032   4.518  1.7029  1.4417  1.5708
   11MOL   H781 9201   6.282   3.878   4.542 -0.2695 -2.3622 -0.4803
   11MOL   H782 9202   6.299   3.868   4.358  0.2612 -0.0727 -0.3974
   11MOL   H783 9203   6.072   3.787   4.530 -0.8425 -1.1136  0.0200
   11MOL   H784 9204   6.064   3.768   4.360  2.0688  1.3660 -1.3335
   11MOL   H785 9205   6.237   3.635   4.572 -2.4010  2.9113  1.3560
   11MOL   H786 9206   6.265   3.597   4.399 -1.2066 -1.5738  0.0718
   11MOL   H787 9207   6.004   3.530   4.396  2.1241  1.0837 -2.6274
   11MOL   H788 9208   6.030   3.544   4.574 -0.0294  0.9873  0.1236
   11MOL   H789 9209   6.220   3.372   4.530 -0.8242 -1.2436  0.2644
   11MOL   H790 9210   6.166   3.370   4.363 -0.1151 -2.3343 -0.3342
   11MOL   H791 9211   5.988   3.301   4.591  2.4753 -0.1496  0.6665
   11MOL   H792 9212   5.942   3.295   4.427  0.3419 -1.6099 -0.6268
   11MOL   H793 9213   6.083   3.104   4.381 -0.2109 -1.9011 -0.4884
   11MOL   H794 9214   6.171   3.124   4.534  0.6708  0.3215 -1.6573
   11MOL   H795 9215   5.959   3.048   4.649 -2.6251  1.3694  0.4286
   11MOL   H796 9216   5.890   3.022   4.494 -0.3089  1.9152  0.6956
   11MOL   H797 9217   6.080   2.842   4.444  1.3201 -1.4908  0.7355
   11MOL   H798 9218   6.123   2.848   4.613  1.9377  1.1340 -1.8035
   11MOL   H799 9219   5.967   2.807   4.578 -1.4006  0.7014 -1.9839
   11MOL   C800 9220   6.395   4.369   4.698 -0.0911  0.3569 -0.0692
   11MOL   C801 9221   6.446   4.283   4.815 -0.2478  0.7172 -0.1517
   11MOL   C802 9222   6.503   4.364   4.935  0.8030 -0.2008 -0.8420
   11MOL   C803 9223   6.528   4.275   5.055 -0.1010  0.1080 -0.2587
   11MOL   C804 9224   6.519   4.348   5.191  0.3391 -0.1832  0.4894
   11MOL   C805 9225   6.455   4.262   5.297  0.1134  0.4516  0.1318
   11MOL   C806 9226   6.453   4.319   5.434  0.0515  0.8617  0.0437
   11MOL   C807 9227   6.407   4.222   5.543 -0.3057 -0.0888 -0.1873
   11MOL   C808 9228   6.335   4.292   5.653 -0.2956  0.1573 -0.0036
   11MOL   C809 9229   6.330   4.198   5.773 -0.2630 -0.7328 -0.8692
   11MOL   C810 9230   6.224   4.095   5.753 -0.8035  0.8440 -0.0400
   11MOL   C811 9231   6.207   3.998   5.875  0.1511  0.2414 -0.1989
   11MOL   C812 9232   6.076   3.920   5.874 -1.0810  0.4091 -0.0162
   11MOL   C813 9233   6.070   3.832   5.754  1.0888 -0.6338 -0.3709
   11MOL   H814 9234   6.293   4.398   4.722 -0.5169 -0.9934 -0.2020
   11MOL   H815 9235   6.444   4.466   4.692 -0.7165  0.7993  1.7705
   11MOL   H816 9236   6.529   4.224   4.777 -0.0233 -1.2802  3.2053
   11MOL   H817 9237   6.436   4.442   4.971 -0.6484 -2.8545  2.5142
   11MOL   H818 9238   6.601   4.407   4.916 -0.3986  3.4479  0.7846
   11MOL   H819 9239   6.631   4.243   5.041  1.0340  3.3345  0.2047
   11MOL   H820 9240   6.468   4.185   5.061 -0.3318  0.1756 -1.4393
   11MOL   H821 9241   6.624   4.367   5.214  0.8741 -1.7367 -0.5651
   11MOL   H822 9242   6.477   4.448   5.180  1.4808  0.0776 -1.7927
   11MOL   H823 9243   6.502   4.164   5.294 -3.0901 -1.1219  0.1372
   11MOL   H824 9244   6.354   4.232   5.272  0.5690 -0.7682 -0.2854
   11MOL   H825 9245   6.551   4.364   5.453  2.0361 -3.4246  0.7298
   11MOL   H826 9246   6.391   4.408   5.441 -0.4389  0.5247 -0.0372
   11MOL   H827 9247   6.354   4.134   5.507  2.4387 -1.7105 -0.4425
   11MOL   H828 9248   6.492   4.172   5.590 -0.9642  1.3674  2.6586
   11MOL   H829 9249   6.395   4.378   5.687  3.6494 -2.0279 -1.1017
   11MOL   H830 9250   6.236   4.318   5.616  0.8750  1.8968 -2.0585
   11MOL   H831 9251   6.315   4.253   5.866  0.2615 -1.9358 -0.0633
   11MOL   H832 9252   6.417   4.135   5.791 -0.7975 -0.9540  1.0015
   11MOL   H833 9253   6.130   4.147   5.735 -0.4119  0.7891 -2.3948
   11MOL   H834 9254   6.252   4.033   5.668 -0.8898 -1.2093  1.3749
   11MOL   H835 9255   6.216   4.046   5.972  1.0225 -1.8963  0.7919
   11MOL   H836 9256   6.302   3.945   5.879  1.4058  2.1977 -2.4360
   11MOL   H837 9257   6.067   3.849   5.956 -1.9047 -0.1835 -0.6144
   11MOL   H838 9258   5.990   3.986   5.871 -0.9902  0.6097  1.5834
   11MOL   H839 9259   6.070   3.879   5.655 -1.1823  1.6126  0.6414
   11MOL   H840 9260   6.153   3.761   5.751 -0.6746 -2.7293 -0.8457
   11MOL   H841 9261   5.976   3.777   5.757 -0.3595  1.8557  3.6201
   11MOL   H842 9262   6.360   4.221   4.836  0.1865  0.5138  1.0711
   12MOL     C1 9263   5.389   5.653   6.407 -0.1638  0.4907  0.4202
   12MOL     C2 9264   5.415   5.710   6.271  0.4320 -0.3669  0.1828
   12MOL     C3 9265   5.279   5.767   6.205  0.4047 -0.8790 -0.0981
   12MOL     C4 9266   5.215   5.661   6.115 -0.6355  0.4404  0.3168
   12MOL     C5 9267   5.184   5.522   6.175 -0.1333 -0.8403 -0.0568
   12MOL     C6 9268   5.101   5.434   6.087 -0.4888 -0.2106  0.0873
   12MOL     C7 9269   5.095   5.283   6.127  0.2629 -0.0155 -1.2399
   12MOL     C8 9270   5.034   5.242   6.260 -0.1506  1.1297  0.6079
   12MOL     C9 9271   5.028   5.096   6.283  0.8682  0.7111 -0.2647
   12MOL    C10 9272   4.950   5.057   6.406  0.6472 -0.4525  0.0115
   12MOL    C11 9273   4.942   4.901   6.402 -0.2921  0.5078 -0.1039
   12MOL    C12 9274   4.839   4.853   6.507  0.4595 -0.0545  1.1817
   12MOL    C13 9275   4.826   4.703   6.504 -0.0676  0.2575 -0.4698
   12MOL    C14 9276   4.738   4.659   6.629 -0.7991  0.3307  0.1732
   12MOL    H15 9277   5.448   5.562   6.424 -0.1878  0.5562  0.8718
   12MOL    H16 9278   5.284   5.631   6.429 -0.8962  0.9371 -2.5182
   12MOL    H17 9279   5.449   5.620   6.219 -0.0007 -0.4485  0.0419
   12MOL    H18 9280   5.217   5.803   6.287  0.5789 -0.6605 -0.0629
   12MOL    H19 9281   5.296   5.860   6.151  0.7508 -1.2138 -0.5681
   12MOL    H20 9282   5.283   5.635   6.034 -0.2797 -1.4032  1.1872
   12MOL    H21 9283   5.122   5.693   6.068 -0.0926 -0.6387 -1.5505
   12MOL    H22 9284   5.131   5.538   6.269 -0.6509  1.6861 -0.7285
   12MOL    H23 9285   5.279   5.473   6.197  1.0510  0.5917 -1.8729
   12MOL    H24 9286   5.139   5.442   5.986  2.2342 -1.7965  0.9417
   12MOL    H25 9287   5.000   5.476   6.083 -0.5134 -0.3995 -1.3324
   12MOL    H26 9288   5.041   5.236   6.044 -4.0542 -0.4267  1.6450
   12MOL    H27 9289   5.192   5.238   6.107  1.3332  2.0001 -0.6687
   12MOL    H28 9290   4.939   5.290   6.286 -0.2064  0.3626  1.8831
   12MOL    H29 9291   5.095   5.282   6.341  1.7323 -1.8034  0.6959
   12MOL    H30 9292   4.995   5.053   6.188  2.0165 -1.5404  0.3227
   12MOL    H31 9293   5.127   5.058   6.306  0.3269  0.2207  1.3727
   12MOL    H32 9294   4.998   5.108   6.489  0.2805 -0.0586 -0.0135
   12MOL    H33 9295   4.855   5.109   6.391  2.3742  2.6748 -0.5118
   12MOL    H34 9296   4.913   4.859   6.305 -0.8918 -0.4715  0.4877
   12MOL    H35 9297   5.038   4.853   6.418  0.7977  2.3226 -1.0816
   12MOL    H36 9298   4.748   4.911   6.490 -0.3340 -1.6698 -0.1718
   12MOL    H37 9299   4.873   4.878   6.608 -1.8742  0.6746  1.8091
   12MOL    H38 9300   4.763   4.676   6.420 -0.8514 -1.1563  0.5461
   12MOL    H39 9301   4.922   4.652   6.491 -0.0686  0.2328 -0.3733
   12MOL    H40 9302   4.701   4.560   6.601  1.1137  0.2726 -2.2666
   12MOL    H41 9303   4.797   4.660   6.721 -0.5966 -0.6488  0.0586
   12MOL    H42 9304   4.645   4.714   6.640 -1.7315 -0.6255 -2.4609
   12MOL    H43 9305   5.418   5.727   6.482  1.6759  0.4599 -0.2498
   12MOL    C44 9306   5.527   5.809   6.270 -0.6731 -0.3286 -0.2479
   12MOL    C45 9307   5.671   5.762   6.288 -0.9033  0.0808 -0.2877
   12MOL    C46 9308   5.757   5.883   6.314  0.0913  0.4401 -0.0894
   12MOL    C47 9309   5.728   6.009   6.221 -0.4718 -0.0237 -0.3397
   12MOL    C48 9310   5.821   6.129   6.251 -0.6868  0.1877 -0.1104
   12MOL    C49 9311   5.785   6.263   6.182 -0.1965 -0.0064 -0.5869
   12MOL    C50 9312   5.873   6.373   6.235  1.0890 -0.1689  0.9150
   12MOL    C51 9313   5.818   6.514   6.195 -0.0475 -0.9293  0.2789
   12MOL    C52 9314   5.859   6.629   6.290  0.5257  0.1671  0.5696
   12MOL    C53 9315   5.828   6.765   6.231 -0.1173 -0.2485  0.5658
   12MOL    C54 9316   5.799   6.877   6.329 -0.1845  0.0298  0.3063
   12MOL    C55 9317   5.718   6.995   6.268  0.1223 -0.3953 -0.4815
   12MOL    C56 9318   5.687   7.110   6.364 -0.4274  0.1648  0.3856
   12MOL    C57 9319   5.591   7.215   6.289 -0.4482  0.6287 -0.5702
   12MOL    H58 9320   5.531   5.838   6.165  0.6741  0.4327  0.0089
   12MOL    H59 9321   5.506   5.898   6.330  0.3728  0.1795 -0.6302
   12MOL    H60 9322   5.678   5.700   6.378 -3.3994 -0.9040 -0.7158
   12MOL    H61 9323   5.743   5.911   6.419  0.2491  2.4883 -0.6004
   12MOL    H62 9324   5.859   5.844   6.317 -0.1312 -0.0917  0.6844
   12MOL    H63 9325   5.629   6.053   6.226 -1.0564 -0.9532 -2.7352
   12MOL    H64 9326   5.728   5.973   6.118 -1.6871  0.3684 -0.4869
   12MOL    H65 9327   5.926   6.110   6.233 -0.7905  1.0616 -1.6906
   12MOL    H66 9328   5.823   6.143   6.359 -0.9565  0.1823 -0.1047
   12MOL    H67 9329   5.782   6.253   6.073  0.7895 -1.8038 -0.4616
   12MOL    H68 9330   5.678   6.280   6.197 -0.4714 -1.6690 -0.5653
   12MOL    H69 9331   5.879   6.361   6.343  0.4845  0.8878  1.0697
   12MOL    H70 9332   5.978   6.359   6.208  0.8390  1.1468 -0.8152
   12MOL    H71 9333   5.710   6.508   6.200 -0.0398 -0.7146  0.7165
   12MOL    H72 9334   5.852   6.548   6.097 -0.0505  0.1730  0.6555
   12MOL    H73 9335   5.805   6.622   6.385 -0.8144 -0.0052 -0.1820
   12MOL    H74 9336   5.960   6.624   6.329  0.6003 -0.1294  0.3335
   12MOL    H75 9337   5.747   6.759   6.158  1.4423 -1.0581 -1.1278
   12MOL    H76 9338   5.920   6.786   6.177 -0.5682 -2.2979 -1.0763
   12MOL    H77 9339   5.895   6.911   6.367  1.0373 -3.1983  0.2163
   12MOL    H78 9340   5.743   6.841   6.415 -1.6897 -1.2044 -1.1464
   12MOL    H79 9341   5.764   7.038   6.180 -2.5074  2.1425 -0.6836
   12MOL    H80 9342   5.620   6.959   6.236  0.6662 -1.5807 -0.8535
   12MOL    H81 9343   5.783   7.158   6.385 -0.7631  1.3295 -0.6706
   12MOL    H82 9344   5.645   7.074   6.458  1.9090 -0.7537  1.1197
   12MOL    H83 9345   5.587   7.309   6.344 -0.5197  0.1259  0.2961
   12MOL    H84 9346   5.489   7.183   6.268  0.0950 -0.9962 -0.7556
   12MOL    H85 9347   5.629   7.225   6.187  0.2445  1.7009 -0.2160
   12MOL    C86 9348   5.726   5.672   6.164  0.1843 -0.1595  0.3262
   12MOL    C87 9349   5.866   5.605   6.192 -0.1002 -0.2359  0.3098
   12MOL    C88 9350   5.902   5.517   6.078 -0.2111  0.6502  0.7817
   12MOL    C89 9351   5.929   5.579   5.932 -0.5136 -0.0855  0.3861
   12MOL    C90 9352   6.046   5.676   5.937  0.2601  0.0924  0.0378
   12MOL    C91 9353   6.095   5.715   5.798 -0.3175 -0.0533 -0.5891
   12MOL    C92 9354   6.019   5.834   5.743 -0.2007 -0.1767 -0.2719
   12MOL    C93 9355   6.060   5.861   5.595  0.8268 -0.4220 -0.5596
   12MOL    C94 9356   6.015   6.008   5.552 -0.1564  0.2879  0.1163
   12MOL    C95 9357   6.071   6.056   5.420  0.4850  0.0821  0.3212
   12MOL    C96 9358   6.014   6.187   5.353  0.1813 -0.3641 -0.0298
   12MOL    C97 9359   6.005   6.302   5.454 -0.1662  0.3381 -0.0641
   12MOL    C98 9360   5.982   6.439   5.385  0.3452 -0.1057  1.2030
   12MOL    C99 9361   5.979   6.554   5.478 -1.0406 -0.1759 -0.6808
   12MOL   H100 9362   5.653   5.593   6.144 -0.3326  0.2806  0.4672
   12MOL   H101 9363   5.730   5.726   6.069 -1.2859 -0.1580  0.2485
   12MOL   H102 9364   5.937   5.687   6.196 -0.2330 -0.0959 -0.1659
   12MOL   H103 9365   5.999   5.473   6.103  0.7011  0.7612 -2.3247
   12MOL   H104 9366   5.829   5.439   6.059 -0.4312  0.9652  0.3307
   12MOL   H105 9367   5.950   5.496   5.864 -1.4998 -1.9773  2.3422
   12MOL   H106 9368   5.840   5.627   5.890  1.5559  1.8136 -2.0143
   12MOL   H107 9369   6.133   5.634   5.988 -0.9714 -2.1852  0.3276
   12MOL   H108 9370   6.021   5.769   5.987  0.1581 -0.1321  0.4075
   12MOL   H109 9371   6.102   5.630   5.730  1.0173 -0.9771  0.6760
   12MOL   H110 9372   6.200   5.737   5.816 -0.4222 -0.5057  0.6295
   12MOL   H111 9373   5.912   5.815   5.754  0.0766 -0.1112  2.9935
   12MOL   H112 9374   6.035   5.918   5.810  1.0758 -1.1529  0.6748
   12MOL   H113 9375   6.017   5.793   5.522  0.5134  0.4194 -1.1653
   12MOL   H114 9376   6.168   5.854   5.584  1.2246  1.2596  1.8036
   12MOL   H115 9377   5.907   6.012   5.566 -0.3961 -0.5240 -1.4081
   12MOL   H116 9378   6.050   6.076   5.630 -1.5673  0.0216  0.9823
   12MOL   H117 9379   6.055   5.979   5.344 -2.0749  1.2710 -0.4056
   12MOL   H118 9380   6.180   6.066   5.428  0.1267  2.9706  2.6082
   12MOL   H119 9381   6.075   6.211   5.266 -1.2363 -0.0140 -0.9457
   12MOL   H120 9382   5.915   6.164   5.313  0.2243 -0.8157  0.1221
   12MOL   H121 9383   5.936   6.278   5.535 -0.3056 -1.2898 -0.6420
   12MOL   H122 9384   6.106   6.313   5.494 -0.3026  0.2577  0.3121
   12MOL   H123 9385   5.881   6.428   5.346  2.0290  0.7649 -3.8442
   12MOL   H124 9386   6.043   6.452   5.295 -2.7693 -1.3967 -1.1900
   12MOL   H125 9387   5.898   6.564   5.549  0.4700  0.0342  1.0635
   12MOL   H126 9388   6.072   6.564   5.536 -0.4455  1.5707 -1.8829
   12MOL   H127 9389   5.967   6.648   5.424  0.7144 -0.7176 -2.0616
   12MOL   C128 9390   5.886   5.528   6.327 -0.2884  0.4820 -0.0401
   12MOL   C129 9391   5.987   5.583   6.433 -0.0164  0.4621 -0.3940
   12MOL   C130 9392   5.986   5.505   6.569 -0.0346 -0.4188 -0.3208
   12MOL   C131 9393   5.853   5.503   6.654 -0.5832 -0.4992  0.1133
   12MOL   C132 9394   5.856   5.400   6.767  0.0454  0.2337 -0.4085
   12MOL   C133 9395   5.797   5.265   6.726  0.6697 -0.2078  0.1800
   12MOL   C134 9396   5.793   5.163   6.836  0.0094 -0.2555 -0.3965
   12MOL   C135 9397   5.929   5.090   6.842  0.0082  0.7638 -0.4372
   12MOL   C136 9398   5.920   4.970   6.948 -0.5203  0.2304  0.3363
   12MOL   C137 9399   6.062   4.929   6.989  0.2200 -1.0045  0.5544
   12MOL   C138 9400   6.064   4.818   7.089 -0.2226 -0.0084 -0.6759
   12MOL   C139 9401   6.207   4.796   7.153  0.3958  0.0948 -0.6360
   12MOL   C140 9402   6.324   4.740   7.060  0.3995  0.5457 -0.3155
   12MOL   C141 9403   6.463   4.752   7.120 -0.2869 -0.3299  0.1987
   12MOL   H142 9404   5.793   5.493   6.371  0.8294  0.3037  2.2864
   12MOL   H143 9405   5.930   5.434   6.295 -0.9335  0.6733 -1.5426
   12MOL   H144 9406   5.942   5.678   6.461 -0.6486 -0.3904  1.5605
   12MOL   H145 9407   6.016   5.401   6.559  1.6354  0.1973 -2.0986
   12MOL   H146 9408   6.073   5.536   6.628 -1.1868 -0.7141  1.6035
   12MOL   H147 9409   5.858   5.599   6.707 -2.1541 -1.1181  1.4626
   12MOL   H148 9410   5.758   5.499   6.600 -0.0700 -1.1324 -0.7486
   12MOL   H149 9411   5.956   5.406   6.810 -0.2417  2.8789 -0.0297
   12MOL   H150 9412   5.800   5.444   6.850  0.6436  1.6864 -0.7638
   12MOL   H151 9413   5.694   5.287   6.699  0.7868  1.0464  0.7599
   12MOL   H152 9414   5.838   5.218   6.636  0.9158  0.9801 -0.3355
   12MOL   H153 9415   5.781   5.222   6.927  0.2783  0.8276 -1.0473
   12MOL   H154 9416   5.711   5.093   6.824 -0.0020 -0.7900  2.3617
   12MOL   H155 9417   5.948   5.043   6.746 -1.9995  0.6558 -0.8032
   12MOL   H156 9418   6.009   5.160   6.868 -2.3070  1.8071  4.2885
   12MOL   H157 9419   5.862   5.009   7.032 -3.2897 -1.0355 -0.9289
   12MOL   H158 9420   5.860   4.887   6.911 -0.7301  1.7162 -2.8031
   12MOL   H159 9421   6.109   5.014   7.039 -0.5953 -1.7038  2.5568
   12MOL   H160 9422   6.119   4.926   6.896 -0.7015  3.1077 -0.2725
   12MOL   H161 9423   5.985   4.838   7.161  0.6144  0.3014  0.1548
   12MOL   H162 9424   6.037   4.716   7.061  0.7308 -0.8978  1.4865
   12MOL   H163 9425   6.243   4.886   7.202 -1.4518  1.2040 -1.2696
   12MOL   H164 9426   6.189   4.724   7.233 -1.3489  0.2139 -0.9035
   12MOL   H165 9427   6.324   4.633   7.042 -0.1666  0.7060 -1.2568
   12MOL   H166 9428   6.323   4.784   6.961  0.8670  0.3001 -0.4320
   12MOL   H167 9429   6.495   4.850   7.158  2.7033 -2.0270  2.2913
   12MOL   H168 9430   6.463   4.685   7.206 -3.4584  2.6654  2.6817
   12MOL   H169 9431   6.537   4.715   7.050  1.9620  1.7996  1.3422
   12MOL   C170 9432   6.135   5.593   6.373 -0.1702 -0.5093  0.4185
   12MOL   C171 9433   6.236   5.704   6.434 -0.0798  0.2276 -0.4122
   12MOL   C172 9434   6.385   5.645   6.440 -0.0318  0.3985 -1.0417
   12MOL   C173 9435   6.413   5.525   6.534  0.6166 -0.5151  0.0801
   12MOL   C174 9436   6.553   5.469   6.527 -0.4736 -0.2129  0.9191
   12MOL   C175 9437   6.581   5.361   6.628  0.7217 -0.3049 -0.0804
   12MOL   C176 9438   6.728   5.343   6.644 -0.1008 -0.0508  0.9875
   12MOL   C177 9439   6.780   5.256   6.533  0.6976 -0.7203 -0.5282
   12MOL   C178 9440   6.923   5.224   6.538  0.1187 -0.3445  0.2278
   12MOL   C179 9441   6.972   5.130   6.645 -0.2808 -0.4107 -0.1562
   12MOL   C180 9442   7.127   5.103   6.630 -0.1418 -0.0166 -0.0481
   12MOL   C181 9443   7.187   5.015   6.749  0.8785  0.5460  0.4715
   12MOL   C182 9444   7.334   4.993   6.738  0.2494 -0.0023 -0.0144
   12MOL   C183 9445   7.377   4.906   6.849 -0.3282  0.2349 -0.5163
   12MOL   H184 9446   6.122   5.610   6.267 -0.7995  2.4621  0.9242
   12MOL   H185 9447   6.186   5.497   6.386  0.4171 -0.2282  0.1972
   12MOL   H186 9448   6.196   5.708   6.535 -1.5801  1.8545 -1.0369
   12MOL   H187 9449   6.427   5.621   6.342 -0.3662  3.7704 -2.0743
   12MOL   H188 9450   6.440   5.726   6.488 -0.1395 -1.6086  2.6374
   12MOL   H189 9451   6.385   5.558   6.634 -0.1957  0.5997 -0.5044
   12MOL   H190 9452   6.346   5.440   6.517 -0.8985  0.7743 -0.4789
   12MOL   H191 9453   6.568   5.425   6.428 -2.6447  2.6436 -0.7433
   12MOL   H192 9454   6.625   5.550   6.540 -0.0337 -0.2330 -1.1843
   12MOL   H193 9455   6.527   5.271   6.599 -1.4149  1.0623 -0.4707
   12MOL   H194 9456   6.547   5.395   6.727 -0.3629  0.2991 -0.6519
   12MOL   H195 9457   6.744   5.300   6.743 -0.0131 -0.7824  0.6566
   12MOL   H196 9458   6.771   5.443   6.652 -0.9787  0.5605 -1.4619
   12MOL   H197 9459   6.769   5.303   6.435  2.0189  2.2091  0.6713
   12MOL   H198 9460   6.732   5.158   6.542 -1.0273  0.2627  1.2354
   12MOL   H199 9461   6.973   5.320   6.550 -2.3654  1.1079 -0.5837
   12MOL   H200 9462   6.947   5.182   6.441  0.5667  1.4374 -0.4484
   12MOL   H201 9463   6.910   5.041   6.654 -0.6858  0.0030  1.3822
   12MOL   H202 9464   6.972   5.184   6.740  1.0326 -1.8498  0.6852
   12MOL   H203 9465   7.169   5.203   6.632  2.1013 -0.8842 -1.4265
   12MOL   H204 9466   7.149   5.059   6.533 -2.8666  0.4778 -0.9317
   12MOL   H205 9467   7.169   5.067   6.843 -0.7823  0.6750  0.1079
   12MOL   H206 9468   7.138   4.918   6.762  0.8910  0.3143 -1.0415
   12MOL   H207 9469   7.362   4.924   6.658  3.8293  0.9335  0.3604
   12MOL   H208 9470   7.377   5.093   6.729  1.6306 -0.4931  1.0504
   12MOL   H209 9471   7.310   4.821   6.866 -0.0095 -0.4306 -2.5037
   12MOL   H210 9472   7.390   4.975   6.932  1.2217  0.8234 -1.2269
   12MOL   H211 9473   7.476   4.861   6.840 -0.7819 -0.4068 -2.3710
   12MOL   C212 9474   6.218   5.838   6.352  0.2299 -0.1664 -0.3311
   12MOL   C213 9475   6.244   5.971   6.431 -0.2546 -0.2182  0.3455
   12MOL   C214 9476   6.200   5.964   6.581 -0.6061 -0.2563 -0.0488
   12MOL   C215 9477   6.045   5.960   6.600  0.9012 -0.3379 -0.2955
   12MOL   C216 9478   6.005   5.913   6.747 -0.1885 -0.3664  0.7928
   12MOL   C217 9479   5.846   5.890   6.758 -0.6893  0.1469 -0.5677
   12MOL   C218 9480   5.798   5.833   6.891  0.5342  0.4968 -0.5403
   12MOL   C219 9481   5.649   5.807   6.911  0.4895 -0.2515  0.3428
   12MOL   C220 9482   5.568   5.936   6.945  0.0827 -0.7187  0.1040
   12MOL   C221 9483   5.416   5.907   6.971  0.3771  0.1097 -0.2103
   12MOL   C222 9484   5.366   6.025   7.053  0.0281 -0.5913  0.0855
   12MOL   C223 9485   5.219   6.030   7.097  0.6782  0.3828  0.5472
   12MOL   C224 9486   5.184   6.146   7.193  0.1834 -0.3941 -0.5225
   12MOL   C225 9487   5.050   6.134   7.263  0.0136 -0.1917  0.7166
   12MOL   H226 9488   6.118   5.839   6.310  0.0402 -1.1991  0.0710
   12MOL   H227 9489   6.279   5.831   6.262  1.2546 -1.0339  0.4058
   12MOL   H228 9490   6.192   6.055   6.385  0.2275  0.1003  0.3772
   12MOL   H229 9491   6.243   5.878   6.633  1.5428  0.1785 -1.0414
   12MOL   H230 9492   6.232   6.058   6.626 -2.9924 -0.4745  2.1996
   12MOL   H231 9493   6.011   5.886   6.528 -1.4496 -1.2123  1.6392
   12MOL   H232 9494   5.999   6.052   6.566  1.2478  0.1940  0.6563
   12MOL   H233 9495   6.042   5.976   6.828  0.1352 -0.2666  0.5692
   12MOL   H234 9496   6.052   5.816   6.764 -0.8226 -0.7557  0.3779
   12MOL   H235 9497   5.823   5.822   6.676 -1.0619 -2.6303  1.7471
   12MOL   H236 9498   5.793   5.983   6.741 -0.6176  0.4321  0.7175
   12MOL   H237 9499   5.852   5.739   6.904 -0.3008 -0.1389 -1.5798
   12MOL   H238 9500   5.839   5.890   6.975 -1.7708  0.2044  0.8229
   12MOL   H239 9501   5.608   5.769   6.818  2.5101 -1.7279  0.0279
   12MOL   H240 9502   5.619   5.726   6.978  1.9611 -0.6727  0.5039
   12MOL   H241 9503   5.573   6.011   6.866 -0.5154 -0.5661  0.2086
   12MOL   H242 9504   5.603   5.989   7.033 -2.6525  1.1500  0.1274
   12MOL   H243 9505   5.353   5.908   6.883  1.1372 -0.1783 -0.7616
   12MOL   H244 9506   5.399   5.817   7.031 -1.8764  0.8627  0.3319
   12MOL   H245 9507   5.378   6.119   6.999 -1.6116 -1.0286 -1.0901
   12MOL   H246 9508   5.426   6.052   7.140  0.2682  0.0235 -0.2664
   12MOL   H247 9509   5.200   5.931   7.137  0.6262 -0.8231 -2.3242
   12MOL   H248 9510   5.160   6.051   7.008  0.1069 -2.2941  0.2619
   12MOL   H249 9511   5.205   6.237   7.137  0.5253 -0.1085  0.0585
   12MOL   H250 9512   5.257   6.137   7.273 -1.4093  0.4192  1.0894
   12MOL   H251 9513   5.047   6.210   7.341 -0.4834 -0.4358  0.9383
   12MOL   H252 9514   4.969   6.149   7.192  0.7630 -0.6519 -0.2376
   12MOL   H253 9515   5.052   6.036   7.311  1.5855  0.4960  2.1043
   12MOL   C254 9516   6.393   6.015   6.409 -0.9202  0.8491 -0.2516
   12MOL   C255 9517   6.429   6.165   6.430 -0.1014  0.1855 -0.1473
   12MOL   C256 9518   6.569   6.195   6.469 -0.0115 -0.3884  0.1379
   12MOL   C257 9519   6.595   6.148   6.610 -0.3500  0.2706  0.4232
   12MOL   C258 9520   6.747   6.132   6.633  0.2355  0.2077  0.3565
   12MOL   C259 9521   6.815   6.020   6.560  0.0531  0.6740  0.0224
   12MOL   C260 9522   6.863   5.909   6.644  0.5447 -0.1879 -0.3503
   12MOL   C261 9523   6.763   5.834   6.723  0.4670  0.0793  0.0251
   12MOL   C262 9524   6.821   5.729   6.811 -0.9084 -0.2386  0.6853
   12MOL   C263 9525   6.708   5.655   6.879  0.2902 -0.3288 -0.0677
   12MOL   C264 9526   6.745   5.542   6.977  0.7533 -0.1931  0.0898
   12MOL   C265 9527   6.828   5.592   7.101 -0.0080  0.6009 -0.9747
   12MOL   C266 9528   6.849   5.487   7.213 -0.3980  0.3066  0.2281
   12MOL   C267 9529   6.737   5.385   7.234 -0.0046  0.6066 -0.1887
   12MOL   H268 9530   6.432   5.979   6.314 -1.4164 -1.1206  0.2700
   12MOL   H269 9531   6.446   5.961   6.488  0.9615  1.0549 -1.3521
   12MOL   H270 9532   6.363   6.200   6.509  1.9097  1.6149  0.9313
   12MOL   H271 9533   6.576   6.303   6.473  2.5637 -0.5775  4.2903
   12MOL   H272 9534   6.643   6.160   6.396  0.4647 -1.1841  0.9868
   12MOL   H273 9535   6.566   6.045   6.633 -0.4939  0.0875 -0.5719
   12MOL   H274 9536   6.550   6.216   6.683  0.8775  0.4726  1.0029
   12MOL   H275 9537   6.770   6.124   6.739  0.9809 -1.0418  0.1161
   12MOL   H276 9538   6.794   6.224   6.598  1.8537 -0.7824 -0.1097
   12MOL   H277 9539   6.907   6.057   6.517  1.1571  0.9657  2.5410
   12MOL   H278 9540   6.750   5.978   6.483 -0.7714  2.2887 -0.1922
   12MOL   H279 9541   6.907   5.836   6.577 -0.5536  0.0915 -1.3893
   12MOL   H280 9542   6.945   5.941   6.708 -0.8248  0.5371  1.0909
   12MOL   H281 9543   6.690   5.796   6.651 -1.1463  1.0592  1.1223
   12MOL   H282 9544   6.698   5.901   6.780 -2.3927 -3.4539  1.1042
   12MOL   H283 9545   6.877   5.663   6.745  0.1361  1.9483 -0.6482
   12MOL   H284 9546   6.890   5.769   6.885 -0.3418  2.1752 -1.1200
   12MOL   H285 9547   6.648   5.614   6.799 -0.7529 -2.6861  1.8691
   12MOL   H286 9548   6.649   5.721   6.942 -2.4582 -0.5160 -2.3524
   12MOL   H287 9549   6.806   5.465   6.930  0.2656 -1.6640  1.7709
   12MOL   H288 9550   6.647   5.498   6.999  1.0913 -1.1889 -0.4002
   12MOL   H289 9551   6.929   5.626   7.079  0.7193 -0.1796  1.0451
   12MOL   H290 9552   6.787   5.687   7.134  0.3291 -0.8029  3.9157
   12MOL   H291 9553   6.939   5.428   7.200 -2.5069 -3.3939  1.6772
   12MOL   H292 9554   6.860   5.540   7.308 -0.8891  1.8375 -0.5434
   12MOL   H293 9555   6.727   5.317   7.150  0.9959  0.6125 -0.3238
   12MOL   H294 9556   6.637   5.425   7.252  0.0850  0.4150  0.7921
   12MOL   H295 9557   6.738   5.325   7.326 -4.5983 -0.5076 -0.7393
   12MOL   C296 9558   6.401   6.261   6.305  0.2242  0.2772  0.9678
   12MOL   C297 9559   6.340   6.396   6.349 -0.1703 -0.1692  0.0565
   12MOL   C298 9560   6.353   6.496   6.231 -0.3988  0.3908  0.6477
   12MOL   C299 9561   6.343   6.642   6.279 -0.3911 -0.0859  0.0767
   12MOL   C300 9562   6.343   6.742   6.164  0.5482 -0.4597  0.3060
   12MOL   C301 9563   6.242   6.724   6.049 -0.6228  0.2991  0.1356
   12MOL   C302 9564   6.191   6.848   5.979  0.1246  0.4835  0.4809
   12MOL   C303 9565   6.129   6.827   5.843  0.6796  0.4140  0.1538
   12MOL   C304 9566   6.073   6.955   5.789 -0.5476  0.3877  0.0774
   12MOL   C305 9567   6.027   6.932   5.649 -0.3132  0.4255  0.0079
   12MOL   C306 9568   5.950   7.058   5.595 -0.6573 -0.0338  0.2587
   12MOL   C307 9569   5.925   7.044   5.447 -0.0418 -0.0886 -0.4764
   12MOL   C308 9570   5.838   7.151   5.377 -0.2127  0.0418  0.4662
   12MOL   C309 9571   5.780   7.104   5.237  0.3247  0.0867  0.2267
   12MOL   H310 9572   6.332   6.220   6.231  0.1081  0.2331  1.1017
   12MOL   H311 9573   6.492   6.253   6.246 -1.5482  0.9289 -2.0116
   12MOL   H312 9574   6.400   6.442   6.427 -1.1298  0.5840  0.3571
   12MOL   H313 9575   6.292   6.462   6.147 -0.5154  0.5250  0.6775
   12MOL   H314 9576   6.448   6.484   6.180 -0.6267 -3.3500  0.9245
   12MOL   H315 9577   6.428   6.669   6.342  0.4048  0.8249 -1.3535
   12MOL   H316 9578   6.265   6.662   6.352  1.0694  3.5070  0.7544
   12MOL   H317 9579   6.333   6.842   6.207  0.4870  0.1336 -1.0414
   12MOL   H318 9580   6.439   6.744   6.112 -0.1730 -0.6235 -1.0510
   12MOL   H319 9581   6.158   6.662   6.080 -2.0096  1.9639 -0.1985
   12MOL   H320 9582   6.294   6.666   5.973 -1.9201  1.0966 -1.3903
   12MOL   H321 9583   6.112   6.898   6.036 -0.7954 -0.9648  0.4970
   12MOL   H322 9584   6.265   6.928   5.980 -0.6889  1.2409  0.4709
   12MOL   H323 9585   6.043   6.762   5.859  0.0668  1.6913  2.0959
   12MOL   H324 9586   6.195   6.775   5.773 -1.0249 -0.8023 -0.6027
   12MOL   H325 9587   5.985   6.986   5.846 -0.5286 -0.9002  0.8444
   12MOL   H326 9588   6.149   7.033   5.792 -0.0558 -0.0444 -1.0437
   12MOL   H327 9589   5.960   6.846   5.653  1.1470 -0.7533 -0.4481
   12MOL   H328 9590   6.115   6.898   5.595 -0.4394  1.0679 -0.6069
   12MOL   H329 9591   6.010   7.147   5.616  0.9536 -1.0615  0.0957
   12MOL   H330 9592   5.861   7.076   5.657  0.7326  0.2712  2.2095
   12MOL   H331 9593   5.876   6.949   5.426 -2.0849  0.8490 -0.1072
   12MOL   H332 9594   6.023   7.041   5.399  0.0756  1.0280 -0.3381
   12MOL   H333 9595   5.897   7.239   5.351  2.2293 -1.7332 -0.1835
   12MOL   H334 9596   5.757   7.179   5.444 -0.2919  0.8541  0.0355
   12MOL   H335 9597   5.735   7.180   5.173 -1.0040 -0.9726 -0.1239
   12MOL   H336 9598   5.863   7.067   5.176  0.5936  2.1232 -0.7035
   12MOL   H337 9599   5.700   7.031   5.252  1.1339 -1.3207 -2.0259
   12MOL   C338 9600   6.188   6.403   6.407  0.8556 -0.6588  0.5160
   12MOL   C339 9601   6.163   6.406   6.561  0.2908 -0.1332  0.3985
   12MOL   C340 9602   6.222   6.524   6.636  1.0767 -0.5090 -0.2628
   12MOL   C341 9603   6.150   6.661   6.621  0.6891  0.2766  0.1284
   12MOL   C342 9604   6.227   6.782   6.661  0.8159 -0.2917  0.6988
   12MOL   C343 9605   6.174   6.915   6.623  1.1232 -0.4788  0.1117
   12MOL   C344 9606   6.209   6.940   6.472  0.2981 -0.0004  0.2221
   12MOL   C345 9607   6.170   7.073   6.409  0.0726 -0.0890 -0.4921
   12MOL   C346 9608   6.214   7.100   6.266  0.6227  0.4432 -0.4113
   12MOL   C347 9609   6.167   7.231   6.207 -0.3496  0.6512  0.5273
   12MOL   C348 9610   6.017   7.215   6.161  0.0545 -0.1773 -0.4229
   12MOL   C349 9611   5.968   7.351   6.092  0.0453  0.3912  0.0490
   12MOL   C350 9612   5.940   7.452   6.196 -0.3523  0.0202  0.4602
   12MOL   C351 9613   5.834   7.549   6.135 -0.0223 -0.3234 -0.3002
   12MOL   H352 9614   6.149   6.497   6.368 -1.4777 -1.9512 -0.3426
   12MOL   H353 9615   6.146   6.317   6.357  0.1683 -0.4706  0.7612
   12MOL   H354 9616   6.212   6.320   6.608 -1.4975 -1.8988 -0.8979
   12MOL   H355 9617   6.221   6.499   6.742 -1.1279 -2.2055 -0.6466
   12MOL   H356 9618   6.325   6.537   6.604  0.3978  0.4342 -2.1645
   12MOL   H357 9619   6.050   6.663   6.665  0.5670  2.2468 -0.1963
   12MOL   H358 9620   6.114   6.663   6.518 -2.2276 -0.9488  1.0747
   12MOL   H359 9621   6.333   6.779   6.638  1.2437 -0.7049  2.5775
   12MOL   H360 9622   6.219   6.774   6.770  1.5798  0.9560  0.8608
   12MOL   H361 9623   6.070   6.923   6.655  0.7167 -0.9875 -1.0645
   12MOL   H362 9624   6.231   6.990   6.678  1.2732 -0.7024  0.2628
   12MOL   H363 9625   6.316   6.921   6.460  0.0802 -1.7695  0.8771
   12MOL   H364 9626   6.161   6.857   6.420  0.5521  0.7215 -1.1830
   12MOL   H365 9627   6.063   7.085   6.429  0.4801 -1.2614  2.7404
   12MOL   H366 9628   6.218   7.152   6.467  0.1870  0.3746 -1.2157
   12MOL   H367 9629   6.322   7.089   6.264  0.3380 -3.4940  0.3045
   12MOL   H368 9630   6.179   7.020   6.201 -0.0600 -0.0262  0.5151
   12MOL   H369 9631   6.184   7.310   6.281 -0.7939  0.2183  1.0970
   12MOL   H370 9632   6.227   7.264   6.122  0.0630  0.0051  0.5593
   12MOL   H371 9633   5.948   7.176   6.235  1.7417 -0.9485  0.7778
   12MOL   H372 9634   6.013   7.137   6.084  2.0663 -0.7607  0.0327
   12MOL   H373 9635   5.879   7.318   6.038  1.7321  0.7820 -3.0891
   12MOL   H374 9636   6.037   7.389   6.017 -0.4983  0.5414 -0.3801
   12MOL   H375 9637   5.908   7.422   6.296  0.2239 -0.7790  0.4083
   12MOL   H376 9638   6.025   7.517   6.210  0.5780 -1.3667  1.4024
   12MOL   H377 9639   5.857   7.562   6.029  0.1856 -0.7365 -0.3040
   12MOL   H378 9640   5.729   7.520   6.146  0.0442 -2.1776 -3.7244
   12MOL   H379 9641   5.844   7.642   6.191 -1.4380 -0.6365  0.5090
   12MOL   C380 9642   6.013   6.379   6.579  0.2583 -0.9057 -0.0478
   12MOL   C381 9643   5.958   6.386   6.724  0.1537 -0.0493  0.3332
   12MOL   C382 9644   5.810   6.427   6.719  0.2745 -0.5723  0.3933
   12MOL   C383 9645   5.717   6.327   6.635  0.9274  0.3627  1.1440
   12MOL   C384 9646   5.568   6.360   6.638  0.1331 -0.0008 -0.3786
   12MOL   C385 9647   5.478   6.252   6.573  0.9230  0.0415  0.0636
   12MOL   C386 9648   5.456   6.123   6.655  0.6029  0.0525  0.4435
   12MOL   C387 9649   5.364   6.021   6.582  0.1676  0.2159 -0.0166
   12MOL   C388 9650   5.214   6.028   6.602  0.9208  0.3899  0.0796
   12MOL   C389 9651   5.141   5.895   6.613  0.2163 -0.3710 -0.1135
   12MOL   C390 9652   4.990   5.897   6.567 -0.0997  0.2683  0.3160
   12MOL   C391 9653   4.903   6.003   6.631  0.3744  0.4130 -0.1892
   12MOL   C392 9654   4.754   5.997   6.594  0.2119 -0.0007 -0.0579
   12MOL   C393 9655   4.683   5.884   6.673  0.5675  0.5231 -0.2423
   12MOL   H394 9656   5.987   6.282   6.536  1.5590 -1.0265 -0.5839
   12MOL   H395 9657   5.965   6.457   6.521 -1.7243 -2.8946 -1.1768
   12MOL   H396 9658   6.020   6.459   6.775 -0.0768  0.8960 -0.7349
   12MOL   H397 9659   5.791   6.526   6.678 -0.0625 -0.4059  0.9488
   12MOL   H398 9660   5.772   6.441   6.820  2.2681  2.3017  0.8147
   12MOL   H399 9661   5.744   6.223   6.658 -0.9859 -0.7474 -1.3992
   12MOL   H400 9662   5.748   6.316   6.531 -1.5018  1.2801  0.3052
   12MOL   H401 9663   5.559   6.446   6.571  0.9992 -0.5913 -1.2539
   12MOL   H402 9664   5.544   6.383   6.742 -1.4798 -1.2399 -0.4666
   12MOL   H403 9665   5.508   6.224   6.473 -1.2613  0.3435 -0.7145
   12MOL   H404 9666   5.379   6.296   6.562  0.7118  0.1687  2.1487
   12MOL   H405 9667   5.551   6.070   6.655  0.2555 -0.5815  0.0357
   12MOL   H406 9668   5.438   6.151   6.759  2.7489  0.6546  0.6575
   12MOL   H407 9669   5.379   6.015   6.475  0.8392 -1.5346  0.1530
   12MOL   H408 9670   5.405   5.927   6.620  0.6136  1.2766  2.2217
   12MOL   H409 9671   5.185   6.084   6.691 -0.9689 -0.7009  0.1786
   12MOL   H410 9672   5.170   6.075   6.514 -0.8234 -0.9512  0.2003
   12MOL   H411 9673   5.162   5.862   6.715 -0.8528  3.4487  1.4407
   12MOL   H412 9674   5.181   5.819   6.546  1.8432 -0.2039  0.6546
   12MOL   H413 9675   4.994   5.900   6.458  0.2346  1.0224  0.3483
   12MOL   H414 9676   4.947   5.799   6.586 -0.2280  0.5292  1.4459
   12MOL   H415 9677   4.939   6.101   6.599 -2.7502  1.9805  0.7498
   12MOL   H416 9678   4.913   6.025   6.738  1.1825  2.6078 -0.6882
   12MOL   H417 9679   4.703   6.091   6.618  0.6641  0.9353 -2.5946
   12MOL   H418 9680   4.738   5.999   6.486 -1.0375  0.4830  0.1312
   12MOL   H419 9681   4.574   5.882   6.667  0.2128  5.2390  2.4880
   12MOL   H420 9682   4.723   5.892   6.774  2.1652  0.9011 -0.8826
   12MOL   H421 9683   4.717   5.786   6.638  2.5586  1.4469 -1.0010
   12MOL   C422 9684   5.978   6.263   6.811 -0.8123  0.0895 -0.1171
   12MOL   C423 9685   5.966   6.293   6.968  0.0210  0.3577  0.1229
   12MOL   C424 9686   5.840   6.225   7.025 -0.1076  0.4758  0.1513
   12MOL   C425 9687   5.814   6.263   7.166  1.4213  0.4790 -0.0409
   12MOL   C426 9688   5.688   6.200   7.232  0.0267  0.7435  0.3030
   12MOL   C427 9689   5.665   6.234   7.381 -0.0517  0.4774  0.7383
   12MOL   C428 9690   5.724   6.144   7.482 -0.4936 -0.0353 -0.1814
   12MOL   C429 9691   5.707   6.192   7.628  0.2374  0.3678 -0.4175
   12MOL   C430 9692   5.770   6.099   0.033 -0.1236  0.4914 -0.2636
   12MOL   C431 9693   5.774   6.148   0.181  0.1187 -0.2177  0.2828
   12MOL   C432 9694   5.828   6.041   0.279 -0.4835 -0.2308  0.3567
   12MOL   C433 9695   5.827   6.080   0.431  0.5075 -0.6206 -0.2242
   12MOL   C434 9696   5.872   5.962   0.527  0.1002  0.0114  0.6786
   12MOL   C435 9697   6.013   5.912   0.517 -0.8089 -0.9335  0.2038
   12MOL   H436 9698   6.079   6.226   6.789 -0.1003  1.9062  0.0167
   12MOL   H437 9699   5.915   6.180   6.780 -2.3552  1.1539  0.0933
   12MOL   H438 9700   5.955   6.401   6.970 -3.3618  0.0473  1.2414
   12MOL   H439 9701   5.849   6.117   7.017 -2.6692  0.1309  1.3611
   12MOL   H440 9702   5.755   6.251   6.963 -1.1222 -1.1158  0.8440
   12MOL   H441 9703   5.900   6.224   7.220  0.1540 -2.7898 -0.2481
   12MOL   H442 9704   5.801   6.371   7.174  0.3666  0.4533 -1.1880
   12MOL   H443 9705   5.693   6.091   7.225  1.2032  0.4954  3.8244
   12MOL   H444 9706   5.601   6.233   7.176 -0.4727  1.9208  1.7287
   12MOL   H445 9707   5.556   6.238   7.385 -0.0540  2.0268 -0.4906
   12MOL   H446 9708   5.703   6.336   7.393  0.1080  0.6153 -0.8643
   12MOL   H447 9709   5.665   6.052   7.485  2.5194 -2.0186  0.7429
   12MOL   H448 9710   5.828   6.125   7.455  0.4413  2.5502  1.3810
   12MOL   H449 9711   5.762   6.285   7.642 -1.5634  1.5398 -0.9597
   12MOL   H450 9712   5.607   6.231   7.647  1.0057  3.5792 -2.6440
   12MOL   H451 9713   5.728   5.999   0.043  1.4608 -0.1007  0.8165
   12MOL   H452 9714   5.868   6.085   7.684 -0.8662 -4.7073 -0.6207
   12MOL   H453 9715   5.837   6.237   0.184  0.9505 -0.8069  0.7837
   12MOL   H454 9716   5.676   6.182   0.215  1.1085  2.3082  0.7284
   12MOL   H455 9717   5.776   5.946   0.270  0.4044 -0.7119  0.2687
   12MOL   H456 9718   5.933   6.024   0.257 -0.0671  2.0751  0.4091
   12MOL   H457 9719   5.733   6.116   0.473  1.1116 -0.3265  0.8660
   12MOL   H458 9720   5.892   6.167   0.441 -0.8640  0.2502  1.2995
   12MOL   H459 9721   5.873   6.013   0.624 -0.1197 -1.7104  1.6116
   12MOL   H460 9722   5.800   5.881   0.531 -0.5184  0.4818 -0.6768
   12MOL   H461 9723   6.031   5.873   0.417  0.2430  0.1527 -0.0387
   12MOL   H462 9724   6.047   5.838   0.589 -1.4730  0.7744  2.3145
   12MOL   H463 9725   6.074   5.999   0.539 -1.9609  0.3032 -1.3866
   12MOL   C464 9726   6.091   6.249   7.046 -0.4487 -0.0084 -0.5972
   12MOL   C465 9727   6.220   6.333   7.009 -0.4743 -0.2919 -0.2271
   12MOL   C466 9728   6.270   6.420   7.124  0.7835  0.4027 -0.6545
   12MOL   C467 9729   6.174   6.532   7.152  0.3788 -0.4907 -0.1409
   12MOL   C468 9730   6.181   6.647   7.044 -0.1569 -0.0751 -0.7679
   12MOL   C469 9731   6.117   6.773   7.068  0.0092 -0.7211  0.3097
   12MOL   C470 9732   5.962   6.770   7.056 -0.4900  0.2673  0.0664
   12MOL   C471 9733   5.913   6.755   6.908 -0.3262  0.2550 -0.0083
   12MOL   C472 9734   5.764   6.796   6.890  0.1124 -1.0544  0.4828
   12MOL   C473 9735   5.729   6.834   6.740 -0.1642  0.1174 -0.7604
   12MOL   C474 9736   5.578   6.847   6.713 -0.4397 -0.0066 -0.3354
   12MOL   C475 9737   5.522   6.977   6.785  0.2923 -0.1632  0.0246
   12MOL   C476 9738   5.380   7.013   6.748 -0.3529 -1.3892 -0.3733
   12MOL   C477 9739   5.339   7.134   6.830 -0.1255  0.2416  0.3224
   12MOL   H478 9740   6.120   6.146   7.025  0.0694  0.0629 -0.2603
   12MOL   H479 9741   6.080   6.264   7.154 -0.0156 -1.4353 -0.3347
   12MOL   H480 9742   6.211   6.409   6.931  1.7693  0.6268  0.3468
   12MOL   H481 9743   6.274   6.360   7.215 -0.5266  1.8964  0.4086
   12MOL   H482 9744   6.366   6.462   7.095  1.2700 -0.4636 -0.3366
   12MOL   H483 9745   6.188   6.577   7.250  2.2357 -1.4627  0.0576
   12MOL   H484 9746   6.070   6.504   7.167  0.8531 -2.2105 -0.0518
   12MOL   H485 9747   6.153   6.605   6.947 -0.8389  1.4755 -1.2624
   12MOL   H486 9748   6.285   6.677   7.031 -0.2017  0.4927  0.1285
   12MOL   H487 9749   6.131   6.800   7.173  1.1770 -0.6533  0.1382
   12MOL   H488 9750   6.167   6.850   7.010 -0.3845  1.8128  3.2053
   12MOL   H489 9751   5.906   6.700   7.118  0.3940  1.1525  1.8887
   12MOL   H490 9752   5.913   6.854   7.105  0.8296  0.0916  1.6960
   12MOL   H491 9753   5.970   6.823   6.844 -0.7169  2.4032  1.8600
   12MOL   H492 9754   5.924   6.650   6.884  1.2482  0.5302 -0.5151
   12MOL   H493 9755   5.707   6.709   6.921 -3.0686  1.0562  0.7772
   12MOL   H494 9756   5.738   6.882   6.951 -1.1780 -1.4141  0.4455
   12MOL   H495 9757   5.784   6.922   6.709 -0.9816  0.6092 -0.8367
   12MOL   H496 9758   5.769   6.753   6.680  1.8014 -0.0508  0.7459
   12MOL   H497 9759   5.558   6.867   6.608 -0.6467  2.3343  0.1193
   12MOL   H498 9760   5.525   6.754   6.733  1.1564 -0.9319 -0.3284
   12MOL   H499 9761   5.585   7.063   6.760 -1.5135  0.7960 -1.3524
   12MOL   H500 9762   5.529   6.959   6.892  1.6051 -0.7946 -0.1497
   12MOL   H501 9763   5.370   7.038   6.642  1.4105 -0.3397 -0.3069
   12MOL   H502 9764   5.324   6.923   6.770 -0.4543 -1.3106 -0.3117
   12MOL   H503 9765   5.324   7.098   6.932 -1.5642  0.1838  0.1000
   12MOL   H504 9766   5.417   7.210   6.834  1.0107 -0.8210 -1.0086
   12MOL   H505 9767   5.254   7.198   6.804 -1.5983 -1.4069  0.9881
   12MOL   C506 9768   6.336   6.248   6.948  0.4500  0.0653 -0.0836
   12MOL   C507 9769   6.404   6.140   7.030 -0.3737  0.0150  0.2683
   12MOL   C508 9770   6.395   6.007   6.958 -0.3565 -0.3696  0.2599
   12MOL   C509 9771   6.330   5.884   7.031  0.3341 -0.4034  1.0326
   12MOL   C510 9772   6.325   5.766   6.931 -0.2860  0.2789 -0.5221
   12MOL   C511 9773   6.296   5.633   7.004  0.8144 -0.5677  0.4013
   12MOL   C512 9774   6.329   5.506   6.916 -0.1147 -0.1683  0.9947
   12MOL   C513 9775   6.258   5.377   6.974  0.5391  0.0539 -0.2038
   12MOL   C514 9776   6.323   5.248   6.918 -0.1970  0.8927 -0.2050
   12MOL   C515 9777   6.462   5.214   6.977  0.0251 -0.3560 -0.1650
   12MOL   C516 9778   6.518   5.074   6.937  0.0808  0.1606  0.0167
   12MOL   C517 9779   6.663   5.049   6.951 -0.1124  0.3549 -0.2576
   12MOL   C518 9780   6.718   4.924   6.889  0.1060  0.5982 -0.0948
   12MOL   C519 9781   6.860   4.900   6.939  0.4965 -0.3706  0.5572
   12MOL   H520 9782   6.410   6.315   6.906  2.0391  0.1410  2.7120
   12MOL   H521 9783   6.282   6.205   6.863 -2.6666 -1.1956  2.3947
   12MOL   H522 9784   6.336   6.139   7.116  0.4950  1.1960  0.9892
   12MOL   H523 9785   6.342   6.022   6.864  1.6812  0.1501 -0.8147
   12MOL   H524 9786   6.491   5.979   6.915  0.8457  1.0443  1.9852
   12MOL   H525 9787   6.404   5.846   7.102  2.0700 -1.2245 -1.1648
   12MOL   H526 9788   6.239   5.906   7.087 -1.2622  0.1179 -1.6871
   12MOL   H527 9789   6.426   5.769   6.890 -0.1760  2.8993 -0.0892
   12MOL   H528 9790   6.262   5.795   6.847 -0.3496 -1.1639 -0.9941
   12MOL   H529 9791   6.189   5.627   7.023  0.4968  1.7989 -0.4929
   12MOL   H530 9792   6.343   5.623   7.102  1.0617  0.3610  0.3800
   12MOL   H531 9793   6.294   5.511   6.813 -3.0716  0.4029  1.9589
   12MOL   H532 9794   6.436   5.490   6.922 -0.0473 -0.6834 -1.3158
   12MOL   H533 9795   6.158   5.387   6.933  0.9673  2.4241 -0.7685
   12MOL   H534 9796   6.254   5.381   7.083  2.4517 -0.9310 -0.0865
   12MOL   H535 9797   6.340   5.262   6.811  2.0954 -0.1416  0.0084
   12MOL   H536 9798   6.261   5.160   6.934  1.9785 -0.5917  0.0696
   12MOL   H537 9799   6.526   5.300   6.956  0.5062  0.0415  2.8194
   12MOL   H538 9800   6.455   5.225   7.085 -0.4416  1.5460 -0.3648
   12MOL   H539 9801   6.461   5.007   7.001  0.6257 -2.3840 -2.0930
   12MOL   H540 9802   6.487   5.051   6.835 -0.2149  3.2978 -0.6660
   12MOL   H541 9803   6.687   5.032   7.056 -1.0448 -0.6517 -0.2041
   12MOL   H542 9804   6.710   5.146   6.936  0.4667  0.2370  0.7147
   12MOL   H543 9805   6.717   4.943   6.781 -0.5360 -1.3893 -0.4563
   12MOL   H544 9806   6.658   4.837   6.915 -1.1039  0.3529 -3.4644
   12MOL   H545 9807   6.925   4.987   6.931 -0.2475  0.1356 -0.0232
   12MOL   H546 9808   6.855   4.874   7.045  1.5017 -1.5496  0.3191
   12MOL   H547 9809   6.909   4.819   6.885  0.3275 -1.6876  2.3134
   12MOL   C548 9810   6.543   6.189   7.099 -0.2554  0.3243 -0.2653
   12MOL   C549 9811   6.593   6.103   7.216 -0.1512 -0.2592  0.0770
   12MOL   C550 9812   6.748   6.124   7.231  0.5740  0.7771  0.4743
   12MOL   C551 9813   6.823   6.028   7.142  0.3638  0.0009  0.1067
   12MOL   C552 9814   6.973   6.052   7.150  0.3123  0.3829 -0.4087
   12MOL   C553 9815   7.061   5.946   7.082  0.2280  0.7235  0.6072
   12MOL   C554 9816   7.213   6.001   7.089  0.2015  0.4451  0.0406
   12MOL   C555 9817   7.308   5.919   7.004  0.1427  0.1292 -0.6256
   12MOL   C556 9818   7.451   5.983   7.006 -0.4697 -0.4904 -0.4711
   12MOL   C557 9819   7.530   5.884   6.922  0.4233 -0.5092 -0.0647
   12MOL   C558 9820   7.647   5.965   6.864  0.0969 -0.0038  0.3638
   12MOL   C559 9821   0.073   5.875   6.837  0.4563  0.2722 -1.1103
   12MOL   C560 9822   0.051   5.787   6.712 -1.4645  0.0136 -0.0903
   12MOL   C561 9823   0.177   5.719   6.661  0.2773  0.8421 -0.2797
   12MOL   H562 9824   6.608   6.187   7.011 -1.4920 -2.6289 -1.1482
   12MOL   H563 9825   6.541   6.293   7.131  0.0009 -0.0786  1.1249
   12MOL   H564 9826   6.574   5.998   7.193 -0.4417 -0.0319 -0.7643
   12MOL   H565 9827   6.785   6.221   7.198  2.9717 -0.4739 -0.6859
   12MOL   H566 9828   6.773   6.120   7.337 -0.9846 -0.1281  0.8165
   12MOL   H567 9829   6.794   6.029   7.036 -1.1186  0.2451  0.5035
   12MOL   H568 9830   6.809   5.927   7.181  0.9225 -0.3023 -0.4749
   12MOL   H569 9831   6.998   6.149   7.108 -0.7470  1.0445  0.4610
   12MOL   H570 9832   7.001   6.046   7.255 -3.3244 -0.5137  0.5857
   12MOL   H571 9833   7.044   5.929   6.976  1.6191  0.1787  0.4510
   12MOL   H572 9834   7.052   5.851   7.134 -0.7073  1.6879  2.2287
   12MOL   H573 9835   7.213   6.105   7.055 -1.6478  0.4709  0.0389
   12MOL   H574 9836   7.242   5.990   7.193 -2.8133 -2.5486  0.6399
   12MOL   H575 9837   7.272   5.937   6.903 -0.6862  0.0465 -0.3484
   12MOL   H576 9838   7.307   5.814   7.032 -0.6616  0.9674  2.6733
   12MOL   H577 9839   7.494   5.990   7.106 -0.3728 -1.6191 -0.4257
   12MOL   H578 9840   7.455   6.081   6.958 -1.0299 -0.5554 -0.6484
   12MOL   H579 9841   7.564   5.798   6.980  0.9058 -0.4593 -0.2721
   12MOL   H580 9842   7.469   5.850   6.838 -0.8888 -0.5852  0.8963
   12MOL   H581 9843   7.674   6.043   6.935  2.1428 -1.5019  1.2777
   12MOL   H582 9844   7.625   6.015   6.770  1.3490 -0.4258 -0.1764
   12MOL   H583 9845   0.161   5.939   6.846  1.1629 -0.8365 -0.0109
   12MOL   H584 9846   0.069   5.814   6.927  1.2998 -1.1745 -2.0463
   12MOL   H585 9847   7.667   5.721   6.746 -2.6575 -0.2986 -3.3301
   12MOL   H586 9848   0.010   5.850   6.633 -1.8111  0.3030  0.3134
   12MOL   H587 9849   0.160   5.680   6.561  0.1021 -1.9064  0.7798
   12MOL   H588 9850   0.265   5.783   6.656 -0.7234  2.2917  0.3184
   12MOL   H589 9851   0.204   5.629   6.716 -0.1414  2.0701  2.0051
   12MOL   C590 9852   6.527   6.128   7.351  0.2394 -0.4205  1.1020
   12MOL   C591 9853   6.483   6.000   7.420 -0.2730  0.4601  0.1031
   12MOL   C592 9854   6.609   5.929   7.481  0.4724  0.8043 -0.1360
   12MOL   C593 9855   6.594   5.781   7.485 -0.3642 -0.0817  0.6133
   12MOL   C594 9856   6.712   5.715   7.553 -0.0407 -0.2401 -0.0488
   12MOL   C595 9857   6.683   5.571   7.596 -0.5678 -0.7550  0.4894
   12MOL   C596 9858   6.802   5.486   7.643 -0.4961 -0.3409  0.0006
   12MOL   C597 9859   6.764   5.339   7.673 -0.3335  0.3514 -0.6493
   12MOL   C598 9860   6.884   5.241   7.689 -0.1122 -0.0731  0.6536
   12MOL   C599 9861   6.849   5.097   0.039  0.6214  0.3533 -0.0568
   12MOL   C600 9862   6.963   5.001   0.021 -0.2548  0.3456  0.2668
   12MOL   C601 9863   6.941   4.879   0.114  0.1017  0.3844 -0.6458
   12MOL   C602 9864   7.037   4.760   0.090  0.6629 -0.3792  0.4485
   12MOL   C603 9865   6.969   4.627   0.129  0.6544 -0.1806  0.0631
   12MOL   H604 9866   6.437   6.184   7.326 -0.6678 -2.4708 -0.4737
   12MOL   H605 9867   6.591   6.181   7.421  2.6567 -0.1766 -1.2329
   12MOL   H606 9868   6.429   5.929   7.356 -2.2608  1.3450  0.7821
   12MOL   H607 9869   6.626   5.979   7.576 -0.3449  1.5357 -0.3709
   12MOL   H608 9870   6.696   5.943   7.415  0.9888 -0.0617  0.3486
   12MOL   H609 9871   6.580   5.729   7.390 -1.1026  0.0865  0.6259
   12MOL   H610 9872   6.513   5.757   7.555  1.0004 -0.0120  2.2483
   12MOL   H611 9873   6.748   5.775   7.636  0.8593  0.6612 -1.0730
   12MOL   H612 9874   6.803   5.718   7.493  0.9673  0.0371  1.4731
   12MOL   H613 9875   6.633   5.514   7.518 -1.1832  0.9984 -0.4180
   12MOL   H614 9876   6.611   5.589   7.676 -0.4237 -2.0826  0.9294
   12MOL   H615 9877   6.878   5.492   7.565  0.1625 -0.8458  0.5878
   12MOL   H616 9878   6.850   5.536   0.032  0.2399  1.5118 -1.4665
   12MOL   H617 9879   6.709   5.334   0.071  0.5453 -1.9817 -0.2333
   12MOL   H618 9880   6.709   5.290   7.593 -0.6977 -1.6167  0.7685
   12MOL   H619 9881   6.934   5.246   7.592  2.4491  2.8651  2.0412
   12MOL   H620 9882   6.956   5.282   0.064  3.6776 -2.7445 -1.4675
   12MOL   H621 9883   6.814   5.091   0.142 -0.0724 -0.5232 -0.3397
   12MOL   H622 9884   6.762   5.060   7.680  0.8154  0.6340 -0.5639
   12MOL   H623 9885   7.053   5.049   0.058  1.6037  0.0586 -3.6199
   12MOL   H624 9886   6.980   4.965   7.615 -2.3296 -2.7618  0.9587
   12MOL   H625 9887   6.840   4.844   0.090  0.4193 -0.4721 -0.7482
   12MOL   H626 9888   6.928   4.915   0.216  0.2978 -0.6293 -0.2635
   12MOL   H627 9889   7.076   4.758   7.684  0.9532  3.1651  0.4567
   12MOL   H628 9890   7.125   4.767   0.154 -0.9061  1.2107  2.4978
   12MOL   H629 9891   6.961   4.618   0.238 -3.7206 -0.3675 -0.1749
   12MOL   H630 9892   7.014   4.537   0.088  2.6291 -0.1107  1.9982
   12MOL   H631 9893   6.869   4.629   0.086 -0.2286 -2.2715  1.8915
   12MOL   C632 9894   6.387   6.033   7.541  0.7924 -0.7453 -0.3385
   12MOL   C633 9895   6.261   6.118   7.517  0.2571 -0.6095 -0.2435
   12MOL   C634 9896   6.165   6.057   7.414 -0.3604  0.1196 -0.3825
   12MOL   C635 9897   6.132   5.909   7.440  0.5997 -0.4624 -0.6495
   12MOL   C636 9898   6.033   5.857   7.335  0.3864  0.1762 -0.1932
   12MOL   C637 9899   6.037   5.713   7.328 -0.0543  0.1191 -0.3635
   12MOL   C638 9900   5.916   5.652   7.259  0.5413  1.2804  0.3257
   12MOL   C639 9901   5.931   5.512   7.211 -0.1998  0.3096 -0.0793
   12MOL   C640 9902   5.929   5.394   7.315  0.4623 -0.4986 -0.1090
   12MOL   C641 9903   5.933   5.257   7.247 -0.0982  0.8414  0.2375
   12MOL   C642 9904   6.001   5.146   7.337 -0.0303 -0.0783  0.0972
   12MOL   C643 9905   5.916   5.123   7.461 -0.0989  0.0583 -0.5436
   12MOL   C644 9906   5.950   5.002   7.546 -0.6938  0.1692  0.2911
   12MOL   C645 9907   5.888   4.883   7.475  0.2575  0.0050 -0.0560
   12MOL   H646 9908   6.447   6.093   7.610 -0.7664  1.9078 -1.2077
   12MOL   H647 9909   6.363   5.941   7.595  0.2819 -0.6084 -0.3293
   12MOL   H648 9910   6.286   6.211   7.466  0.8813  1.0544  2.9986
   12MOL   H649 9911   6.067   6.105   7.407 -1.0615 -1.3679 -1.2402
   12MOL   H650 9912   6.208   6.063   7.314 -1.4874  0.0419 -0.8898
   12MOL   H651 9913   6.123   5.877   7.544  0.4998 -3.3986 -1.5081
   12MOL   H652 9914   6.230   5.868   7.413  1.3764 -0.1698  1.6219
   12MOL   H653 9915   6.036   5.905   7.237 -4.9737  1.4695  0.1025
   12MOL   H654 9916   5.936   5.880   7.381 -0.0233  1.2613 -1.5676
   12MOL   H655 9917   6.117   5.696   7.256  0.0383 -0.0614 -0.2180
   12MOL   H656 9918   6.054   5.666   7.425 -0.0808 -0.3573 -0.5892
   12MOL   H657 9919   5.822   5.662   7.314  0.3353  1.9763 -0.1542
   12MOL   H658 9920   5.887   5.712   7.173 -0.6303  1.2446  0.6762
   12MOL   H659 9921   6.029   5.502   7.165 -0.7762 -1.5321 -0.9798
   12MOL   H660 9922   5.863   5.500   7.126  0.0772  0.2125 -0.2865
   12MOL   H661 9923   5.833   5.402   7.366  1.2933 -0.8756  1.5397
   12MOL   H662 9924   6.006   5.415   7.389 -2.3940  2.1214  2.2907
   12MOL   H663 9925   5.831   5.229   7.223  1.0539 -2.5842 -0.9861
   12MOL   H664 9926   5.984   5.261   7.151 -2.3594 -1.0398 -1.0983
   12MOL   H665 9927   6.008   5.053   7.282  1.0692  0.9972 -1.6377
   12MOL   H666 9928   6.101   5.168   7.376  0.0293 -0.4928  0.1798
   12MOL   H667 9929   5.809   5.114   7.445 -0.7297  2.2970  2.0741
   12MOL   H668 9930   5.926   5.213   7.522  0.5984 -0.7054  0.5032
   12MOL   H669 9931   5.889   5.002   7.637 -2.5076 -1.6264 -0.8857
   12MOL   H670 9932   6.052   5.009   7.584 -0.2710  1.6778 -1.0521
   12MOL   H671 9933   5.892   4.789   7.530  1.3295 -0.9803 -1.7355
   12MOL   H672 9934   5.797   4.897   7.417  0.4228  1.2523 -0.0429
   12MOL   H673 9935   5.948   4.850   7.390 -0.6947  1.7506 -1.4319
   12MOL   C674 9936   6.198   6.147   7.657  0.4719  0.1092 -0.2962
   12MOL   C675 9937   6.260   6.255   0.052 -0.0181 -0.8256  0.1615
   12MOL   C676 9938   6.167   6.372   0.075 -0.0238 -0.1395 -0.0748
   12MOL   C677 9939   6.119   6.450   7.647 -0.8676  0.7885 -0.3041
   12MOL   C678 9940   5.984   6.517   7.683  0.1786 -0.5253  0.1395
   12MOL   C679 9941   5.918   6.600   7.566 -0.0445 -0.1464 -0.3000
   12MOL   C680 9942   5.767   6.614   7.567 -1.1008 -0.3161  0.3405
   12MOL   C681 9943   5.714   6.707   7.455 -0.0136 -0.3286  0.1227
   12MOL   C682 9944   5.580   6.658   7.396 -0.0036  0.2893 -0.1377
   12MOL   C683 9945   5.530   6.736   7.272  0.5546 -0.4590  0.4682
   12MOL   C684 9946   5.413   6.669   7.205  0.5670  0.0030 -0.5431
   12MOL   C685 9947   5.381   6.731   7.066 -0.0896 -0.4295 -0.2455
   12MOL   C686 9948   5.268   6.673   6.983  0.4112 -0.0969 -0.4151
   12MOL   C687 9949   5.289   6.531   6.910 -0.3347  0.4963 -0.1482
   12MOL   H688 9950   6.179   6.057   0.020  0.7029 -0.4363 -1.0424
   12MOL   H689 9951   6.095   6.175   7.637  0.2748 -0.3514  0.0807
   12MOL   H690 9952   6.339   6.295   7.684 -1.8979  1.3365 -0.9231
   12MOL   H691 9953   6.079   6.326   0.122  1.2304 -3.3665 -0.8056
   12MOL   H692 9954   6.209   6.444   0.145  1.4843 -0.6290 -0.4656
   12MOL   H693 9955   6.192   6.527   7.622  1.0302 -0.1612  2.1031
   12MOL   H694 9956   6.119   6.380   7.564 -1.4512  1.3205 -0.7638
   12MOL   H695 9957   5.915   6.438   0.019  0.6884 -1.2893 -0.6420
   12MOL   H696 9958   6.002   6.583   0.071  0.0155 -0.0414 -0.2076
   12MOL   H697 9959   5.955   6.700   7.587  0.7487 -0.6123  0.5646
   12MOL   H698 9960   5.952   6.554   7.473 -0.1071  0.9625 -0.8778
   12MOL   H699 9961   5.709   6.522   7.580 -1.7189 -0.0076 -0.2081
   12MOL   H700 9962   5.737   6.667   7.657  1.8503  1.2601  0.4370
   12MOL   H701 9963   5.710   6.810   7.491 -0.1106 -0.2947  0.0124
   12MOL   H702 9964   5.792   6.722   7.380 -0.5261 -0.4836 -0.4362
   12MOL   H703 9965   5.588   6.553   7.369 -1.0946 -0.0363  0.7324
   12MOL   H704 9966   5.510   6.671   7.479 -0.3027  0.2923 -0.3892
   12MOL   H705 9967   5.605   6.754   7.194  1.1467 -2.6223  0.5223
   12MOL   H706 9968   5.502   6.840   7.290  0.8025 -0.1463 -0.8646
   12MOL   H707 9969   5.328   6.670   7.274  0.9648  1.6121 -0.0633
   12MOL   H708 9970   5.446   6.568   7.177  2.2748  0.5347 -0.4896
   12MOL   H709 9971   5.471   6.732   7.005 -0.7787 -1.0317 -1.3134
   12MOL   H710 9972   5.361   6.837   7.081  3.0216  0.0271  0.9683
   12MOL   H711 9973   5.174   6.672   7.037  1.0159  1.9191  0.6942
   12MOL   H712 9974   5.237   6.750   6.912  0.2521  0.0010 -0.2391
   12MOL   H713 9975   5.294   6.449   6.982  2.2300  2.4959  2.0798
   12MOL   H714 9976   5.207   6.513   6.841 -1.4169  3.0259  0.4336
   12MOL   H715 9977   5.377   6.527   6.846 -2.4059  0.2463 -3.0706
   12MOL   C716 9978   6.309   6.185   0.183  0.1588  0.3991  0.1146
   12MOL   C717 9979   6.424   6.256   0.272  0.2390 -0.2488  0.1837
   12MOL   C718 9980   6.426   6.184   0.410 -0.1657  0.1101 -0.2179
   12MOL   C719 9981   6.296   6.145   0.485 -0.8798  0.3117 -0.6133
   12MOL   C720 9982   6.305   6.106   0.637 -0.1751 -0.7817  0.5770
   12MOL   C721 9983   6.341   5.958   0.664 -0.6585  0.3655 -0.3841
   12MOL   C722 9984   6.493   5.935   0.700  0.1473 -0.2113  0.0578
   12MOL   C723 9985   6.516   5.799   0.755  0.0628 -0.0925 -0.0187
   12MOL   C724 9986   6.659   5.771   0.797 -0.6463  1.2812 -0.0160
   12MOL   C725 9987   6.761   5.760   0.684 -0.0198  0.0964  0.3499
   12MOL   C726 9988   6.907   5.745   0.739 -0.5298  0.3056  0.8930
   12MOL   C727 9989   6.977   5.639   0.669  0.0548  0.2380 -0.2665
   12MOL   C728 9990   7.119   5.624   0.723  0.2889 -0.2241  0.0924
   12MOL   C729 9991   7.205   5.547   0.631 -0.6303  0.3896 -0.4791
   12MOL   H730 9992   6.218   6.153   0.234  1.6190 -2.4451  1.0120
   12MOL   H731 9993   6.353   6.092   0.146  0.0889 -0.0827  1.2497
   12MOL   H732 9994   6.385   6.355   0.295 -1.4377 -0.5901 -1.1269
   12MOL   H733 9995   6.481   6.265   0.456  2.5728 -1.5258 -0.5229
   12MOL   H734 9996   6.492   6.098   0.405  0.9448  0.9702 -0.4939
   12MOL   H735 9997   6.247   6.242   0.479  1.2967  1.5133  0.3928
   12MOL   H736 9998   6.243   6.070   0.426  2.0574 -1.8458 -0.6629
   12MOL   H737 9999   6.357   6.182   0.696 -0.7855  0.3667 -0.3400
   12MOL   H73810000   6.200   6.113   0.669  0.0143 -0.6177  1.1748
   12MOL   H73910001   6.276   5.936   0.750 -0.5869 -0.0851 -0.4439
   12MOL   H74010002   6.312   5.897   0.578 -1.9143 -2.2666  1.8091
   12MOL   H74110003   6.561   5.953   0.616  0.7413 -2.8816 -0.0766
   12MOL   H74210004   6.511   6.012   0.775  2.0352 -1.0207  0.4848
   12MOL   H74310005   6.486   5.723   0.682 -1.4233 -0.3000  0.8028
   12MOL   H74410006   6.448   5.793   0.840 -0.5558  1.7222 -0.3684
   12MOL   H74510007   6.688   5.848   0.869  1.0891 -1.3620  2.1930
   12MOL   H74610008   6.658   5.681   0.857 -3.3343 -0.9017 -3.1841
   12MOL   H74710009   6.729   5.679   0.619 -0.1257  2.7375 -3.0528
   12MOL   H74810010   6.747   5.852   0.626 -2.6031 -0.1941  0.4316
   12MOL   H74910011   6.950   5.844   0.728 -1.5628  0.6945  0.3819
   12MOL   H75010012   6.903   5.722   0.846  0.6589  0.1521  0.9141
   12MOL   H75110013   6.913   5.551   0.679  0.2963  0.0054 -0.7148
   12MOL   H75210014   6.986   5.661   0.562 -1.8461  0.2691 -0.4389
   12MOL   H75310015   7.125   5.577   0.821 -0.3508 -0.2358  0.1258
   12MOL   H75410016   7.173   5.719   0.724  2.4438 -1.4295 -0.7215
   12MOL   H75510017   7.157   5.451   0.614  1.4865 -0.1238 -4.0787
   12MOL   H75610018   7.293   5.525   0.691 -0.6992 -2.4418 -1.3286
   12MOL   H75710019   7.227   5.588   0.532 -1.2647  0.8402 -0.4367
   12MOL   C75810020   6.566   6.275   0.196 -0.9648  0.0382 -0.0040
   12MOL   C75910021   6.666   6.371   0.274 -0.6325  0.4767 -0.7948
   12MOL   C76010022   6.802   6.392   0.212  0.3241 -0.6491  0.8986
   12MOL   C76110023   6.920   6.426   0.308  0.0075 -0.4475 -0.1757
   12MOL   C76210024   7.057   6.429   0.237 -0.1418  0.4198 -0.5285
   12MOL   C76310025   7.128   6.301   0.258  0.3684 -0.7247  0.3680
   12MOL   C76410026   7.264   6.296   0.184  0.5259  0.1378  0.2769
   12MOL   C76510027   7.380   6.372   0.249 -0.5561  0.1540 -0.5253
   12MOL   C76610028   7.513   6.317   0.193  0.8084 -0.6577  0.0431
   12MOL   C76710029   7.637   6.367   0.276 -0.5887 -0.0357 -0.3293
   12MOL   C76810030   0.075   6.319   0.218  0.4563 -0.7324  0.2313
   12MOL   C76910031   0.189   6.369   0.319  0.2306 -0.2661  0.4788
   12MOL   C77010032   0.335   6.348   0.271 -0.3599  0.4014 -0.2871
   12MOL   C77110033   0.364   6.445   0.162  0.7506  0.1329 -0.4350
   12MOL   H77210034   6.621   6.187   0.163  0.9995  1.3070 -0.1486
   12MOL   H77310035   6.547   6.326   0.102  0.6922  0.1672 -0.2749
   12MOL   H77410036   6.677   6.319   0.369 -1.0730  0.9922 -0.4610
   12MOL   H77510037   6.836   6.310   0.149  3.8626  1.2018  0.2555
   12MOL   H77610038   6.793   6.470   0.137 -0.4931 -1.3648  0.2411
   12MOL   H77710039   6.899   6.525   0.348 -0.0642 -0.4973 -0.0870
   12MOL   H77810040   6.929   6.362   0.397 -1.1087  1.1806  1.1408
   12MOL   H77910041   7.108   6.514   0.282  0.9848  0.3406 -1.6259
   12MOL   H78010042   7.050   6.465   0.134 -1.8627  0.9747 -0.2487
   12MOL   H78110043   7.072   6.214   0.223  2.3696 -1.2056 -1.7277
   12MOL   H78210044   7.139   6.275   0.363  0.7377 -1.0519  0.2503
   12MOL   H78310045   7.296   6.192   0.183  0.3798  0.0900  0.7205
   12MOL   H78410046   7.239   6.320   0.080 -0.3959 -0.3151  0.3888
   12MOL   H78510047   7.388   6.364   0.357 -2.2598  2.4634 -0.1995
   12MOL   H78610048   7.376   6.479   0.232  0.7255  0.3004 -0.0081
   12MOL   H78710049   7.527   6.341   0.088 -4.2851  0.1608 -0.5756
   12MOL   H78810050   7.520   6.208   0.198  0.8542 -0.6635 -0.1481
   12MOL   H78910051   7.622   6.327   0.376 -2.6959  2.6903  0.5028
   12MOL   H79010052   7.634   6.476   0.286  1.5198  0.0695 -0.6458
   12MOL   H79110053   0.083   6.211   0.208  2.5592 -0.4371 -1.9190
   12MOL   H79210054   0.097   6.364   0.121 -0.5526  0.8295  0.7104
   12MOL   H79310055   0.173   6.474   0.345  0.9799  0.1387 -0.6799
   12MOL   H79410056   0.183   6.321   0.416 -1.2037  1.4776  1.2826
   12MOL   H79510057   0.398   6.367   0.358 -2.5485 -0.0366  1.4732
   12MOL   H79610058   0.342   6.244   0.239 -0.2085  0.7441 -1.3916
   12MOL   H79710059   0.329   6.542   0.197 -3.0989 -1.6364  0.9165
   12MOL   H79810060   0.469   6.453   0.133  0.6476 -0.3964 -0.9586
   12MOL   H79910061   0.305   6.410   0.078  1.6158 -3.1522  0.2423
   12MOL   C80010062   6.602   6.499   0.319 -0.8621  0.3957  0.3976
   12MOL   C80110063   6.558   6.595   0.208  0.8055 -0.8196  0.2444
   12MOL   C80210064   6.481   6.723   0.251 -0.9612  0.1625  0.1457
   12MOL   C80310065   6.433   6.825   0.148 -0.0128  0.0748 -0.0676
   12MOL   C80410066   6.379   6.951   0.201  0.1840 -0.1287  1.0678
   12MOL   C80510067   6.243   6.933   0.262 -0.0476  0.3107  1.2026
   12MOL   C80610068   6.159   7.066   0.256  0.1926  0.3373 -0.1590
   12MOL   C80710069   6.011   7.063   0.304 -0.4820  0.3840 -0.2296
   12MOL   C80810070   5.934   6.968   0.211  0.1561 -0.9481 -0.8857
   12MOL   C80910071   5.781   6.993   0.225 -0.2936 -0.6007  0.2804
   12MOL   C81010072   5.701   6.908   0.122  0.5338 -0.6261  0.5225
   12MOL   C81110073   5.550   6.938   0.119 -0.1021  0.9599  0.4536
   12MOL   C81210074   5.469   6.834   0.032  0.7492  0.7445 -0.5995
   12MOL   C81310075   5.317   6.867   0.055  0.3009 -1.2044  0.0593
   12MOL   H81410076   6.677   6.549   0.381  0.7029 -0.5981 -0.6634
   12MOL   H81510077   6.521   6.477   0.389 -1.0241 -0.7119 -0.1248
   12MOL   H81610078   6.489   6.542   0.142 -1.1354  0.1917  1.4264
   12MOL   H81710079   6.546   6.769   0.326  0.3085  0.2631 -0.9995
   12MOL   H81810080   6.385   6.695   0.295 -1.6188 -0.0177 -1.3997
   12MOL   H81910081   6.370   6.771   0.077  0.8813  0.6955 -1.3650
   12MOL   H82010082   6.522   6.840   0.087  0.5173  1.3479  0.9852
   12MOL   H82110083   6.443   7.004   0.272  1.4781  0.4114 -0.4764
   12MOL   H82210084   6.358   7.020   0.119 -0.8800 -0.0684  1.3880
   12MOL   H82310085   6.247   6.911   0.368 -1.2863  2.0785  1.6497
   12MOL   H82410086   6.182   6.855   0.215 -1.5469  2.3587 -0.3659
   12MOL   H82510087   6.213   7.149   0.302  1.0654  0.0887 -0.7056
   12MOL   H82610088   6.154   7.094   0.151  2.1525  1.6730  0.0706
   12MOL   H82710089   5.993   7.026   0.406 -1.5127 -1.4158 -1.0320
   12MOL   H82810090   5.978   7.166   0.297 -2.8667 -0.4297 -1.6041
   12MOL   H82910091   5.967   6.981   0.108  0.2795 -2.7214 -1.0858
   12MOL   H83010092   5.956   6.869   0.251  0.0024 -0.6196  0.0446
   12MOL   H83110093   5.762   7.099   0.209 -1.7959 -1.0063 -0.8125
   12MOL   H83210094   5.750   6.956   0.323  0.4000 -2.9718 -0.3531
   12MOL   H83310095   5.738   6.910   0.019 -1.1185 -2.6638 -0.1569
   12MOL   H83410096   5.699   6.803   0.152  1.0796  0.3523  4.2313
   12MOL   H83510097   5.524   7.039   0.085 -3.0706  0.5927  1.5181
   12MOL   H83610098   5.514   6.940   0.222  2.5429  0.9068  1.4091
   12MOL   H83710099   5.492   6.841   7.621  0.5954 -0.4622 -0.7152
   12MOL   H83810100   5.488   6.730   0.058 -0.3519  0.9258  0.9497
   12MOL   H83910101   5.299   6.882   0.161  2.5151 -0.5533  0.3646
   12MOL   H84010102   5.278   6.958   0.009  1.0458 -1.0303 -0.2266
   12MOL   H84110103   5.252   6.785   0.024 -1.0161  0.0966 -0.7189
   12MOL   H84210104   6.647   6.627   0.154  1.1172 -0.1901  1.1249
   13MOL     C110105   7.082   3.927   0.285 -0.2435  0.3441 -0.6818
   13MOL     C210106   7.098   3.773   0.266 -0.7837  0.3809 -0.2173
   13MOL     C310107   7.063   3.728   0.121 -0.2942  0.3005  0.2140
   13MOL     C410108   7.025   3.579   0.106 -0.1646  0.1408  0.5825
   13MOL     C510109   7.012   3.536   7.653 -0.1281  0.3556 -0.2343
   13MOL     C610110   6.993   3.381   7.644 -0.0403  0.3014  0.7305
   13MOL     C710111   7.024   3.307   7.513  0.4285  0.8212 -0.2814
   13MOL     C810112   6.982   3.160   7.516  0.1465 -0.7177 -0.6427
   13MOL     C910113   7.051   3.086   7.402 -0.2053  0.5236  0.3145
   13MOL    C1010114   7.100   2.939   7.425 -0.2078 -0.2843  0.1656
   13MOL    C1110115   6.988   2.845   7.464 -0.8734 -0.6586  0.0495
   13MOL    C1210116   6.894   2.796   7.350 -0.2135 -0.0515 -0.8673
   13MOL    C1310117   6.829   2.657   7.370 -0.7884  0.5590 -0.3872
   13MOL    C1410118   6.746   2.619   7.244 -0.4070  0.2136 -0.7258
   13MOL    H1510119   7.076   3.961   0.389 -0.0083 -0.0597 -0.5340
   13MOL    H1610120   6.991   3.962   0.237 -0.1825  2.2325  0.4961
   13MOL    H1710121   7.030   3.720   0.332 -0.6997 -0.7806 -1.0602
   13MOL    H1810122   6.979   3.793   0.097  1.1511  1.1528 -2.7855
   13MOL    H1910123   7.139   3.759   0.048 -0.9146  0.7040 -0.2631
   13MOL    H2010124   6.931   3.571   0.161  0.4507 -0.5828  1.5445
   13MOL    H2110125   7.094   3.511   0.156  0.6493  0.9931  0.6355
   13MOL    H2210126   7.094   3.568   7.590 -1.5768  0.7853 -1.9484
   13MOL    H2310127   6.938   3.594   7.597 -2.0686 -1.1160  0.7246
   13MOL    H2410128   6.893   3.366   7.685 -0.0794 -0.7614  0.2741
   13MOL    H2510129   7.051   3.330   0.026 -0.3624  2.7837  2.6673
   13MOL    H2610130   6.967   3.344   7.429  3.9499  1.0240 -2.6905
   13MOL    H2710131   7.131   3.327   7.501  0.4462  1.5202  0.8955
   13MOL    H2810132   6.875   3.143   7.514  0.3648 -2.3352  0.8978
   13MOL    H2910133   7.002   3.116   7.613 -0.0848  1.0715  0.2504
   13MOL    H3010134   6.976   3.106   7.326 -1.5804 -1.3753  1.1429
   13MOL    H3110135   7.139   3.146   7.379  0.3941  0.4747  2.3756
   13MOL    H3210136   7.153   2.906   7.336 -2.9192 -0.7901 -1.3289
   13MOL    H3310137   7.166   2.932   7.512  3.1503  0.9518 -2.1644
   13MOL    H3410138   7.029   2.753   7.505 -0.9578 -1.0436 -0.7282
   13MOL    H3510139   6.941   2.891   7.551 -0.4153  3.0844 -1.5449
   13MOL    H3610140   6.946   2.788   7.255  1.5747 -4.2636  0.3461
   13MOL    H3710141   6.810   2.864   7.335 -0.0610  0.2934 -0.1778
   13MOL    H3810142   6.909   2.584   7.380 -1.2245  0.1762  0.3880
   13MOL    H3910143   6.753   2.656   7.449 -0.7152 -0.3902 -0.3198
   13MOL    H4010144   6.801   2.612   7.150 -0.8859 -2.6382 -0.8543
   13MOL    H4110145   6.696   2.522   7.253  0.7955 -0.4741 -1.3544
   13MOL    H4210146   6.664   2.686   7.220  1.4922  1.6711 -3.3613
   13MOL    H4310147   7.168   3.987   0.254  0.1818 -0.2654 -0.6974
   13MOL    C4410148   7.244   3.735   0.312  0.5635  0.3351 -0.1814
   13MOL    C4510149   7.284   3.745   0.461  0.1772 -0.0305 -0.1593
   13MOL    C4610150   7.435   3.744   0.491  0.4375 -0.2242 -1.0525
   13MOL    C4710151   7.507   3.864   0.426 -0.2257 -0.5116 -0.5937
   13MOL    C4810152   7.648   3.884   0.488  0.2133  0.6184  0.2512
   13MOL    C4910153   7.646   3.953   0.632  0.6151 -0.6989 -0.2105
   13MOL    C5010154   0.095   3.962   0.686 -0.4350  0.1331  0.6815
   13MOL    C5110155   0.107   4.021   0.835  0.0561 -0.8927 -0.4903
   13MOL    C5210156   0.057   4.165   0.843  0.6280 -0.1287  0.2831
   13MOL    C5310157   0.104   4.231   0.968 -0.3077  0.2135 -0.3194
   13MOL    C5410158   0.053   4.370   0.999 -0.3045  0.8105  1.0481
   13MOL    C5510159   0.093   4.420   1.137  0.6630 -0.0630  0.1827
   13MOL    C5610160   7.684   4.420   1.257 -0.1972  0.2033 -0.2729
   13MOL    C5710161   0.043   4.494   1.382  0.0318  0.1536 -1.0255
   13MOL    H5810162   7.248   3.630   0.282 -1.4375  0.5969 -1.5406
   13MOL    H5910163   7.315   3.779   0.242 -0.6833 -1.2841 -2.5500
   13MOL    H6010164   7.248   3.843   0.493  0.4456 -0.2914  0.9766
   13MOL    H6110165   7.445   3.751   0.599 -0.3262 -0.9368 -0.9356
   13MOL    H6210166   7.484   3.650   0.466  0.8071  0.3036 -2.3442
   13MOL    H6310167   7.443   3.953   0.427  2.8684  1.8270  2.0957
   13MOL    H6410168   7.509   3.843   0.320 -0.1563  0.9357 -0.8993
   13MOL    H6510169   0.006   3.941   0.413  0.4195 -1.6800 -1.4134
   13MOL    H6610170   0.002   3.788   0.501  0.0638  0.5306  0.1848
   13MOL    H6710171   7.593   4.048   0.621 -0.2676 -0.9464  1.7011
   13MOL    H6810172   7.590   3.892   0.701  0.7134 -1.3076 -0.6654
   13MOL    H6910173   0.123   3.857   0.677 -0.5235  0.3371 -2.4397
   13MOL    H7010174   0.152   4.028   0.621  0.4605  0.7222  2.0590
   13MOL    H7110175   0.210   4.015   0.870 -0.5206  1.2605  1.6823
   13MOL    H7210176   0.040   3.960   0.896  0.3787 -0.8787 -0.1183
   13MOL    H7310177   0.092   4.224   0.759 -0.0861 -2.4994 -1.7069
   13MOL    H7410178   7.644   4.160   0.847  0.6876 -1.7073  0.1076
   13MOL    H7510179   0.213   4.226   0.964 -0.2423  2.1498 -1.5318
   13MOL    H7610180   0.085   4.165   1.053  0.0101 -1.4833 -1.5294
   13MOL    H7710181   7.640   4.369   1.001 -0.3382 -0.5505 -0.5327
   13MOL    H7810182   0.095   4.442   0.928  0.5707  0.1341  0.8703
   13MOL    H7910183   0.184   4.374   1.174  1.6259  1.9660  0.4182
   13MOL    H8010184   0.123   4.523   1.114 -4.0548  1.0233 -1.8110
   13MOL    H8110185   7.658   4.316   1.278 -0.9144 -0.0698 -2.3708
   13MOL    H8210186   7.591   4.473   1.236 -0.2135  0.9078  1.5041
   13MOL    H8310187   7.681   4.479   1.474  0.5573  3.0132 -0.1806
   13MOL    H8410188   0.050   4.600   1.361 -0.7567  0.1665 -1.2458
   13MOL    H8510189   0.146   4.462   1.389 -0.3002 -0.6496  0.3871
   13MOL    C8610190   7.212   3.631   0.540  0.2090 -0.4960  0.0939
   13MOL    C8710191   7.186   3.682   0.682  0.5130  0.6249  0.3105
   13MOL    C8810192   7.211   3.572   0.787  0.0377  0.8496  0.1076
   13MOL    C8910193   7.365   3.564   0.824 -0.2810  0.7857  0.1787
   13MOL    C9010194   7.386   3.472   0.942 -0.2815  0.2105  0.7787
   13MOL    C9110195   7.532   3.462   0.981  0.0734  0.7627 -0.0241
   13MOL    C9210196   7.600   3.356   0.891  0.0574 -0.4037 -0.0110
   13MOL    C9310197   0.048   3.331   0.928 -0.0160  0.0743  0.6152
   13MOL    C9410198   0.121   3.224   0.840 -0.3179  1.2539  0.1305
   13MOL    C9510199   0.273   3.230   0.836  0.2947  0.0467 -0.2702
   13MOL    C9610200   0.342   3.132   0.741 -0.1048 -1.3238 -0.3794
   13MOL    C9710201   0.491   3.112   0.759  0.0837  0.0908 -0.2559
   13MOL    C9810202   0.519   2.996   0.860  0.9961  0.0098 -0.3515
   13MOL    C9910203   0.670   2.990   0.893 -0.1303 -0.0873  0.4977
   13MOL   H10010204   7.117   3.598   0.499  0.4911  0.1332 -1.1008
   13MOL   H10110205   7.279   3.545   0.537  1.4668  0.3639  2.3121
   13MOL   H10210206   7.250   3.765   0.713  1.8332  0.1527 -1.0738
   13MOL   H10310207   7.153   3.603   0.874 -2.8630 -1.8160 -0.8026
   13MOL   H10410208   7.171   3.485   0.737 -0.2102  0.1327  1.5365
   13MOL   H10510209   7.421   3.533   0.735 -3.0293  1.1101 -1.7475
   13MOL   H10610210   7.404   3.662   0.853 -0.1444  1.0500 -0.8530
   13MOL   H10710211   7.337   3.375   0.932  0.2370  0.1169 -1.0440
   13MOL   H10810212   7.348   3.518   1.033  0.5117 -0.3751  1.4065
   13MOL   H10910213   7.549   3.420   1.080  1.5836  2.4500  0.4564
   13MOL   H11010214   7.579   3.560   0.977  2.4239 -0.3435 -0.1148
   13MOL   H11110215   7.555   3.257   0.906  2.2049 -1.0566  2.5005
   13MOL   H11210216   7.595   3.385   0.786 -1.1342 -0.0347  0.1411
   13MOL   H11310217   0.045   3.307   1.034  1.4499 -0.4558  0.5538
   13MOL   H11410218   0.107   3.419   0.904  0.8307 -0.3917  0.9583
   13MOL   H11510219   0.079   3.125   0.855  0.3479  1.1608  1.5244
   13MOL   H11610220   0.111   3.257   0.737 -0.2719 -0.7873 -0.5337
   13MOL   H11710221   0.284   3.205   0.941 -4.1403 -1.9538 -0.1471
   13MOL   H11810222   0.308   3.331   0.818 -0.8409  0.3277 -0.9660
   13MOL   H11910223   0.291   3.035   0.741  2.1021 -2.5316  1.7406
   13MOL   H12010224   0.330   3.163   0.637 -0.4547  1.3318  0.4291
   13MOL   H12110225   0.534   3.076   0.666  1.2312 -0.7064  0.5755
   13MOL   H12210226   0.539   3.208   0.779 -0.5388  0.0415  1.5637
   13MOL   H12310227   0.479   2.900   0.827 -1.1883  1.1892 -1.2141
   13MOL   H12410228   0.472   3.025   0.954  0.6197  2.7472 -1.3565
   13MOL   H12510229   0.715   2.972   0.795 -1.3821  1.8442 -0.4714
   13MOL   H12610230   0.710   3.088   0.920 -1.2563 -0.1667  2.4959
   13MOL   H12710231   0.696   2.912   0.964 -0.4417  0.3511  1.0933
   13MOL   C12810232   7.043   3.752   0.685 -0.2252 -0.6375 -0.5462
   13MOL   C12910233   6.999   3.832   0.814 -0.1747  0.4256  0.0844
   13MOL   C13010234   7.110   3.936   0.864  0.6345 -0.1140 -0.6565
   13MOL   C13110235   7.164   4.040   0.759  0.5846  0.6588  1.0890
   13MOL   C13210236   7.290   4.121   0.793 -0.2988  0.0827  0.2026
   13MOL   C13310237   7.266   4.258   0.865 -0.1893 -0.2849  1.1225
   13MOL   C13410238   7.394   4.351   0.871  0.1645 -0.0194  0.4502
   13MOL   C13510239   7.413   4.429   0.742  0.6882  0.1284  0.1932
   13MOL   C13610240   7.543   4.517   0.762  0.1429 -0.2163  0.1969
   13MOL   C13710241   7.541   4.638   0.662 -0.1614  0.0030 -0.0325
   13MOL   C13810242   7.677   4.698   0.623  0.1115 -0.1128 -0.2584
   13MOL   C13910243   7.691   4.766   0.483  0.7701 -0.2322  0.7996
   13MOL   C14010244   0.137   4.806   0.436 -0.7147 -0.0903 -0.0387
   13MOL   C14110245   0.128   4.892   0.307  0.2830  0.5094  0.8774
   13MOL   H14210246   7.029   3.818   0.599  0.3103  0.1601 -0.0306
   13MOL   H14310247   6.971   3.673   0.665 -0.7326  0.1984 -2.0498
   13MOL   H14410248   7.002   3.751   0.887 -0.9546  0.4314  0.1242
   13MOL   H14510249   7.065   3.984   0.951  1.7301 -0.0868 -0.0967
   13MOL   H14610250   7.196   3.881   0.903  2.1109  1.8182 -1.1028
   13MOL   H14710251   7.199   3.972   0.682 -0.5325  0.7235  0.5061
   13MOL   H14810252   7.075   4.087   0.717  0.1809 -1.2849 -0.2511
   13MOL   H14910253   7.360   4.065   0.855 -0.4936  0.7965  1.0654
   13MOL   H15010254   7.348   4.131   0.701  0.7547 -0.3804  0.8144
   13MOL   H15110255   7.191   4.322   0.818 -0.3784 -0.7168  0.8308
   13MOL   H15210256   7.226   4.235   0.964 -0.7978 -1.7399  0.5514
   13MOL   H15310257   7.378   4.426   0.949  0.0858  1.8906 -1.3562
   13MOL   H15410258   7.477   4.286   0.900  1.2335  2.1103  2.3382
   13MOL   H15510259   7.431   4.360   0.660 -3.2686  0.2183 -0.8572
   13MOL   H15610260   7.323   4.481   0.710  1.3336 -0.3326 -2.5035
   13MOL   H15710261   7.555   4.545   0.867 -2.3665 -1.0484  0.7290
   13MOL   H15810262   7.625   4.447   0.745  0.0364 -0.3184  0.1034
   13MOL   H15910263   7.475   4.718   0.695  0.8483  1.9528 -2.5034
   13MOL   H16010264   7.499   4.597   0.570  1.8660  0.2164 -1.1003
   13MOL   H16110265   0.010   4.773   0.697  0.6120  1.7960 -2.3579
   13MOL   H16210266   0.058   4.621   0.626  0.7601  0.5138 -0.5497
   13MOL   H16310267   7.649   4.704   0.404  0.5039 -1.2440  1.7139
   13MOL   H16410268   7.625   4.853   0.481  1.0890 -0.0052 -2.5025
   13MOL   H16510269   0.170   4.868   0.519 -1.7983  0.4304  0.0121
   13MOL   H16610270   0.206   4.722   0.424 -0.9633 -0.0111 -2.3693
   13MOL   H16710271   0.224   4.941   0.293  1.3855 -1.6015  0.8206
   13MOL   H16810272   0.113   4.820   0.226 -3.1372  0.4630  1.4494
   13MOL   H16910273   0.045   4.963   0.308  1.2525  1.6354  0.8610
   13MOL   C17010274   6.860   3.893   0.796 -0.4288  0.2235  0.5986
   13MOL   C17110275   6.785   3.947   0.915 -0.3609 -0.2330  0.3330
   13MOL   C17210276   6.658   4.027   0.873 -0.1573  0.1145  0.8553
   13MOL   C17310277   6.550   3.942   0.783 -0.1227  0.4682 -0.2167
   13MOL   C17410278   6.427   4.018   0.740  0.7695  0.0796  0.0167
   13MOL   C17510279   6.442   4.102   0.611  0.3008  0.2636  0.1769
   13MOL   C17610280   6.316   4.182   0.583  0.0751 -0.1187  0.4233
   13MOL   C17710281   6.303   4.320   0.648 -0.3512 -0.0833 -0.0628
   13MOL   C17810282   6.419   4.414   0.621 -0.6575  0.5679  0.3918
   13MOL   C17910283   6.389   4.564   0.653  0.0997  0.4134  0.3893
   13MOL   C18010284   6.504   4.667   0.613 -0.1609 -0.4951  0.2250
   13MOL   C18110285   6.517   4.678   0.462  0.4867 -0.4513  0.6490
   13MOL   C18210286   6.637   4.767   0.423 -0.8784 -0.0524  0.2913
   13MOL   C18310287   6.769   4.701   0.463  0.1314  0.6687 -0.0109
   13MOL   H18410288   6.798   3.819   0.746  1.0373 -1.0409  0.6204
   13MOL   H18510289   6.859   3.977   0.727  2.0162  0.7912  1.2304
   13MOL   H18610290   6.853   4.027   0.944  2.1855 -1.7798 -1.1911
   13MOL   H18710291   6.613   4.058   0.967 -0.9414 -0.2559  0.6070
   13MOL   H18810292   6.683   4.115   0.815  0.6737 -1.0998 -0.6649
   13MOL   H18910293   6.598   3.898   0.696  0.5838  0.5782  0.1094
   13MOL   H19010294   6.515   3.854   0.836  2.1738  0.2758  1.0515
   13MOL   H19110295   6.347   3.947   0.718 -0.7605  2.4975 -2.4636
   13MOL   H19210296   6.395   4.073   0.829 -0.3583 -1.4401  0.5794
   13MOL   H19310297   6.475   4.034   0.532  0.3663 -0.0833  0.4982
   13MOL   H19410298   6.529   4.167   0.609  1.0656 -0.7013  1.4975
   13MOL   H19510299   6.222   4.128   0.597  0.5277 -1.6585 -2.1976
   13MOL   H19610300   6.312   4.216   0.479  0.6706  1.3618  0.8652
   13MOL   H19710301   6.308   4.315   0.756 -1.3752 -2.1351 -0.0867
   13MOL   H19810302   6.209   4.364   0.612 -0.4108  0.0064  0.2035
   13MOL   H19910303   6.450   4.410   0.517  0.9062 -0.2337  0.8689
   13MOL   H20010304   6.504   4.372   0.675 -0.0880  0.0640 -0.8865
   13MOL   H20110305   6.376   4.555   0.761 -1.9487  0.0692  0.1457
   13MOL   H20210306   6.290   4.596   0.621  0.6237  1.0791 -0.5689
   13MOL   H20310307   6.593   4.611   0.642  1.1634  2.0121  1.1390
   13MOL   H20410308   6.493   4.766   0.658 -1.6009 -0.7944  0.5435
   13MOL   H20510309   6.533   4.576   0.429  3.4015 -0.5805  2.2501
   13MOL   H20610310   6.423   4.716   0.422  0.8409 -0.2127  0.0507
   13MOL   H20710311   6.621   4.776   0.316  1.0349 -0.6986 -0.0583
   13MOL   H20810312   6.635   4.872   0.455 -2.0461 -0.4395  1.5514
   13MOL   H20910313   6.844   4.752   0.403  0.1901 -1.0100 -1.4186
   13MOL   H21010314   6.775   4.595   0.438 -1.5690  0.9915 -1.9474
   13MOL   H21110315   6.795   4.733   0.563 -0.1783  2.7404 -0.5789
   13MOL   C21210316   6.758   3.846   1.027  0.1220  0.3601 -0.3518
   13MOL   C21310317   6.703   3.902   1.158 -0.4290  0.1770 -0.2972
   13MOL   C21410318   6.549   3.883   1.165  0.0094 -0.6406  0.1375
   13MOL   C21510319   6.484   3.994   1.254 -0.4586  0.7612  0.5776
   13MOL   C21610320   6.339   3.965   1.282 -0.4133 -0.2049 -0.4453
   13MOL   C21710321   6.242   3.984   1.164 -0.2956 -0.4674 -0.1480
   13MOL   C21810322   6.199   4.130   1.147  0.8188  0.0731  1.1700
   13MOL   C21910323   6.104   4.162   1.029 -1.1112  0.1536  0.3421
   13MOL   C22010324   6.070   4.319   1.013 -0.0610  0.5279 -0.7629
   13MOL   C22110325   5.987   4.352   0.895 -0.0071  0.0443  0.1667
   13MOL   C22210326   6.002   4.504   0.880 -0.2223 -0.1922 -1.1223
   13MOL   C22310327   5.913   4.577   0.773 -0.3976 -0.2585  0.1610
   13MOL   C22410328   5.942   4.541   0.634 -0.6739  0.0475  0.1521
   13MOL   C22510329   5.846   4.612   0.533 -0.0659 -0.6411  0.3057
   13MOL   H22610330   6.855   3.798   1.044  0.0332 -0.7767 -2.7054
   13MOL   H22710331   6.694   3.766   0.989  0.1237  0.8512 -1.4123
   13MOL   H22810332   6.725   4.008   1.155 -1.0901  0.2967 -1.1619
   13MOL   H22910333   6.513   3.892   1.063  0.7443 -0.6512 -0.1301
   13MOL   H23010334   6.529   3.782   1.201  0.9095 -0.3904  1.3833
   13MOL   H23110335   6.496   4.089   1.203 -0.6126 -0.1097 -1.1212
   13MOL   H23210336   6.530   3.997   1.353  0.9153  1.3020 -0.0694
   13MOL   H23310337   6.319   4.036   1.362 -0.9175 -1.7297  0.7885
   13MOL   H23410338   6.336   3.865   1.324 -0.4272 -0.4656 -1.0593
   13MOL   H23510339   6.158   3.916   1.178 -0.8428  0.2032 -0.1106
   13MOL   H23610340   6.291   3.954   1.072 -0.4347  1.4453 -0.8643
   13MOL   H23710341   6.149   4.164   1.237  0.4022 -2.6404  2.0162
   13MOL   H23810342   6.294   4.183   1.138 -0.6708  2.7583  0.5967
   13MOL   H23910343   6.161   4.140   0.939 -1.0443  2.4686 -0.2000
   13MOL   H24010344   6.011   4.108   1.048  0.4892 -2.8582  0.0042
   13MOL   H24110345   6.166   4.367   0.996 -0.1546  0.9825 -0.0320
   13MOL   H24210346   6.025   4.366   1.100 -1.1464  1.2524 -1.7032
   13MOL   H24310347   6.026   4.308   0.802 -1.3505  0.3468 -0.5506
   13MOL   H24410348   5.888   4.308   0.900  0.2726 -0.7241 -0.7069
   13MOL   H24510349   6.099   4.551   0.869 -1.2366  1.8929 -1.4163
   13MOL   H24610350   5.976   4.546   0.977 -2.6474 -2.1125 -0.8829
   13MOL   H24710351   5.926   4.685   0.770 -1.7541 -0.0415  1.5237
   13MOL   H24810352   5.808   4.555   0.795 -0.7713 -0.1645 -1.4321
   13MOL   H24910353   5.945   4.433   0.616 -0.9597  0.2232 -0.9632
   13MOL   H25010354   6.042   4.564   0.599 -1.7500 -0.0355 -3.1470
   13MOL   H25110355   5.889   4.599   0.434  1.1273 -1.6810  0.9436
   13MOL   H25210356   5.746   4.570   0.524 -1.1158  1.8388  0.0035
   13MOL   H25310357   5.835   4.718   0.557 -0.5999 -1.2614  2.9335
   13MOL   C25410358   6.780   3.851   1.282 -0.0637 -0.0857  0.1710
   13MOL   C25510359   6.926   3.900   1.293  0.7629 -0.2610 -0.7567
   13MOL   C25610360   6.935   4.022   1.385 -0.4535  0.7794  0.3421
   13MOL   C25710361   6.885   4.016   1.532 -0.0189  0.5057  0.2326
   13MOL   C25810362   6.943   4.130   1.616 -0.2712  0.5904  0.2643
   13MOL   C25910363   6.904   4.123   1.765  0.1559 -0.2595 -0.2888
   13MOL   C26010364   6.980   4.020   1.850 -0.7061  0.0106  0.0703
   13MOL   C26110365   6.921   3.995   1.985 -0.1389 -0.1012 -0.4324
   13MOL   C26210366   6.983   3.883   2.066  0.2838  0.4788 -0.3488
   13MOL   C26310367   6.930   3.881   2.204 -1.0688  0.9027 -0.1570
   13MOL   C26410368   6.989   3.767   2.292  1.3809  0.9992  0.4165
   13MOL   C26510369   6.946   3.790   2.442 -0.7786  0.1748  0.7033
   13MOL   C26610370   6.798   3.829   2.469 -0.3358  0.0444 -0.2188
   13MOL   C26710371   6.767   3.837   2.622 -1.2815  0.0324  0.1769
   13MOL   H26810372   6.768   3.742   1.282  0.7720 -0.1823  0.2443
   13MOL   H26910373   6.721   3.882   1.369 -1.6825  0.2510 -1.0180
   13MOL   H27010374   6.961   3.927   1.194 -0.8177 -0.5179 -1.4066
   13MOL   H27110375   6.885   4.112   1.347  1.1099  0.8034 -1.7668
   13MOL   H27210376   7.039   4.055   1.392  0.5944 -1.9761 -1.6156
   13MOL   H27310377   6.908   3.916   1.572  0.4239  0.1126 -0.9963
   13MOL   H27410378   6.776   4.008   1.541  0.1502 -3.7591 -0.2300
   13MOL   H27510379   6.900   4.227   1.591 -3.0231 -0.5722  0.2182
   13MOL   H27610380   7.051   4.135   1.607 -0.3950 -0.8082 -2.3332
   13MOL   H27710381   6.796   4.112   1.767  0.1300 -0.0448 -0.3813
   13MOL   H27810382   6.929   4.217   1.814  1.5803 -1.0353  0.5085
   13MOL   H27910383   6.975   3.923   1.800 -1.2786 -1.3889  2.6979
   13MOL   H28010384   7.083   4.054   1.858 -1.4183  2.0754  0.9079
   13MOL   H28110385   6.817   3.979   1.958 -0.7189  0.4200  1.4494
   13MOL   H28210386   6.912   4.089   2.040 -1.3748 -0.9133  0.7648
   13MOL   H28310387   6.962   3.790   2.011 -0.2876  0.3919  0.0063
   13MOL   H28410388   7.090   3.881   2.082  0.3041  0.6590 -0.4652
   13MOL   H28510389   6.821   3.877   2.191 -1.2939  2.7452  1.0604
   13MOL   H28610390   6.945   3.975   2.256 -1.6320  0.1326  1.4787
   13MOL   H28710391   7.096   3.761   2.275  1.6648 -2.7256  2.8469
   13MOL   H28810392   6.942   3.672   2.264 -1.5685  2.3584  0.6350
   13MOL   H28910393   6.958   3.696   2.497 -1.4398 -1.6115 -2.0725
   13MOL   H29010394   7.007   3.872   2.478  0.8661  0.0220 -1.6599
   13MOL   H29110395   6.781   3.930   2.432  1.2230 -0.2101 -1.6880
   13MOL   H29210396   6.728   3.757   2.425  1.0946 -1.3847 -0.2062
   13MOL   H29310397   6.667   3.861   2.659 -1.2823  0.6161 -0.2006
   13MOL   H29410398   6.839   3.912   2.655  1.4695 -2.0304 -0.8897
   13MOL   H29510399   6.802   3.746   2.672 -2.5843 -1.5865 -1.7628
   13MOL   C29610400   7.019   3.792   1.351  0.3131 -0.1516  0.5832
   13MOL   C29710401   7.072   3.693   1.238 -0.2816  0.4289  1.0641
   13MOL   C29810402   7.191   3.755   1.164 -0.3323  0.0803 -0.1371
   13MOL   C29910403   7.320   3.765   1.249  0.6245 -0.6162  0.4173
   13MOL   C30010404   7.445   3.830   1.173 -0.6180  0.2205  0.5630
   13MOL   C30110405   7.544   3.917   1.253 -0.0036  0.3604 -0.0285
   13MOL   C30210406   7.641   3.831   1.326 -0.4222  0.7352  0.8137
   13MOL   C30310407   0.024   3.751   1.224  0.5583  0.3593  0.1101
   13MOL   C30410408   0.170   3.792   1.239  0.1127 -0.5523 -0.0986
   13MOL   C30510409   0.254   3.712   1.142 -0.2406 -0.0574  0.0265
   13MOL   C30610410   0.398   3.676   1.202  0.2510 -0.2341  0.7904
   13MOL   C30710411   0.481   3.606   1.094  0.3485 -0.0289 -0.2724
   13MOL   C30810412   0.613   3.550   1.161  0.1636  0.7219 -0.0637
   13MOL   C30910413   0.706   3.475   1.059  0.0776 -0.5158  0.6993
   13MOL   H31010414   6.963   3.736   1.426 -1.1618 -0.7376 -0.9036
   13MOL   H31110415   7.103   3.847   1.394  0.8897  1.9253 -3.0166
   13MOL   H31210416   7.000   3.667   1.160 -0.8396  0.5459  1.5326
   13MOL   H31310417   7.173   3.858   1.133 -0.1764  0.3923  0.8182
   13MOL   H31410418   7.203   3.693   1.075 -2.3331  0.5152 -0.7337
   13MOL   H31510419   7.348   3.667   1.287 -0.4686  0.4597  4.1983
   13MOL   H31610420   7.300   3.817   1.342  1.5889  1.8818 -0.7201
   13MOL   H31710421   7.486   3.745   1.118 -1.1532 -1.2730  2.4005
   13MOL   H31810422   7.427   3.896   1.089  1.9566  1.7103  1.1137
   13MOL   H31910423   7.489   3.986   1.316 -1.6755  0.0759 -1.1257
   13MOL   H32010424   7.603   3.989   1.196 -0.3590 -0.1486 -1.0597
   13MOL   H32110425   0.007   3.909   1.370  2.1635 -0.1602 -1.0723
   13MOL   H32210426   7.587   3.768   1.397  0.4603 -1.3154 -0.2905
   13MOL   H32310427   7.690   3.770   1.121  2.9606  0.2179 -0.6444
   13MOL   H32410428   0.008   3.645   1.246 -0.8998  0.9721  2.1385
   13MOL   H32510429   0.188   3.898   1.222 -4.6241  0.5616  1.0552
   13MOL   H32610430   0.214   3.767   1.336  2.3203 -0.2465 -0.9826
   13MOL   H32710431   0.250   3.765   1.048 -0.8388  1.1191  0.7102
   13MOL   H32810432   0.202   3.618   1.119 -0.6464 -0.0858  1.0359
   13MOL   H32910433   0.380   3.610   1.287  0.6046 -0.9332  0.3257
   13MOL   H33010434   0.453   3.761   1.241  2.6667 -1.6938  0.6363
   13MOL   H33110435   0.510   3.679   1.018  0.1373  1.0414  0.6690
   13MOL   H33210436   0.428   3.525   1.045 -1.5673  1.0847 -0.0884
   13MOL   H33310437   0.589   3.477   1.238  0.6087 -0.7366 -1.2861
   13MOL   H33410438   0.677   3.619   1.217 -0.6497 -0.4854  2.4328
   13MOL   H33510439   0.723   3.544   0.976  1.7156 -0.1219  1.3503
   13MOL   H33610440   0.795   3.447   1.116 -0.4815  1.7209  2.7559
   13MOL   H33710441   0.659   3.395   1.002  0.7164 -0.7954  0.5555
   13MOL   C33810442   7.108   3.556   1.302  0.3515 -0.0067  0.4797
   13MOL   C33910443   6.976   3.470   1.336 -0.2121 -0.2782  0.1575
   13MOL   C34010444   6.980   3.345   1.252 -0.4169  0.5413 -0.1349
   13MOL   C34110445   6.972   3.371   1.100 -0.3194 -0.3889 -0.4897
   13MOL   C34210446   6.984   3.236   1.023  0.2603  0.0022 -0.0375
   13MOL   C34310447   6.985   3.229   0.874  0.2451 -0.2341  0.3682
   13MOL   C34410448   7.056   3.096   0.823  0.2746  0.5811 -0.1630
   13MOL   C34510449   6.971   2.969   0.848  0.3299 -0.2426 -0.3463
   13MOL   C34610450   7.017   2.844   0.772 -0.2808 -0.3504 -0.2848
   13MOL   C34710451   6.912   2.741   0.768 -0.6342  0.1069 -0.5825
   13MOL   C34810452   6.890   2.668   0.899  0.2452  0.0073 -0.8352
   13MOL   C34910453   6.791   2.552   0.877 -0.2116 -0.3421  1.0009
   13MOL   C35010454   6.691   2.508   0.994 -0.5927  0.8436  0.0329
   13MOL   C35110455   6.585   2.419   0.936  0.3775 -0.2744 -0.3097
   13MOL   H35210456   7.172   3.500   1.233  1.3589  1.3186  0.3263
   13MOL   H35310457   7.173   3.571   1.388  0.5077 -0.2833  0.4121
   13MOL   H35410458   6.890   3.520   1.293  0.6565  0.3098 -0.8956
   13MOL   H35510459   7.076   3.296   1.271  0.3646  2.1786  0.2718
   13MOL   H35610460   6.902   3.277   1.285  0.0008 -0.0676 -0.4004
   13MOL   H35710461   7.061   3.427   1.071  1.9358 -2.9470  1.1980
   13MOL   H35810462   6.881   3.426   1.074 -0.7095 -0.7796  0.0329
   13MOL   H35910463   6.894   3.177   1.045  0.4932 -0.1966  0.3911
   13MOL   H36010464   7.073   3.188   1.064  1.6207  1.5088 -1.1818
   13MOL   H36110465   6.882   3.242   0.840  0.3094  2.7193  1.1850
   13MOL   H36210466   7.037   3.317   0.835  0.1085  0.9354  2.7749
   13MOL   H36310467   7.082   3.104   0.718  1.0961 -1.0521 -0.1005
   13MOL   H36410468   7.156   3.088   0.866 -0.4616 -1.1723  1.3260
   13MOL   H36510469   6.974   2.942   0.954 -1.8912 -0.1477 -0.2282
   13MOL   H36610470   6.867   2.989   0.821  0.8798  1.9598 -0.9520
   13MOL   H36710471   7.060   2.876   0.677 -2.6185 -0.3321 -1.3716
   13MOL   H36810472   7.105   2.798   0.817  0.5284  0.5342 -0.9392
   13MOL   H36910473   6.818   2.780   0.730 -1.0234  1.0159  1.2741
   13MOL   H37010474   6.947   2.670   0.693 -1.4236  0.0497 -0.8947
   13MOL   H37110475   6.859   2.741   0.974 -1.6387 -0.8284 -0.7712
   13MOL   H37210476   6.980   2.623   0.941 -0.7984 -0.8848  0.4790
   13MOL   H37310477   6.845   2.465   0.838  0.1580 -0.3739  1.5776
   13MOL   H37410478   6.725   2.568   0.792  0.9776  0.5968  0.2347
   13MOL   H37510479   6.752   2.455   1.067 -1.0491 -0.5586 -0.5652
   13MOL   H37610480   6.648   2.598   1.037 -1.6716  0.1985  0.3250
   13MOL   H37710481   6.523   2.370   1.011  0.3279  1.5876  0.8907
   13MOL   H37810482   6.508   2.479   0.889  1.8023  1.5559 -0.3668
   13MOL   H37910483   6.619   2.352   0.857 -1.5304 -1.6031 -0.0288
   13MOL   C38010484   6.949   3.437   1.487  0.7326 -0.3898 -0.2132
   13MOL   C38110485   6.795   3.444   1.530  0.8904  0.2778  0.1160
   13MOL   C38210486   6.712   3.327   1.475  0.2408  0.3419 -0.0846
   13MOL   C38310487   6.555   3.338   1.484  0.4035  0.2144 -0.4631
   13MOL   C38410488   6.488   3.446   1.392 -1.7740 -0.3110 -1.1065
   13MOL   C38510489   6.499   3.398   1.249  0.3461 -0.1430 -0.4616
   13MOL   C38610490   6.422   3.482   1.149  0.1774 -1.1335  0.1252
   13MOL   C38710491   6.442   3.424   1.003  0.3811  0.3534 -0.4195
   13MOL   C38810492   6.568   3.489   0.939  0.4893  0.3631  0.0483
   13MOL   C38910493   6.614   3.411   0.819  0.1448  0.5016 -0.0659
   13MOL   C39010494   6.725   3.478   0.735  0.8002 -0.4889 -0.3210
   13MOL   C39110495   6.756   3.407   0.603 -0.0701  0.7137 -0.4336
   13MOL   C39210496   6.876   3.459   0.520  0.2060 -0.8499 -0.6984
   13MOL   C39310497   6.908   3.377   0.396  0.2998  0.3205  0.0548
   13MOL   H39410498   7.015   3.502   1.543 -1.7209  0.8249  1.3778
   13MOL   H39510499   6.979   3.333   1.503  0.3434 -0.5060 -0.2134
   13MOL   H39610500   6.751   3.538   1.498 -2.2517 -1.2695 -0.3822
   13MOL   H39710501   6.743   3.231   1.517  1.7105  1.2998  1.0667
   13MOL   H39810502   6.732   3.316   1.368 -1.6791  0.6344 -0.4829
   13MOL   H39910503   6.520   3.347   1.587  1.9703  0.3530  0.0611
   13MOL   H40010504   6.511   3.242   1.457 -1.3978 -0.1409  3.3586
   13MOL   H40110505   6.542   3.541   1.386  0.7109 -1.6644 -0.6591
   13MOL   H40210506   6.389   3.469   1.430 -1.5850 -0.5917 -0.4290
   13MOL   H40310507   6.459   3.297   1.243  1.9286 -0.8298  0.1352
   13MOL   H40410508   6.601   3.391   1.212 -0.6134  2.9220 -3.9641
   13MOL   H40510509   6.317   3.487   1.178  0.0746 -1.2346 -0.2199
   13MOL   H40610510   6.466   3.582   1.146  1.5426 -1.7263 -0.4564
   13MOL   H40710511   6.448   3.315   1.010  0.2289  0.1557 -2.8453
   13MOL   H40810512   6.361   3.437   0.931  0.5772 -0.7603 -0.8557
   13MOL   H40910513   6.543   3.593   0.914  1.2413  0.0387 -2.2091
   13MOL   H41010514   6.646   3.483   1.015 -0.5663 -3.4791  0.9356
   13MOL   H41110515   6.529   3.391   0.754 -0.8336 -0.2181  1.4057
   13MOL   H41210516   6.654   3.313   0.844  1.9529  1.4148  0.7049
   13MOL   H41310517   6.702   3.582   0.710 -2.5728 -0.7696  1.3821
   13MOL   H41410518   6.816   3.478   0.795  1.9294  1.4171 -1.9588
   13MOL   H41510519   6.673   3.423   0.534  0.2593 -0.9821 -1.2353
   13MOL   H41610520   6.759   3.299   0.616 -0.1995  0.6496 -0.9271
   13MOL   H41710521   6.859   3.566   0.507 -0.6085 -1.1196 -1.8525
   13MOL   H41810522   6.960   3.449   0.589 -0.5532  1.4853  0.6380
   13MOL   H41910523   6.849   3.390   0.305 -0.1298 -1.2780  0.0951
   13MOL   H42010524   6.923   3.270   0.405  0.5171  0.1121 -2.4463
   13MOL   H42110525   7.003   3.411   0.356  0.3764 -2.1680 -1.9947
   13MOL   C42210526   6.775   3.434   1.679 -0.6331 -0.5935 -0.0434
   13MOL   C42310527   6.808   3.563   1.757 -0.8971 -0.1241  0.1752
   13MOL   C42410528   6.734   3.692   1.725 -0.2670 -0.4116 -0.1453
   13MOL   C42510529   6.582   3.674   1.700 -0.6154 -0.5596  0.0681
   13MOL   C42610530   6.514   3.809   1.652  0.1643 -0.0337 -0.4177
   13MOL   C42710531   6.371   3.795   1.606 -0.5437  0.4821 -0.0788
   13MOL   C42810532   6.268   3.800   1.720 -0.0455 -0.0422 -0.1944
   13MOL   C42910533   6.133   3.736   1.670  0.6886  0.1332 -0.4280
   13MOL   C43010534   6.017   3.754   1.765 -0.3804 -0.5839  0.0545
   13MOL   C43110535   5.873   3.736   1.701  0.4016  0.8975 -0.1103
   13MOL   C43210536   5.749   3.754   1.790  0.4604 -0.1042  0.6789
   13MOL   C43310537   5.619   3.700   1.731  0.4713 -0.2833  0.3042
   13MOL   C43410538   5.506   3.704   1.830 -0.0980 -0.1465  0.4919
   13MOL   C43510539   5.368   3.647   1.781  0.0032  0.4830 -0.5351
   13MOL   H43610540   6.847   3.359   1.711 -2.2372 -2.3222 -0.3932
   13MOL   H43710541   6.678   3.394   1.707 -0.7921  0.0670  0.3599
   13MOL   H43810542   6.908   3.593   1.728 -0.1187 -0.0900  2.7078
   13MOL   H43910543   6.781   3.736   1.637 -0.6234 -0.1594 -0.2074
   13MOL   H44010544   6.753   3.761   1.807  1.9171  1.4963 -2.1772
   13MOL   H44110545   6.570   3.605   1.616 -3.8829 -0.0241  0.0407
   13MOL   H44210546   6.535   3.630   1.787  0.7275 -1.3970  0.3834
   13MOL   H44310547   6.564   3.848   1.563 -2.5399  1.2045 -1.4388
   13MOL   H44410548   6.535   3.883   1.730  0.1704  0.2694 -0.7051
   13MOL   H44510549   6.361   3.714   1.535  1.5608 -1.4057  1.6870
   13MOL   H44610550   6.348   3.889   1.555  1.0379  0.6174 -0.5527
   13MOL   H44710551   6.304   3.732   1.798 -0.5312  1.1313  1.0889
   13MOL   H44810552   6.255   3.904   1.751 -2.5654  0.1163 -1.6076
   13MOL   H44910553   6.116   3.758   1.565  0.7241  2.3986  0.0107
   13MOL   H45010554   6.157   3.630   1.669  1.0030  0.1882  0.6675
   13MOL   H45110555   6.019   3.688   1.852 -2.2192 -2.4006 -1.2055
   13MOL   H45210556   6.023   3.853   1.809  0.5744  0.5238 -2.4669
   13MOL   H45310557   5.862   3.817   1.628  0.1523  2.0802  1.2276
   13MOL   H45410558   5.878   3.640   1.648  0.2733  0.5553  0.4983
   13MOL   H45510559   5.772   3.691   1.876 -0.7801 -1.0416  0.3378
   13MOL   H45610560   5.736   3.852   1.837 -0.7050  0.5658 -1.0101
   13MOL   H45710561   5.622   3.593   1.709  0.8979  0.2546 -2.4417
   13MOL   H45810562   5.606   3.752   1.637 -2.9587  0.0983  0.9305
   13MOL   H45910563   5.532   3.642   1.916  2.9785 -0.8154 -0.8646
   13MOL   H46010564   5.488   3.804   1.870 -0.3432  0.2909 -0.7041
   13MOL   H46110565   5.394   3.548   1.744  1.0529 -0.0943  1.6504
   13MOL   H46210566   5.334   3.708   1.698 -0.8836  0.7531  0.0194
   13MOL   H46310567   5.294   3.638   1.861  0.0431  0.1876 -0.5342
   13MOL   C46410568   6.812   3.542   1.909  0.2596 -0.4972  0.4247
   13MOL   C46510569   6.919   3.438   1.962 -0.7297  0.0773 -0.7742
   13MOL   C46610570   7.063   3.499   1.940  0.1398 -0.3761  0.4006
   13MOL   C46710571   7.185   3.428   1.973 -0.0786 -0.3916 -0.3508
   13MOL   C46810572   7.295   3.528   2.013 -0.1879  0.0329 -0.6599
   13MOL   C46910573   7.432   3.465   2.011 -0.1283 -0.1702 -0.5526
   13MOL   C47010574   7.544   3.523   2.105  0.4242 -0.3760  0.2105
   13MOL   C47110575   7.654   3.424   2.114 -0.1478  0.4643  0.1491
   13MOL   C47210576   0.072   3.461   2.210 -0.2214 -0.0397  0.1652
   13MOL   C47310577   0.140   3.587   2.149 -0.6745  0.4486 -0.6059
   13MOL   C47410578   0.284   3.604   2.193  0.2104  0.3508  0.0351
   13MOL   C47510579   0.339   3.734   2.140  0.3864  0.4304  0.0268
   13MOL   C47610580   0.483   3.771   2.168  0.1959  0.0106 -0.1607
   13MOL   C47710581   0.528   3.900   2.098 -0.3876 -0.0672  0.8037
   13MOL   H47810582   6.717   3.497   1.937  0.6383 -2.0007 -0.6471
   13MOL   H47910583   6.808   3.632   1.971  2.6862 -0.2889  0.3246
   13MOL   H48010584   6.926   3.357   1.890 -0.3982 -1.6167  1.1191
   13MOL   H48110585   7.076   3.540   1.840 -0.0108  1.4276  1.1087
   13MOL   H48210586   7.054   3.582   2.010  0.4550 -1.1928  1.4155
   13MOL   H48310587   7.220   3.364   1.892  0.4106 -0.1995 -0.2914
   13MOL   H48410588   7.163   3.361   2.056  0.2051  0.5744  0.5032
   13MOL   H48510589   7.276   3.570   2.112  0.2785 -1.3794  0.0511
   13MOL   H48610590   7.287   3.615   1.949  0.3156  0.3348 -0.3194
   13MOL   H48710591   7.420   3.357   2.015  0.8790 -0.4232 -3.1258
   13MOL   H48810592   7.472   3.468   1.909  0.4466 -1.8324 -0.3995
   13MOL   H48910593   7.588   3.618   2.075  0.1157 -0.4612 -0.5160
   13MOL   H49010594   7.497   3.545   2.201 -0.5591 -1.1018 -0.0988
   13MOL   H49110595   7.608   3.330   2.146 -0.5231  1.2648  2.0063
   13MOL   H49210596   7.677   3.392   2.012  0.1370  0.9510  0.0609
   13MOL   H49310597   0.035   3.477   2.311  0.2161 -1.7337  0.6063
   13MOL   H49410598   0.133   3.371   2.209  2.2403  1.5719 -0.0534
   13MOL   H49510599   0.131   3.595   2.041 -0.9199  3.2319 -0.3999
   13MOL   H49610600   0.076   3.666   2.189  0.9024  1.0359  0.7780
   13MOL   H49710601   0.295   3.608   2.301  1.4610  2.4172 -0.1402
   13MOL   H49810602   0.345   3.515   2.177 -0.4932 -0.1854  0.3465
   13MOL   H49910603   0.274   3.817   2.167 -0.2518  0.0807 -0.4251
   13MOL   H50010604   0.341   3.745   2.032  0.0045  1.4797  0.1174
   13MOL   H50110605   0.486   3.788   2.275 -1.3604  0.8078 -0.2266
   13MOL   H50210606   0.546   3.688   2.137 -1.8695 -1.0148 -1.7467
   13MOL   H50310607   0.515   3.896   1.990  1.0379 -0.4577  0.6370
   13MOL   H50410608   0.476   3.987   2.136  1.3435  1.8003 -0.9902
   13MOL   H50510609   0.635   3.919   2.103  0.0122 -1.9251 -0.1028
   13MOL   C50610610   6.897   3.365   2.100 -0.1820  0.4847 -0.1736
   13MOL   C50710611   6.751   3.306   2.119  0.0379  1.0606 -0.3562
   13MOL   C50810612   6.725   3.193   2.020 -0.3837 -0.1620 -0.2046
   13MOL   C50910613   6.605   3.103   2.053 -1.1955 -0.2555  0.8403
   13MOL   C51010614   6.600   2.985   1.955 -0.6521 -0.3623  0.4343
   13MOL   C51110615   6.549   3.008   1.816  1.0475 -0.2102  0.2646
   13MOL   C51210616   6.544   2.887   1.724  0.3390  0.0648  0.0308
   13MOL   C51310617   6.403   2.825   1.705  0.4934 -0.2372 -0.0541
   13MOL   C51410618   6.414   2.674   1.645  1.4559 -0.2983  0.0666
   13MOL   C51510619   6.271   2.627   1.593  0.3504 -0.7794  0.7000
   13MOL   C51610620   6.264   2.498   1.516  0.0154 -0.3832  0.2357
   13MOL   C51710621   6.128   2.456   1.465  0.8237 -0.2053  0.1358
   13MOL   C51810622   6.121   2.342   1.365  0.1227 -0.2162 -0.1466
   13MOL   C51910623   6.143   2.217   1.439 -0.2658  0.1597 -0.2797
   13MOL   H52010624   6.922   3.437   2.178 -3.0580  3.0030 -1.4314
   13MOL   H52110625   6.959   3.276   2.109 -1.7265 -0.6063 -0.1623
   13MOL   H52210626   6.674   3.379   2.097 -0.6603  0.5536  0.3893
   13MOL   H52310627   6.706   3.237   1.922  0.3390  0.6066 -0.0079
   13MOL   H52410628   6.814   3.129   2.028 -0.4919 -0.3946 -0.8739
   13MOL   H52510629   6.606   3.056   2.151 -1.0424 -0.7821  0.5874
   13MOL   H52610630   6.515   3.163   2.042 -0.7002  0.9134  2.9117
   13MOL   H52710631   6.534   2.912   2.001  0.3949 -2.8829 -1.8847
   13MOL   H52810632   6.698   2.937   1.959  0.7086  2.4253  2.3993
   13MOL   H52910633   6.610   3.085   1.768 -3.0158  2.2241 -1.2537
   13MOL   H53010634   6.448   3.048   1.825  1.4432  0.5821  1.4268
   13MOL   H53110635   6.595   2.909   1.630  1.5651 -0.9328  0.4418
   13MOL   H53210636   6.611   2.809   1.761 -0.5306 -0.3189  0.8148
   13MOL   H53310637   6.324   2.879   1.653  1.1343 -0.2531 -1.0594
   13MOL   H53410638   6.362   2.815   1.805 -0.1961 -1.4852 -0.4546
   13MOL   H53510639   6.447   2.615   1.730  0.7472  0.1297  0.6384
   13MOL   H53610640   6.493   2.667   1.570 -0.0898 -1.1766 -1.5149
   13MOL   H53710641   6.212   2.607   1.682 -0.9774 -1.3251 -0.2825
   13MOL   H53810642   6.227   2.702   1.527  0.2315 -0.3636  1.2499
   13MOL   H53910643   6.326   2.510   1.426 -1.5722  1.3401 -0.6513
   13MOL   H54010644   6.316   2.425   1.578  0.6245  1.7732  2.3062
   13MOL   H54110645   6.095   2.539   1.403 -0.2739 -1.4134 -0.9311
   13MOL   H54210646   6.057   2.445   1.547  0.1018  0.1219 -0.4454
   13MOL   H54310647   6.191   2.355   1.283 -0.5504 -0.8411 -0.8219
   13MOL   H54410648   6.023   2.352   1.319  0.8303 -0.6922 -1.7956
   13MOL   H54510649   6.129   2.135   1.369  0.4883 -1.3132  1.2450
   13MOL   H54610650   6.243   2.215   1.483  0.2118  0.5091 -1.3553
   13MOL   H54710651   6.072   2.212   1.522  0.1307  3.1032  0.2699
   13MOL   C54810652   6.734   3.266   2.271 -0.2291  0.0008 -0.6942
   13MOL   C54910653   6.704   3.384   2.371 -0.5085 -0.0446  0.4467
   13MOL   C55010654   6.564   3.443   2.353  0.0224 -0.2357 -0.0725
   13MOL   C55110655   6.442   3.345   2.372 -0.2344 -0.0435  0.1329
   13MOL   C55210656   6.305   3.409   2.397  0.0278 -0.2475 -0.4322
   13MOL   C55310657   6.193   3.306   2.431  0.2303  0.0388  0.3126
   13MOL   C55410658   6.059   3.381   2.437  0.1582 -0.4345 -0.0495
   13MOL   C55510659   5.942   3.317   2.522 -0.0670  0.6203 -1.1435
   13MOL   C55610660   5.824   3.418   2.528 -0.3137 -0.2749  0.1377
   13MOL   C55710661   5.705   3.350   2.610 -0.2761 -0.3375 -0.5721
   13MOL   C55810662   5.579   3.435   2.626  0.0170  0.0253 -0.0595
   13MOL   C55910663   5.483   3.371   2.713  0.4391 -0.3708 -0.7872
   13MOL   C56010664   5.335   3.427   2.689 -0.1443  0.1573 -0.7346
   13MOL   C56110665   5.317   3.583   2.722  0.3124 -0.0207  0.2057
   13MOL   H56210666   6.665   3.183   2.287 -0.7149  0.7828  1.3394
   13MOL   H56310667   6.827   3.220   2.304 -0.4362 -2.1426 -2.9173
   13MOL   H56410668   6.773   3.463   2.343 -0.2205 -0.8314 -1.0933
   13MOL   H56510669   6.573   3.539   2.404  2.0284 -0.1822 -0.4732
   13MOL   H56610670   6.554   3.486   2.253  1.9316 -1.5485 -0.8691
   13MOL   H56710671   6.467   3.268   2.446  3.0829  0.0932 -0.7446
   13MOL   H56810672   6.431   3.287   2.280 -1.2911  1.6690 -0.8269
   13MOL   H56910673   6.315   3.473   2.485 -1.1323 -1.3817  0.5607
   13MOL   H57010674   6.279   3.483   2.322  1.1910  0.1229 -0.4824
   13MOL   H57110675   6.213   3.249   2.522 -1.4569  1.0549  1.3464
   13MOL   H57210676   6.179   3.245   2.342 -1.0051  0.7831 -0.0053
   13MOL   H57310677   6.063   3.475   2.491 -1.5195 -0.8061  0.7659
   13MOL   H57410678   6.021   3.414   2.340 -1.3186  3.3903  1.7358
   13MOL   H57510679   5.967   3.304   2.627 -1.4956  0.6861 -0.7979
   13MOL   H57610680   5.899   3.225   2.482 -0.2981 -0.9363  2.5071
   13MOL   H57710681   5.785   3.436   2.428 -0.2787 -0.0443  0.1655
   13MOL   H57810682   5.847   3.518   2.564  0.1239 -0.0425 -0.7933
   13MOL   H57910683   5.678   3.249   2.579  0.6582 -1.0362  0.8344
   13MOL   H58010684   5.751   3.334   2.708 -0.6043  0.0067 -0.3601
   13MOL   H58110685   5.539   3.436   2.524  0.0142  0.0046 -0.0585
   13MOL   H58210686   5.605   3.537   2.656  1.3416 -0.0941 -0.7400
   13MOL   H58310687   5.488   3.264   2.695  2.4000 -0.5643  0.8143
   13MOL   H58410688   5.513   3.386   2.816 -0.7701 -0.5041 -0.4015
   13MOL   H58510689   5.310   3.416   2.583 -1.7623  0.3642 -0.3765
   13MOL   H58610690   5.258   3.376   2.746 -0.5249  2.5108  0.9145
   13MOL   H58710691   5.306   3.604   2.828 -5.1797  0.5847 -0.3422
   13MOL   H58810692   5.401   3.641   2.685  0.3473 -1.2734 -1.7971
   13MOL   H58910693   5.244   3.631   2.656  0.5495 -1.4297 -1.1236
   13MOL   C59010694   6.733   3.339   2.523  0.2759 -0.2899  0.1091
   13MOL   C59110695   6.874   3.296   2.560 -0.8681 -0.3268 -0.7508
   13MOL   C59210696   6.976   3.410   2.528 -0.2622 -0.1256  0.3538
   13MOL   C59310697   7.115   3.359   2.510  0.2572  0.0631 -0.4609
   13MOL   C59410698   7.208   3.474   2.470 -0.2710 -0.1993  0.8108
   13MOL   C59510699   7.352   3.424   2.439 -0.0268  0.5255  0.0803
   13MOL   C59610700   7.424   3.344   2.548  0.3781 -0.5170  0.2805
   13MOL   C59710701   7.568   3.323   2.525 -0.6485  0.4237  0.3662
   13MOL   C59810702   7.638   3.246   2.638 -0.5310 -0.7635 -0.2779
   13MOL   C59910703   0.097   3.225   2.616 -0.4569  0.0170 -0.6947
   13MOL   C60010704   0.182   3.354   2.642 -0.6605 -0.3604  0.1133
   13MOL   C60110705   0.333   3.325   2.631 -0.1273 -0.0303  0.1414
   13MOL   C60210706   0.429   3.437   2.602  0.5377  0.7949 -0.1146
   13MOL   C60310707   0.440   3.541   2.719  0.0904 -0.4571 -0.0399
   13MOL   H60410708   6.664   3.255   2.538  0.7170 -0.8142 -0.7384
   13MOL   H60510709   6.701   3.424   2.584 -0.6138 -0.8538  0.4567
   13MOL   H60610710   6.896   3.208   2.499 -1.2233 -1.2160  0.3818
   13MOL   H60710711   6.967   3.480   2.611  1.3280 -3.1802  3.1981
   13MOL   H60810712   6.956   3.466   2.437 -0.8516 -0.2482  0.4108
   13MOL   H60910713   7.122   3.291   2.424  1.2004 -2.8116  1.8107
   13MOL   H61010714   7.145   3.302   2.597  0.1896  0.1986 -0.3493
   13MOL   H61110715   7.212   3.562   2.533 -2.5927  2.3627 -2.3814
   13MOL   H61210716   7.175   3.517   2.375  0.8149 -1.0774  0.0313
   13MOL   H61310717   7.401   3.516   2.405 -1.6919  1.7237  0.8347
   13MOL   H61410718   7.332   3.377   2.343  0.8208  1.8620 -0.7807
   13MOL   H61510719   7.413   3.404   2.638  2.5012 -1.9011  1.4904
   13MOL   H61610720   7.371   3.254   2.578  0.9993 -2.0200 -2.8899
   13MOL   H61710721   7.590   3.261   2.437 -1.2428 -0.6405  0.9526
   13MOL   H61810722   7.629   3.411   2.506 -0.6341 -0.0062 -1.7677
   13MOL   H61910723   7.626   3.306   2.727  1.1729 -1.0116  0.1469
   13MOL   H62010724   7.592   3.153   2.672  1.2482 -1.5245  0.0992
   13MOL   H62110725   0.123   3.151   2.692 -1.7071  0.5534  0.2637
   13MOL   H62210726   0.113   3.169   2.524 -1.0144 -0.1235 -0.7083
   13MOL   H62310727   0.159   3.395   2.740  1.9297 -1.6163  1.2947
   13MOL   H62410728   0.156   3.428   2.566 -3.9094 -0.3011  1.1893
   13MOL   H62510729   0.347   3.238   2.567 -1.8400  0.2712 -0.6734
   13MOL   H62610730   0.364   3.282   2.726 -0.6552 -2.3378 -0.6942
   13MOL   H62710731   0.527   3.392   2.585 -1.4735 -2.1926 -5.1065
   13MOL   H62810732   0.396   3.480   2.508  1.5785  0.1513 -0.7829
   13MOL   H62910733   0.343   3.578   2.754  0.7651 -0.3538  1.8012
   13MOL   H63010734   0.512   3.618   2.691  1.3082 -2.1251 -1.6258
   13MOL   H63110735   0.481   3.493   2.808 -0.5932  0.2009  0.6376
   13MOL   C63210736   6.882   3.243   2.709  0.4667  0.9104 -0.0280
   13MOL   C63310737   6.805   3.108   2.734  0.9163  0.1278 -0.4769
   13MOL   C63410738   6.853   2.985   2.650  0.2267  1.2150 -0.2489
   13MOL   C63510739   6.746   2.951   2.543 -0.0455 -0.1856 -0.4835
   13MOL   C63610740   6.800   2.828   2.466  0.2364  0.0077  0.3580
   13MOL   C63710741   6.712   2.811   2.338 -0.1237  0.0139  0.1913
   13MOL   C63810742   6.574   2.751   2.358  0.2800 -0.2600 -0.1366
   13MOL   C63910743   6.470   2.861   2.357  0.2732 -0.0169  0.2675
   13MOL   C64010744   6.341   2.805   2.418  0.8561  0.3152  0.3128
   13MOL   C64110745   6.221   2.905   2.432 -0.3298  0.1152  0.7384
   13MOL   C64210746   6.126   2.846   2.530 -0.0712  0.1257  0.1323
   13MOL   C64310747   5.998   2.926   2.546  0.2506  1.1907 -0.4398
   13MOL   C64410748   5.901   2.883   2.660  0.1011  0.0661  0.1061
   13MOL   C64510749   5.843   2.746   2.639  0.0718 -0.2835 -0.6142
   13MOL   H64610750   6.860   3.320   2.782  1.9376  2.8231 -1.5420
   13MOL   H64710751   6.987   3.223   2.730  0.2128 -1.6170 -1.0035
   13MOL   H64810752   6.701   3.122   2.705  0.4366  0.0762  1.1819
   13MOL   H64910753   6.941   3.028   2.603  0.2915  2.0748  0.6248
   13MOL   H65010754   6.886   2.902   2.713 -2.0856  0.4282 -0.0310
   13MOL   H65110755   6.723   3.037   2.480 -0.2537  0.4254  0.4183
   13MOL   H65210756   6.653   2.914   2.587  0.4733 -0.3128  0.5333
   13MOL   H65310757   6.792   2.743   2.534 -2.1264  0.7919  1.0903
   13MOL   H65410758   6.906   2.846   2.448  0.0706  1.6999  0.9919
   13MOL   H65510759   6.700   2.901   2.277  0.1706 -0.3570 -0.4144
   13MOL   H65610760   6.768   2.740   2.277 -2.6843  0.6672 -2.9949
   13MOL   H65710761   6.562   2.685   2.273 -1.9673 -1.2317  0.8897
   13MOL   H65810762   6.571   2.685   2.445  0.3535  1.0032  0.8463
   13MOL   H65910763   6.458   2.896   2.255  0.2948  1.2843  0.7022
   13MOL   H66010764   6.508   2.941   2.421 -0.2468  0.3102  0.1642
   13MOL   H66110765   6.367   2.765   2.516 -1.5614  0.8316  1.2141
   13MOL   H66210766   6.306   2.722   2.356  1.8663 -0.0393  0.2142
   13MOL   H66310767   6.260   2.996   2.477 -0.5782  0.7358 -0.2889
   13MOL   H66410768   6.185   2.933   2.333 -0.4086 -1.9041  0.1729
   13MOL   H66510769   6.102   2.751   2.482 -0.3601 -0.0108  0.5404
   13MOL   H66610770   6.173   2.829   2.627 -0.4308 -0.4706  0.2061
   13MOL   H66710771   5.939   2.919   2.454  0.4192  0.6407 -0.5086
   13MOL   H66810772   6.018   3.032   2.561  1.2135  0.6607  2.3734
   13MOL   H66910773   5.816   2.951   2.655  0.9370  1.1089 -0.1875
   13MOL   H67010774   5.956   2.895   2.753 -0.5017  0.5874  0.3985
   13MOL   H67110775   5.799   2.712   2.733  0.4926  1.7516  0.3425
   13MOL   H67210776   5.766   2.741   2.562 -1.9866  0.9694  1.2910
   13MOL   H67310777   5.925   2.679   2.613  2.6719  1.9965  1.4069
   13MOL   C67410778   6.795   3.075   2.886 -0.3435 -0.4085 -0.1337
   13MOL   C67510779   6.681   3.150   2.966  0.3398  0.3387  0.1045
   13MOL   C67610780   6.553   3.069   2.958 -0.1036  0.7760  0.0410
   13MOL   C67710781   6.419   3.156   2.958 -0.5002  0.6819  0.0020
   13MOL   C67810782   6.293   3.066   2.935  0.2287 -0.3435  0.3356
   13MOL   C67910783   6.168   3.148   2.967 -1.2351 -0.1159 -0.2742
   13MOL   C68010784   6.159   3.280   2.884 -1.0033 -0.5035  0.1076
   13MOL   C68110785   6.027   3.359   2.916  0.1296 -0.9376  0.0955
   13MOL   C68210786   6.040   3.503   2.866 -0.3787  0.3799  0.1158
   13MOL   C68310787   5.903   3.582   2.866 -0.7633  0.9428  0.8921
   13MOL   C68410788   5.915   3.727   2.819  0.1732 -0.1402 -0.1034
   13MOL   C68510789   5.786   3.787   2.761 -0.4505  0.2757  0.2781
   13MOL   C68610790   5.677   3.783   2.871 -0.6428 -0.6180 -0.4006
   13MOL   C68710791   5.564   3.885   2.861 -0.6720 -0.1300  0.7027
   13MOL   H68810792   6.890   3.093   2.936 -0.4573 -1.0911  0.3263
   13MOL   H68910793   6.770   2.969   2.888  0.8734 -0.6869  0.9072
   13MOL   H69010794   6.666   3.246   2.918 -3.1346  0.5201  1.3964
   13MOL   H69110795   6.547   3.019   2.861 -2.9013  0.1532  0.4835
   13MOL   H69210796   6.554   2.984   3.026 -2.3163  2.4984  2.2890
   13MOL   H69310797   6.414   3.217   3.048  2.2741 -0.6033  1.0813
   13MOL   H69410798   6.420   3.217   2.867 -1.5929  0.0644 -0.4357
   13MOL   H69510799   6.276   3.022   2.837 -1.4414 -0.8881  0.8677
   13MOL   H69610800   6.294   2.977   2.997 -1.3329 -0.1625  0.6425
   13MOL   H69710801   6.092   3.077   2.931 -0.0089 -0.7056 -1.7679
   13MOL   H69810802   6.160   3.164   3.074 -0.6846 -2.0147  0.0710
   13MOL   H69910803   6.238   3.348   2.915 -0.5292 -0.6414 -0.7847
   13MOL   H70010804   6.164   3.254   2.778 -3.1239  0.6495 -0.3007
   13MOL   H70110805   5.939   3.313   2.871 -0.9503  0.6826  0.5006
   13MOL   H70210806   5.992   3.356   3.020 -2.9376  2.1297 -0.7600
   13MOL   H70310807   6.111   3.542   2.938 -0.9139 -1.6600  1.8193
   13MOL   H70410808   6.071   3.509   2.762 -0.7886  2.0342  0.0864
   13MOL   H70510809   5.861   3.569   2.966 -0.8114  3.0210  1.1769
   13MOL   H70610810   5.827   3.529   2.809  0.4968  0.7849 -0.6651
   13MOL   H70710811   6.002   3.751   2.757  0.2308  1.4937  0.5684
   13MOL   H70810812   5.940   3.783   2.909 -0.3412  0.7277 -0.4992
   13MOL   H70910813   5.754   3.725   2.677  2.8471 -0.3246 -0.6085
   13MOL   H71010814   5.810   3.885   2.721  0.8021 -1.0388 -2.3587
   13MOL   H71110815   5.633   3.683   2.876  0.0362 -0.8029  3.5320
   13MOL   H71210816   5.727   3.793   2.968  1.0369 -1.9001 -1.1103
   13MOL   H71310817   5.588   3.991   2.857  1.1339 -0.4814  1.4351
   13MOL   H71410818   5.509   3.866   2.769 -0.8577  0.5021  0.6846
   13MOL   H71510819   5.509   3.865   2.953  0.4052 -1.2734  1.1211
   13MOL   C71610820   6.707   3.175   3.114  0.8390 -0.1963  0.1350
   13MOL   C71710821   6.680   3.321   3.164 -0.3057 -0.2346 -0.9489
   13MOL   C71810822   6.686   3.330   3.321  0.4676  0.1552 -0.0275
   13MOL   C71910823   6.597   3.249   3.406  0.3252  0.3331  0.4000
   13MOL   C72010824   6.449   3.246   3.370  0.2423  0.2694  0.2332
   13MOL   C72110825   6.365   3.185   3.477  0.7490 -0.5250  0.3595
   13MOL   C72210826   6.218   3.189   3.432  0.4799  0.0992  1.1072
   13MOL   C72310827   6.130   3.171   3.565 -0.0502 -0.7383 -0.1666
   13MOL   C72410828   5.969   3.166   3.544  0.4027  0.3669 -0.0301
   13MOL   C72510829   5.902   3.291   3.482  1.2530 -0.1935  0.2273
   13MOL   C72610830   5.749   3.282   3.462  0.2139  0.2782 -0.1399
   13MOL   C72710831   5.677   3.420   3.457  0.1572  0.0655 -0.0635
   13MOL   C72810832   5.681   3.511   3.576 -0.0251 -0.3013 -0.3527
   13MOL   C72910833   5.664   3.661   3.542  0.2445 -0.1098  0.1404
   13MOL   H73010834   6.646   3.113   3.180  0.1534  0.6536  0.2959
   13MOL   H73110835   6.812   3.166   3.143  1.1479 -1.9707 -1.4144
   13MOL   H73210836   6.579   3.352   3.137  0.1880  2.3771 -0.0091
   13MOL   H73310837   6.687   3.433   3.357 -0.8448 -0.2486  1.2408
   13MOL   H73410838   6.793   3.317   3.341  0.3045 -1.0960  0.0611
   13MOL   H73510839   6.649   3.153   3.403  0.2266  0.2067  2.1988
   13MOL   H73610840   6.605   3.284   3.509 -2.2672  1.5927  0.2137
   13MOL   H73710841   6.418   3.348   3.346 -1.7612 -0.4886 -0.5167
   13MOL   H73810842   6.444   3.194   3.274 -0.5755  0.7893 -0.0174
   13MOL   H73910843   6.398   3.085   3.504  0.1914 -0.8093  0.0064
   13MOL   H74010844   6.375   3.238   3.572  0.7633 -1.8081  1.0846
   13MOL   H74110845   6.196   3.286   3.388  3.0506  0.0097 -0.4949
   13MOL   H74210846   6.207   3.110   3.358  0.0223 -0.0409  1.3212
   13MOL   H74310847   6.157   3.255   3.628  0.2793 -0.0404 -1.2193
   13MOL   H74410848   6.172   3.081   3.611  1.2729 -1.5122 -2.7653
   13MOL   H74510849   5.945   3.071   3.496 -0.2933 -0.7288  2.4154
   13MOL   H74610850   5.919   3.150   3.639  0.1954 -0.4280 -0.2654
   13MOL   H74710851   5.918   3.370   3.555  2.1211 -0.2573  0.1122
   13MOL   H74810852   5.941   3.320   3.384 -0.4205 -1.1380 -0.7462
   13MOL   H74910853   5.725   3.230   3.368  0.5147  0.0722 -0.1044
   13MOL   H75010854   5.703   3.232   3.547  1.0786 -0.8752 -0.3326
   13MOL   H75110855   5.732   3.479   3.384  1.6319 -0.9414  0.1939
   13MOL   H75210856   5.579   3.406   3.413  0.0594  2.1177 -0.5428
   13MOL   H75310857   5.776   3.490   3.626  1.1966  2.2933 -1.4545
   13MOL   H75410858   5.595   3.485   3.637 -0.0989 -0.5956 -0.5836
   13MOL   H75510859   5.661   3.715   3.637  0.0951  0.0920  0.0218
   13MOL   H75610860   5.574   3.677   3.483  0.4372  2.7939  0.5485
   13MOL   H75710861   5.749   3.708   3.491 -0.7501  0.8786 -0.6499
   13MOL   C75810862   6.785   3.429   3.104 -0.3792 -0.2384  0.6352
   13MOL   C75910863   6.746   3.577   3.121 -0.3356  0.2207  0.0412
   13MOL   C76010864   6.871   3.662   3.126 -0.0058 -0.3514 -0.5751
   13MOL   C76110865   6.949   3.678   2.991 -0.2461  0.1473 -0.6818
   13MOL   C76210866   7.069   3.768   2.998  0.2520  0.1337  0.4741
   13MOL   C76310867   7.138   3.785   2.858  0.0459 -0.6937  0.2767
   13MOL   C76410868   7.264   3.884   2.878 -0.1258 -0.8377  0.6371
   13MOL   C76510869   7.290   3.956   2.744  0.2104  0.4022 -0.2328
   13MOL   C76610870   7.330   3.868   2.620  0.0677 -0.3088  0.2169
   13MOL   C76710871   7.379   3.964   2.510 -0.4024 -0.2373  0.7372
   13MOL   C76810872   7.397   3.900   2.373  0.1206 -0.1261 -0.3040
   13MOL   C76910873   7.399   4.005   2.259  0.0657 -0.7297  0.6307
   13MOL   C77010874   7.423   3.955   2.115 -0.0557 -0.3876 -0.2517
   13MOL   C77110875   7.384   4.063   2.021  0.1527 -0.4004 -0.5605
   13MOL   H77210876   6.888   3.408   3.133 -0.2088 -1.7276 -0.9935
   13MOL   H77310877   6.794   3.412   2.997  2.6680  0.6443  0.7040
   13MOL   H77410878   6.698   3.593   3.218  1.6675  1.9112  0.7878
   13MOL   H77510879   6.860   3.764   3.163  3.0921 -1.1453  2.8382
   13MOL   H77610880   6.940   3.624   3.201  1.8364  3.4848 -0.1799
   13MOL   H77710881   6.991   3.581   2.964 -1.8940 -1.0732  0.9740
   13MOL   H77810882   6.881   3.702   2.909 -0.8057 -2.7705 -1.1273
   13MOL   H77910883   7.145   3.733   3.068  1.7826  2.2893 -0.0781
   13MOL   H78010884   7.044   3.867   3.038  2.4709  0.7448  0.4482
   13MOL   H78110885   7.065   3.821   2.786 -0.0084 -0.6685  0.3434
   13MOL   H78210886   7.175   3.692   2.815  1.0012  0.1901 -0.8404
   13MOL   H78310887   7.238   3.960   2.952 -1.1379  2.6063 -3.0605
   13MOL   H78410888   7.346   3.828   2.921  0.9699  0.9920  0.9731
   13MOL   H78510889   7.381   4.015   2.759  0.9257 -0.4428 -1.1896
   13MOL   H78610890   7.202   4.012   2.713 -2.4162 -3.7708 -0.7206
   13MOL   H78710891   7.236   3.823   2.590 -0.6954  0.4885  1.3773
   13MOL   H78810892   7.399   3.787   2.646 -1.3040 -0.7697  2.5367
   13MOL   H78910893   7.477   4.005   2.531  0.3199 -0.8488 -1.3066
   13MOL   H79010894   7.316   4.052   2.496  0.6301  0.6958  1.8038
   13MOL   H79110895   7.488   3.840   2.373  2.1580  2.7561 -2.2034
   13MOL   H79210896   7.318   3.830   2.351 -0.7867  0.4551  1.0396
   13MOL   H79310897   7.307   4.063   2.260 -1.1393 -2.5216 -1.4792
   13MOL   H79410898   7.479   4.075   2.285 -1.3512  1.2554 -0.2425
   13MOL   H79510899   7.524   3.921   2.095  0.4461 -0.3649  2.0402
   13MOL   H79610900   7.366   3.863   2.104 -0.1027 -0.4511  0.5049
   13MOL   H79710901   7.454   4.147   2.017 -1.9700  1.3839 -0.8875
   13MOL   H79810902   7.394   4.040   1.915  0.0257 -1.3183 -0.3795
   13MOL   H79910903   7.282   4.099   2.032 -0.1449 -0.8807 -1.7449
   13MOL   C80010904   6.655   3.623   3.002 -0.2434  0.4655  0.0175
   13MOL   C80110905   6.503   3.588   3.009 -0.7457 -0.4230  0.5194
   13MOL   C80210906   6.422   3.677   2.922  0.5914  0.5827 -0.6753
   13MOL   C80310907   6.453   3.676   2.776  0.1626  0.3295 -0.2301
   13MOL   C80410908   6.370   3.780   2.692  0.5521  0.2065 -0.4865
   13MOL   C80510909   6.372   3.924   2.751  0.3218  0.3261 -0.4079
   13MOL   C80610910   6.358   4.039   2.652  0.1133  0.0433  1.1576
   13MOL   C80710911   6.482   4.058   2.563 -0.0499 -0.5023  0.0757
   13MOL   C80810912   6.458   4.164   2.461 -0.2193 -0.0404  0.4052
   13MOL   C80910913   6.576   4.178   2.370 -0.0319 -0.2411 -0.0799
   13MOL   C81010914   6.558   4.281   2.261  0.0145  0.0707  0.3139
   13MOL   C81110915   6.674   4.270   2.156 -0.1132  0.5476  0.6765
   13MOL   C81210916   6.662   4.356   2.029 -0.3232 -0.5688 -0.1064
   13MOL   C81310917   6.561   4.293   1.921  0.0293  0.1473 -0.6523
   13MOL   H81410918   6.691   3.589   2.904 -0.1256  1.2111 -0.2021
   13MOL   H81510919   6.657   3.732   3.001  0.8757  0.4547 -1.8408
   13MOL   H81610920   6.460   3.593   3.109 -0.1351 -0.3286  0.7751
   13MOL   H81710921   6.445   3.773   2.968 -1.1319  0.0993  1.2654
   13MOL   H81810922   6.317   3.660   2.947  0.5963 -0.2788 -1.2253
   13MOL   H81910923   6.432   3.572   2.750 -0.8935  0.5741 -0.3758
   13MOL   H82010924   6.557   3.705   2.762 -0.3851  2.1878 -0.5915
   13MOL   H82110925   6.418   3.789   2.594  0.7872  0.1071 -0.3815
   13MOL   H82210926   6.270   3.743   2.674  0.5751  0.7399 -1.8230
   13MOL   H82310927   6.463   3.957   2.801  0.4826 -1.2949  0.4266
   13MOL   H82410928   6.291   3.942   2.822  0.0658  0.9847 -0.8592
   13MOL   H82510929   6.268   4.016   2.596  1.4951 -1.5582 -0.4617
   13MOL   H82610930   6.343   4.133   2.706 -0.2855  0.9889 -0.5871
   13MOL   H82710931   6.563   4.091   2.628  0.6328 -0.9002 -0.5688
   13MOL   H82810932   6.508   3.964   2.515  0.1190 -0.2628 -0.3116
   13MOL   H82910933   6.369   4.140   2.401 -1.1036  0.3155  1.5623
   13MOL   H83010934   6.435   4.260   2.507  0.1218  0.5838 -0.7043
   13MOL   H83110935   6.597   4.081   2.325 -0.8585 -1.5809  2.3144
   13MOL   H83210936   6.672   4.192   2.420  0.3813  0.3480 -1.0286
   13MOL   H83310937   6.464   4.262   2.208 -0.3285 -0.7764  1.2206
   13MOL   H83410938   6.556   4.382   2.302 -0.2882 -0.6158  1.9974
   13MOL   H83510939   6.692   4.166   2.128  0.5277  1.2254 -1.4551
   13MOL   H83610940   6.757   4.310   2.213  1.2954 -0.2075 -0.8101
   13MOL   H83710941   6.623   4.457   2.047  0.8157  0.0882 -1.2137
   13MOL   H83810942   6.756   4.367   1.976 -0.6568 -0.2089 -0.6288
   13MOL   H83910943   6.612   4.209   1.874  0.4750  0.6686 -1.1023
   13MOL   H84010944   6.477   4.250   1.976  1.1166 -0.9673  0.1686
   13MOL   H84110945   6.532   4.361   1.841 -0.9675  0.0386 -0.3880
   13MOL   H84210946   6.475   3.488   2.976 -1.7944 -0.1593  0.5764
   14MOL     C110947   5.330   2.598   2.481 -0.0305  0.2634  0.8629
   14MOL     C210948   5.470   2.527   2.468 -0.4577  0.1593 -0.0395
   14MOL     C310949   5.556   2.598   2.358 -0.0149  0.5575  0.1008
   14MOL     C410950   5.653   2.507   2.280 -0.0734  0.4345 -1.0105
   14MOL     C510951   5.713   2.579   2.164 -0.2338  0.4801 -0.1515
   14MOL     C610952   5.812   2.681   2.220 -0.0626  0.3213  0.4580
   14MOL     C710953   5.847   2.778   2.107 -0.1675  0.1956 -0.2949
   14MOL     C810954   5.929   2.897   2.156 -0.4668 -0.7421  0.6043
   14MOL     C910955   5.952   3.006   2.052 -0.0921  0.0574 -0.0376
   14MOL    C1010956   6.041   3.125   2.090  0.3406  0.5969 -0.0303
   14MOL    C1110957   6.071   3.225   1.974  0.6652 -0.0627 -0.1149
   14MOL    C1210958   6.200   3.299   1.993  0.0684  0.1222 -0.0016
   14MOL    C1310959   6.220   3.402   1.883 -0.0937  0.3365  0.3990
   14MOL    C1410960   6.284   3.343   1.759  0.0395 -0.3050  0.1938
   14MOL    H1510961   5.325   2.664   2.567  1.0936 -1.9990  2.7208
   14MOL    H1610962   5.244   2.542   2.519 -0.6541  1.1762  0.8010
   14MOL    H1710963   5.460   2.423   2.436  2.3104 -0.0624 -0.3040
   14MOL    H1810964   5.495   2.638   2.277 -0.5849  1.7714  1.1179
   14MOL    H1910965   5.613   2.672   2.414  3.4559 -2.0423  0.1544
   14MOL    H2010966   5.596   2.421   2.246 -2.2368  1.5929 -0.4268
   14MOL    H2110967   5.728   2.472   2.351 -2.9657  0.1035  2.0009
   14MOL    H2210968   5.643   2.630   2.097 -0.1308  1.0208  0.1448
   14MOL    H2310969   5.769   2.508   2.104  2.3077  1.8216  0.5565
   14MOL    H2410970   5.899   2.636   2.268  0.3955  1.1264  0.3984
   14MOL    H2510971   5.778   2.740   2.306  0.8479  3.4292 -1.2152
   14MOL    H2610972   5.906   2.718   2.038  1.9369  0.9212  0.8308
   14MOL    H2710973   5.756   2.821   2.065 -1.0829 -2.3478 -1.0539
   14MOL    H2810974   6.030   2.861   2.177  0.0843 -0.4976 -1.4612
   14MOL    H2910975   5.880   2.932   2.247 -0.7821 -0.4541  0.3271
   14MOL    H3010976   5.988   2.958   1.961  1.6765 -0.6078  0.9868
   14MOL    H3110977   5.859   3.053   2.020  0.0143 -0.0357 -0.4937
   14MOL    H3210978   5.999   3.184   2.172 -1.2524 -0.2731 -0.1879
   14MOL    H3310979   6.128   3.075   2.131  0.3260  0.4848 -0.1361
   14MOL    H3410980   6.085   3.174   1.879  0.0852  0.5483 -0.5370
   14MOL    H3510981   5.988   3.295   1.969 -1.6469 -2.3637  3.3550
   14MOL    H3610982   6.288   3.236   1.995 -0.7475 -1.0259  0.0573
   14MOL    H3710983   6.215   3.350   2.088  1.2482 -0.8093  0.3182
   14MOL    H3810984   6.126   3.439   1.842  0.3714 -2.1617 -3.2100
   14MOL    H3910985   6.288   3.478   1.920 -1.1047  1.7370 -0.5904
   14MOL    H4010986   6.306   3.428   1.694  2.3478 -0.3360  0.8902
   14MOL    H4110987   6.371   3.286   1.789  0.5322  0.0947 -0.4727
   14MOL    H4210988   6.218   3.276   1.704  0.0246  0.9418 -1.3419
   14MOL    H4310989   5.305   2.655   2.392  1.8872  0.8802  0.6912
   14MOL    C4410990   5.540   2.515   2.608  0.0235  0.5972  0.2213
   14MOL    C4510991   5.467   2.425   2.710  0.2944  0.4414  0.0592
   14MOL    C4610992   5.523   2.458   2.854  0.0380  0.0224  0.3141
   14MOL    C4710993   5.500   2.601   2.907  0.1591 -0.0242 -0.0200
   14MOL    C4810994   5.358   2.645   2.942  0.7451  0.0549 -0.9356
   14MOL    C4910995   5.293   2.578   3.069  0.3004 -0.4298 -0.0713
   14MOL    C5010996   5.363   2.605   3.206  0.0929 -0.4729  0.4390
   14MOL    C5110997   5.294   2.551   3.332 -0.1910 -0.2842 -0.3814
   14MOL    C5210998   5.160   2.627   3.368  0.2941 -0.5924 -0.5707
   14MOL    C5310999   5.071   2.562   3.473  0.6305 -0.0809 -0.0544
   14MOL    C5411000   4.950   2.650   3.516  0.2913  0.3623 -0.0272
   14MOL    C5511001   4.832   2.571   3.580  0.1610 -0.6315  0.0056
   14MOL    C5611002   4.722   2.661   3.639 -0.1925  0.0766 -0.1809
   14MOL    C5711003   4.595   2.583   3.675  0.4060  0.2941 -0.1634
   14MOL    H5811004   5.643   2.485   2.591 -0.3170 -0.3177 -0.2611
   14MOL    H5911005   5.549   2.615   2.652 -1.9262  0.5685  0.7426
   14MOL    H6011006   5.360   2.437   2.726  0.2692 -1.4244  1.5613
   14MOL    H6111007   5.483   2.390   2.929  0.8066  0.8911  1.5450
   14MOL    H6211008   5.631   2.447   2.864  0.2560  0.6051 -1.3512
   14MOL    H6311009   5.550   2.676   2.845 -1.2976  1.5123  0.6089
   14MOL    H6411010   5.563   2.620   2.994 -0.7762  0.0615  0.6412
   14MOL    H6511011   5.293   2.638   2.854  0.3585  1.8658 -0.8106
   14MOL    H6611012   5.355   2.753   2.952 -1.4698 -0.0111 -0.5491
   14MOL    H6711013   5.194   2.624   3.073  0.3883 -0.0687 -1.6608
   14MOL    H6811014   5.270   2.473   3.050  0.9253 -0.2641 -1.8388
   14MOL    H6911015   5.452   2.542   3.208 -0.4480 -1.2650 -0.3425
   14MOL    H7011016   5.386   2.710   3.220 -1.1876  0.1131 -1.6866
   14MOL    H7111017   5.360   2.547   3.418  0.7899 -0.4828 -1.1292
   14MOL    H7211018   5.282   2.444   3.319 -1.1544 -0.6395  2.9810
   14MOL    H7311019   5.189   2.725   3.407 -1.4318 -0.3348  0.1018
   14MOL    H7411020   5.099   2.643   3.279 -0.8669  1.1906  0.5186
   14MOL    H7511021   5.138   2.539   3.556  1.6438  0.7882 -0.6066
   14MOL    H7611022   5.042   2.470   3.422  1.4419 -1.3951  1.7962
   14MOL    H7711023   4.904   2.682   3.422  1.5438 -1.0532 -1.1414
   14MOL    H7811024   4.984   2.744   3.560 -0.6025 -0.3552  2.3207
   14MOL    H7911025   4.779   2.517   3.500 -0.8674 -0.7548  0.7562
   14MOL    H8011026   4.869   2.504   3.658 -1.6870 -1.1296  0.4936
   14MOL    H8111027   4.682   2.735   3.569 -4.7903 -1.5534  0.5457
   14MOL    H8211028   4.764   2.706   3.729  0.0018 -1.0356  0.3008
   14MOL    H8311029   4.603   2.511   3.757 -0.5034 -0.1314 -0.4390
   14MOL    H8411030   4.562   2.517   3.595 -0.0636 -0.7748  0.8932
   14MOL    H8511031   4.506   2.644   3.683 -0.3305 -0.8192  0.2143
   14MOL    C8611032   5.493   2.274   2.671  0.2787  0.0551  0.3551
   14MOL    C8711033   5.359   2.196   2.625  0.0571 -0.0443  0.3266
   14MOL    C8811034   5.239   2.189   2.723 -0.2613  0.6381 -0.4523
   14MOL    C8911035   5.276   2.130   2.861 -0.6544  0.3500  0.1509
   14MOL    C9011036   5.172   2.170   2.966  0.9721  0.0770  0.1972
   14MOL    C9111037   5.169   2.079   3.091 -0.1409 -0.3030  0.7842
   14MOL    C9211038   5.068   2.120   3.194 -0.6122  0.7827  0.2065
   14MOL    C9311039   5.108   2.075   3.337 -0.4781 -0.1699  0.0630
   14MOL    C9411040   5.017   2.138   3.446 -0.1855  0.3772 -0.3378
   14MOL    C9511041   5.066   2.129   3.584  0.0263 -0.1801 -0.3776
   14MOL    C9611042   4.970   2.185   3.695  0.3490  0.0584  0.3011
   14MOL    C9711043   5.038   2.222   3.830  0.3739  0.4398  0.1818
   14MOL    C9811044   4.945   2.283   3.937  0.2529 -0.3579  0.2119
   14MOL    C9911045   5.020   2.322   4.064 -0.3021  0.6782  0.1901
   14MOL   H10011046   5.556   2.266   2.582 -1.0683 -1.2768 -0.5055
   14MOL   H10111047   5.548   2.215   2.744 -0.5004 -2.9831 -1.3904
   14MOL   H10211048   5.325   2.252   2.538 -1.9047 -4.6299 -2.0489
   14MOL   H10311049   5.195   2.286   2.749 -0.5525  0.3959 -0.0383
   14MOL   H10411050   5.147   2.153   2.677  0.3929 -0.5164 -0.8769
   14MOL   H10511051   5.276   2.022   2.846  1.9791  0.5008 -1.1733
   14MOL   H10611052   5.369   2.172   2.899  0.9056 -2.0304 -0.8973
   14MOL   H10711053   5.084   2.150   2.905 -0.0638  1.3452  1.2498
   14MOL   H10811054   5.184   2.277   2.987  0.8413  0.4065 -1.3291
   14MOL   H10911055   5.269   2.096   3.130  0.1074  2.0063 -0.8194
   14MOL   H11011056   5.158   1.974   3.061 -2.4298  0.9347 -2.9750
   14MOL   H11111057   5.040   2.225   3.183 -1.0727  0.3768 -3.0039
   14MOL   H11211058   4.974   2.072   3.166  1.3472 -2.2628 -1.4411
   14MOL   H11311059   5.215   2.088   3.355 -0.3169  0.6197 -1.3625
   14MOL   H11411060   5.098   1.967   3.343 -2.1178  0.1210  3.3387
   14MOL   H11511061   4.999   2.243   3.423 -1.7826  0.9241  2.9908
   14MOL   H11611062   4.918   2.092   3.441  0.4934 -1.0211 -0.9238
   14MOL   H11711063   5.162   2.180   3.591 -0.8674  1.8443 -2.2363
   14MOL   H11811064   5.086   2.024   3.605  0.5492 -0.2447 -1.1662
   14MOL   H11911065   4.933   2.279   3.654 -0.4409 -0.5024 -0.2851
   14MOL   H12011066   4.882   2.125   3.717  1.0304 -0.9772  0.2631
   14MOL   H12111067   5.094   2.135   3.864 -1.2102 -0.6857 -0.0075
   14MOL   H12211068   5.115   2.296   3.808  0.4197  0.3105 -0.0981
   14MOL   H12311069   4.868   2.209   3.957  1.1736 -1.9061 -1.8495
   14MOL   H12411070   4.897   2.373   3.897  0.0929 -0.0754  1.0348
   14MOL   H12511071   5.044   2.236   4.127 -1.6910  0.0302 -0.1522
   14MOL   H12611072   5.113   2.377   4.046  0.1501 -0.7238 -1.8940
   14MOL   H12711073   4.954   2.388   4.120  0.9867  0.2479  2.2917
   14MOL   C12811074   5.389   2.057   2.570 -0.0845 -0.8451 -0.5936
   14MOL   C12911075   5.289   1.993   2.479  0.3708  0.0207  0.9412
   14MOL   C13011076   5.232   2.064   2.355  0.1766 -0.5153  0.3896
   14MOL   C13111077   5.323   2.105   2.242 -0.2904 -0.8296 -0.2394
   14MOL   C13211078   5.253   2.145   2.112  0.2669 -0.4769 -0.3747
   14MOL   C13311079   5.335   2.233   2.008  0.2567 -0.3912  0.7481
   14MOL   C13411080   5.346   2.382   2.032  0.8635 -0.1354 -0.3735
   14MOL   C13511081   5.424   2.456   1.925  0.1199 -0.0743  0.8516
   14MOL   C13611082   5.382   2.435   1.775  0.2957  0.1975 -0.2968
   14MOL   C13711083   5.244   2.487   1.730 -0.6215 -0.0292  0.4833
   14MOL   C13811084   5.214   2.446   1.581  0.6744 -0.7324 -0.2705
   14MOL   C13911085   5.088   2.500   1.512 -0.9476  0.4848  0.8374
   14MOL   C14011086   5.083   2.489   1.358 -0.7678  0.3792  0.2117
   14MOL   C14111087   5.037   2.353   1.305 -0.2426  1.3162  0.2347
   14MOL   H14211088   5.477   2.043   2.508  0.4857  0.1900 -0.0378
   14MOL   H14311089   5.424   1.993   2.651 -0.0986  0.7343  0.6991
   14MOL   H14411090   5.196   1.985   2.536 -0.2529  1.1717  0.1278
   14MOL   H14511091   5.154   2.002   2.311 -1.3494 -0.5029  3.0240
   14MOL   H14611092   5.181   2.156   2.383 -3.4457 -1.2521 -3.2644
   14MOL   H14711093   5.384   2.188   2.279  0.8201 -2.0150  0.6235
   14MOL   H14811094   5.391   2.023   2.220 -1.5905 -2.1216  0.4784
   14MOL   H14911095   5.224   2.056   2.056  0.3998  0.1988 -1.5271
   14MOL   H15011096   5.161   2.191   2.148  0.5246 -1.0622  1.0538
   14MOL   H15111097   5.435   2.191   1.994  0.4240 -0.1696  1.2354
   14MOL   H15211098   5.285   2.216   1.914  0.3542 -0.5764  0.7306
   14MOL   H15311099   5.242   2.415   2.041  1.8739  2.8732  1.0663
   14MOL   H15411100   5.382   2.401   2.133  1.3458 -0.2820 -0.5186
   14MOL   H15511101   5.417   2.563   1.943  0.3207  0.1885 -0.5316
   14MOL   H15611102   5.527   2.425   1.943  0.5227  0.0225 -1.1421
   14MOL   H15711103   5.460   2.481   1.714  0.5594  0.1683  0.0219
   14MOL   H15811104   5.394   2.330   1.747 -0.8873  0.3469 -1.3975
   14MOL   H15911105   5.250   2.595   1.742  0.6487 -0.3003  2.6381
   14MOL   H16011106   5.165   2.448   1.794 -1.8464  0.8509 -0.4704
   14MOL   H16111107   5.301   2.482   1.526 -0.8937  1.8607 -1.1276
   14MOL   H16211108   5.222   2.339   1.564 -1.4493 -0.9743  0.1924
   14MOL   H16311109   5.021   2.433   1.566 -1.2848 -0.6597 -0.9822
   14MOL   H16411110   5.090   2.602   1.551 -1.5150  0.9095 -0.2552
   14MOL   H16511111   5.013   2.564   1.320  0.8863  1.4130 -0.8316
   14MOL   H16611112   5.172   2.529   1.310 -1.3238 -0.3320 -1.4501
   14MOL   H16711113   5.119   2.283   1.320  0.1201  1.8599  0.8148
   14MOL   H16811114   4.949   2.312   1.354 -0.6972  0.0450 -1.5972
   14MOL   H16911115   5.006   2.366   1.202 -1.3312  1.3816  0.5582
   14MOL   C17011116   5.325   1.848   2.432  0.0392  0.0020  0.0688
   14MOL   C17111117   5.363   1.751   2.543  0.0258  0.3381 -0.6867
   14MOL   C17211118   5.247   1.743   2.661 -0.3802  0.0057 -0.5565
   14MOL   C17311119   5.271   1.664   2.791  0.0776 -0.2038  0.0704
   14MOL   C17411120   5.176   1.715   2.904  0.5234 -0.2215  0.2582
   14MOL   C17511121   5.018   1.695   2.887  0.2723  0.5631  0.3163
   14MOL   C17611122   4.932   1.743   3.001  0.0301  0.3968  0.0002
   14MOL   C17711123   4.791   1.717   3.000  0.6956  0.2838  0.0595
   14MOL   C17811124   4.713   1.784   3.115  0.4417 -0.0755  0.0871
   14MOL   C17911125   4.563   1.776   3.087 -0.1180  0.4037 -0.3644
   14MOL   C18011126   4.482   1.831   3.204 -0.6608  0.3782 -0.3443
   14MOL   C18111127   4.331   1.823   3.188  0.3360 -0.6164  0.4020
   14MOL   C18211128   4.263   1.803   3.329 -0.2194  0.1168 -0.1014
   14MOL   C18311129   4.120   1.736   3.318 -0.0748  1.0685 -0.0793
   14MOL   H18411130   5.409   1.856   2.363 -0.9342  1.9167 -0.9275
   14MOL   H18511131   5.235   1.818   2.379  0.0544 -0.8007  0.4850
   14MOL   H18611132   5.457   1.789   2.583  0.2570  1.1878 -1.9969
   14MOL   H18711133   5.214   1.844   2.685  3.1688  1.8651 -2.8826
   14MOL   H18811134   5.159   1.715   2.603  1.5556  0.0235 -3.6110
   14MOL   H18911135   5.283   1.555   2.789 -0.5196 -0.2754  0.3580
   14MOL   H19011136   5.369   1.694   2.829  0.8340  1.3811 -2.9510
   14MOL   H19111137   5.209   1.663   2.993 -1.3370 -3.1229 -0.6821
   14MOL   H19211138   5.193   1.821   2.927  0.4779  0.1369 -1.2709
   14MOL   H19311139   4.995   1.594   2.855 -0.4432  1.0720 -0.7913
   14MOL   H19411140   4.980   1.751   2.801  0.4502  0.4259  0.1452
   14MOL   H19511141   4.946   1.851   2.995  2.5817  0.0972 -0.0865
   14MOL   H19611142   4.981   1.701   3.089  1.5679 -1.4887 -1.6899
   14MOL   H19711143   4.760   1.613   2.994 -0.5011  0.6104  0.5130
   14MOL   H19811144   4.745   1.766   2.915 -1.8608 -2.1188  0.0081
   14MOL   H19911145   4.765   1.880   3.109  0.3551 -0.0420 -0.1159
   14MOL   H20011146   4.743   1.740   3.210  1.3098 -1.7045 -0.9180
   14MOL   H20111147   4.531   1.674   3.067 -0.8553 -0.0370  2.7467
   14MOL   H20211148   4.536   1.834   2.999  1.0141  1.9212  0.2624
   14MOL   H20311149   4.520   1.930   3.229  1.1910 -0.4272  0.1136
   14MOL   H20411150   4.511   1.763   3.284 -0.0777  2.1181  0.9431
   14MOL   H20511151   4.278   1.903   3.135  2.4210  0.4983 -0.0478
   14MOL   H20611152   4.313   1.728   3.137 -0.1316 -0.2262 -0.1620
   14MOL   H20711153   4.322   1.735   3.390  0.4685 -0.4413 -1.3569
   14MOL   H20811154   4.262   1.895   3.387  0.3854  0.2425 -0.2913
   14MOL   H20911155   4.136   1.638   3.274 -1.4859  0.2397  1.2065
   14MOL   H21011156   4.054   1.799   3.258  1.3721  2.9514  0.2353
   14MOL   H21111157   4.069   1.709   3.411 -0.5814  0.0292 -0.6513
   14MOL   C21211158   5.396   1.615   2.496 -0.0789  0.8708 -0.1711
   14MOL   C21311159   5.302   1.525   2.421 -0.8726  0.2645  0.5962
   14MOL   C21411160   5.294   1.554   2.268  0.8471 -1.3155 -0.4564
   14MOL   C21511161   5.422   1.541   2.189 -0.2750 -0.1754 -0.2399
   14MOL   C21611162   5.412   1.569   2.040 -0.2640  0.4584  0.1917
   14MOL   C21711163   5.401   1.719   2.006 -0.6508  0.2344 -0.2049
   14MOL   C21811164   5.432   1.743   1.862 -0.2738 -0.0285 -0.1595
   14MOL   C21911165   5.408   1.889   1.829 -0.4488  0.2768 -0.1100
   14MOL   C22011166   5.420   1.910   1.680 -0.8724 -0.2439  0.2841
   14MOL   C22111167   5.562   1.900   1.632  0.8644  0.0669  0.3230
   14MOL   C22211168   5.577   1.937   1.482  0.0376  0.0283  0.2432
   14MOL   C22311169   5.717   1.924   1.437  0.0370 -0.3970 -0.5416
   14MOL   C22411170   5.741   1.973   1.296  0.3006 -0.2415  0.0638
   14MOL   C22511171   5.886   1.965   1.253 -0.3191 -0.2149 -0.0306
   14MOL   H22611172   5.427   1.566   2.588  0.9996  0.1117 -0.9351
   14MOL   H22711173   5.489   1.624   2.441  1.4963 -2.1317  1.8643
   14MOL   H22811174   5.202   1.555   2.452 -1.2603  0.2851 -0.6630
   14MOL   H22911175   5.223   1.488   2.219  0.4208 -1.0277 -0.2282
   14MOL   H23011176   5.249   1.652   2.254 -0.3488 -1.6497  0.9157
   14MOL   H23111177   5.482   1.451   2.201  1.1348  0.7922 -0.0176
   14MOL   H23211178   5.496   1.611   2.226 -0.0090 -0.4883 -0.1852
   14MOL   H23311179   5.340   1.503   1.991 -0.2548  1.3964 -1.1198
   14MOL   H23411180   5.513   1.546   2.005 -0.8508  0.3534 -1.5086
   14MOL   H23511181   5.468   1.774   2.073 -2.4496  1.2635  0.7855
   14MOL   H23611182   5.305   1.758   2.037  0.0322  1.2079  0.7384
   14MOL   H23711183   5.535   1.715   1.844 -0.3921 -1.0253  0.6387
   14MOL   H23811184   5.365   1.680   1.803 -0.2747 -0.4245  0.2585
   14MOL   H23911185   5.304   1.905   1.857 -0.6948  0.0794 -0.8971
   14MOL   H24011186   5.467   1.965   1.880 -1.2562  1.2800 -0.6660
   14MOL   H24111187   5.391   2.011   1.651 -0.1039  0.3902  1.6832
   14MOL   H24211188   5.356   1.846   1.619 -0.8195 -1.7448  1.7712
   14MOL   H24311189   5.622   1.977   1.682  1.3372 -0.7346  0.9994
   14MOL   H24411190   5.600   1.802   1.661 -0.7863 -0.6261  0.2176
   14MOL   H24511191   5.544   2.041   1.477 -0.9542 -0.0108  4.1163
   14MOL   H24611192   5.517   1.877   1.414  4.0505 -3.4777 -0.3369
   14MOL   H24711193   5.754   1.821   1.442  1.4177  0.1414  0.8610
   14MOL   H24811194   5.789   1.972   1.503  0.3086 -1.3449 -0.1305
   14MOL   H24911195   5.699   2.072   1.283 -1.0989 -0.8336 -0.1067
   14MOL   H25011196   5.680   1.904   1.236 -1.4199  0.4185  1.0038
   14MOL   H25111197   5.947   2.036   1.310  0.1165  0.6369 -1.5216
   14MOL   H25211198   5.926   1.867   1.280  1.2754  0.2303 -0.7214
   14MOL   H25311199   5.907   1.981   1.147 -0.1091 -1.2672 -0.1583
   14MOL   C25411200   5.330   1.372   2.448  0.8962 -0.7680 -0.0059
   14MOL   C25511201   5.238   1.263   2.412 -0.1843 -0.4710  0.1479
   14MOL   C25611202   5.087   1.309   2.423 -0.4036  0.7198  0.5397
   14MOL   C25711203   5.039   1.323   2.567 -0.4377  0.1741  0.1287
   14MOL   C25811204   4.888   1.320   2.578 -0.0983 -0.7180 -0.6094
   14MOL   C25911205   4.826   1.468   2.554  0.3450 -0.1534  0.3984
   14MOL   C26011206   4.674   1.482   2.580  0.2642 -0.2639 -0.5740
   14MOL   C26111207   4.638   1.633   2.597  0.2275  0.5211  0.4855
   14MOL   C26211208   4.491   1.682   2.590  0.0335  0.1734  0.1294
   14MOL   C26311209   4.403   1.665   2.714  0.5304  0.0701  0.6444
   14MOL   C26411210   4.260   1.717   2.698 -0.2090  0.1789  0.6290
   14MOL   C26511211   4.172   1.687   2.823  0.3356  0.2983 -0.2477
   14MOL   C26611212   4.025   1.712   2.791  0.1493  0.1734 -0.9679
   14MOL   C26711213   3.948   1.657   2.912 -0.0617 -0.3412  0.4496
   14MOL   H26811214   5.341   1.378   2.556  2.4966 -3.1749  0.0092
   14MOL   H26911215   5.429   1.347   2.410  0.6971 -0.0605 -1.0263
   14MOL   H27011216   5.255   1.194   2.495 -1.1173 -1.1672 -0.2250
   14MOL   H27111217   5.021   1.240   2.373 -0.7129  1.7820 -0.5372
   14MOL   H27211218   5.073   1.405   2.373 -1.3811 -0.4396 -1.4282
   14MOL   H27311219   5.084   1.412   2.610 -1.0785  0.9912 -0.8907
   14MOL   H27411220   5.064   1.232   2.623  0.7063  1.5443  1.9095
   14MOL   H27511221   4.865   1.291   2.680  0.7424  1.5734  0.2648
   14MOL   H27611222   4.849   1.243   2.512 -3.1127 -0.9978  1.4381
   14MOL   H27711223   4.846   1.511   2.456 -0.7302 -1.3181 -0.3394
   14MOL   H27811224   4.884   1.527   2.625  1.9812  1.0792 -1.9068
   14MOL   H27911225   4.612   1.448   2.498  1.0467 -4.4215  0.4691
   14MOL   H28011226   4.650   1.437   2.677 -0.3799  0.2574 -0.4912
   14MOL   H28111227   4.699   1.671   2.515  0.2945 -1.1758 -0.2617
   14MOL   H28211228   4.683   1.679   2.685  0.4889 -1.0825  1.2118
   14MOL   H28311229   4.498   1.789   2.569 -0.9804  0.0987 -0.6592
   14MOL   H28411230   4.454   1.628   2.502  1.2025 -0.5835  0.0898
   14MOL   H28511231   4.451   1.698   2.806  0.3862 -1.3572  1.2427
   14MOL   H28611232   4.397   1.558   2.735 -0.5579 -0.2273 -0.9869
   14MOL   H28711233   4.223   1.662   2.611 -2.1891 -0.4446  1.8325
   14MOL   H28811234   4.250   1.823   2.676  1.6096  0.2615  0.0995
   14MOL   H28911235   4.187   1.583   2.851  3.2087  0.9377  0.7888
   14MOL   H29011236   4.200   1.758   2.902 -1.7406  0.8483  0.0160
   14MOL   H29111237   4.021   1.820   2.773 -2.3273  0.4200  0.8767
   14MOL   H29211238   3.996   1.667   2.696  0.3465 -2.3010  0.1003
   14MOL   H29311239   3.967   1.720   3.000 -0.3040  2.6068 -1.5166
   14MOL   H29411240   3.970   1.554   2.937  2.6875 -0.7502 -3.2373
   14MOL   H29511241   3.843   1.674   2.889 -0.2910 -0.5201  1.3386
   14MOL   C29611242   5.276   1.200   2.278 -0.4899  1.3005 -0.1136
   14MOL   C29711243   5.220   1.056   2.256  0.5537  0.2145  0.5359
   14MOL   C29811244   5.117   1.034   2.140 -0.2041  0.2201 -0.1645
   14MOL   C29911245   5.179   1.087   2.000 -0.0656 -0.0373 -0.0171
   14MOL   C30011246   5.090   1.059   1.877  0.0722 -0.0664 -0.2210
   14MOL   C30111247   5.160   1.109   1.744  0.5096 -0.4241 -0.0771
   14MOL   C30211248   5.093   1.046   1.619  0.1927  0.2036 -0.1275
   14MOL   C30311249   5.141   1.113   1.492 -0.7226 -0.3495 -0.0094
   14MOL   C30411250   5.275   1.053   1.445  0.3811  0.3234 -0.3397
   14MOL   C30511251   5.338   1.126   1.328 -0.6863  0.0685 -0.2898
   14MOL   C30611252   5.427   1.038   1.239 -0.5002 -0.6380  0.5493
   14MOL   C30711253   5.515   1.129   1.150 -0.7151 -0.5219 -0.4045
   14MOL   C30811254   5.441   1.211   1.045  0.2624 -0.1808  0.1019
   14MOL   C30911255   5.547   1.253   0.937 -0.0168  0.3409 -0.8602
   14MOL   H31011256   5.383   1.215   2.262  0.0557 -0.6018  1.4534
   14MOL   H31111257   5.228   1.261   2.203 -1.2714  0.1560 -0.5608
   14MOL   H31211258   5.170   1.031   2.349  1.1262 -3.1435 -0.0005
   14MOL   H31311259   5.033   1.098   2.164 -0.2082  0.5692 -1.0575
   14MOL   H31411260   5.083   0.930   2.133 -0.1787  0.2409 -0.6307
   14MOL   H31511261   5.273   1.042   1.970 -0.7195 -2.0004  0.7859
   14MOL   H31611262   5.201   1.192   2.020  0.1047 -0.4302  2.0161
   14MOL   H31711263   5.086   0.951   1.879  0.6890 -0.0856  0.0556
   14MOL   H31811264   4.993   1.107   1.886 -0.9002 -1.3804 -3.1169
   14MOL   H31911265   5.266   1.084   1.752  0.6999 -0.4364 -2.4393
   14MOL   H32011266   5.152   1.217   1.735 -0.4956 -0.4868  0.0319
   14MOL   H32111267   5.116   0.939   1.621 -0.8205  0.0068  2.2785
   14MOL   H32211268   4.984   1.058   1.612  0.3420  1.1073 -0.9937
   14MOL   H32311269   5.151   1.221   1.502 -0.0493 -0.3192 -0.9491
   14MOL   H32411270   5.072   1.094   1.410  1.6637  0.8916 -2.3889
   14MOL   H32511271   5.347   1.049   1.527  1.9360  2.5687 -1.5397
   14MOL   H32611272   5.262   0.947   1.422 -0.4217 -0.1222  2.0104
   14MOL   H32711273   5.401   1.204   1.371  1.6526 -2.3518  0.8679
   14MOL   H32811274   5.256   1.164   1.268 -0.0310  2.3248  0.2158
   14MOL   H32911275   5.363   0.973   1.180 -0.5232 -1.1827  1.1576
   14MOL   H33011276   5.479   0.966   1.303 -1.2846 -0.5235  1.3300
   14MOL   H33111277   5.589   1.067   1.099 -0.1644 -0.4272  0.2706
   14MOL   H33211278   5.574   1.201   1.207  1.0089 -0.6397 -1.9712
   14MOL   H33311279   5.381   1.289   1.091 -1.0218 -1.7244  1.1086
   14MOL   H33411280   5.370   1.141   1.000  1.9088 -0.8808 -1.4727
   14MOL   H33511281   5.624   1.177   0.925  0.4959  0.2809  2.5340
   14MOL   H33611282   5.502   1.281   0.841  1.2152  4.3656 -0.3673
   14MOL   H33711283   5.605   1.339   0.970  1.0134 -1.1393  1.1916
   14MOL   C33811284   5.343   0.962   2.228  0.6437 -0.0403  0.1308
   14MOL   C33911285   5.448   0.948   2.347 -0.1595 -0.6783 -0.1049
   14MOL   C34011286   5.385   0.861   2.464  0.7033  0.0020  0.5213
   14MOL   C34111287   5.396   0.707   2.430  0.6608 -0.1505 -0.1153
   14MOL   C34211288   5.312   0.629   2.538  0.2644  0.4334  0.1551
   14MOL   C34311289   5.309   0.483   2.509 -0.0072  0.4796  0.7110
   14MOL   C34411290   5.187   0.403   2.568  0.2381  0.3862  0.0230
   14MOL   C34511291   5.200   0.259   2.541  0.5520  0.6903  0.2952
   14MOL   C34611292   5.088   0.168   2.596  0.1662  0.4370 -0.1749
   14MOL   C34711293   5.085   0.026   2.535 -1.2047 -0.1753  0.1235
   14MOL   C34811294   4.952   7.647   2.565  0.2243 -1.0821  0.0238
   14MOL   C34911295   4.950   7.503   2.508  0.5169  0.0529 -0.1298
   14MOL   C35011296   4.805   7.450   2.469 -1.0563 -0.1665 -0.7049
   14MOL   C35111297   4.736   7.406   2.603  0.4899 -0.3991  0.4056
   14MOL   H35211298   5.318   0.860   2.198  0.8998 -0.0445 -0.0766
   14MOL   H35311299   5.404   1.000   2.145 -0.1224 -1.7218 -1.2432
   14MOL   H35411300   5.457   1.048   2.390 -1.1484 -0.8387  0.4907
   14MOL   H35511301   5.443   0.873   2.555 -2.0372  1.2920  2.1335
   14MOL   H35611302   5.284   0.890   2.491  1.0563  1.4080  0.4040
   14MOL   H35711303   5.503   0.690   2.437  0.3867 -1.4040  1.3613
   14MOL   H35811304   5.358   0.681   2.331 -0.3593 -0.3983  0.3238
   14MOL   H35911305   5.210   0.666   2.533  0.1917  0.4017  1.1575
   14MOL   H36011306   5.349   0.642   2.640  0.7117 -1.0844  0.1958
   14MOL   H36111307   5.325   0.476   2.402  0.9311 -0.3972  0.9062
   14MOL   H36211308   5.394   0.439   2.560  0.4299  0.6502  0.1342
   14MOL   H36311309   5.177   0.421   2.675 -0.6900 -1.1974  0.2080
   14MOL   H36411310   5.099   0.452   2.527  0.1880  2.1342  2.1076
   14MOL   H36511311   5.203   0.233   2.435  1.9756  2.7692 -0.1910
   14MOL   H36611312   5.285   0.207   2.583  0.4336 -1.9380 -2.5394
   14MOL   H36711313   5.106   0.158   2.703  1.4958  0.1835 -0.4140
   14MOL   H36811314   4.990   0.214   2.590 -0.3355 -0.3360  1.6337
   14MOL   H36911315   5.085   0.034   2.426  0.2584 -0.0718  0.1111
   14MOL   H37011316   5.177   7.664   2.550 -0.6567  0.5299 -0.4570
   14MOL   H37111317   4.870   0.014   2.529 -0.2133 -0.5289  1.9166
   14MOL   H37211318   4.935   7.655   2.672 -0.1800  0.1025 -0.1255
   14MOL   H37311319   4.984   7.439   2.589 -0.3930  1.1370  1.1410
   14MOL   H37411320   5.017   7.515   2.423  0.7601 -0.3791 -0.0006
   14MOL   H37511321   4.738   7.528   2.433 -1.5830  0.1714  0.9493
   14MOL   H37611322   4.797   7.377   2.389 -1.0787 -2.1299  1.0589
   14MOL   H37711323   4.764   7.470   2.686  2.1736  0.7690 -1.0260
   14MOL   H37811324   4.627   7.406   2.589  0.7948 -1.2447 -2.3294
   14MOL   H37911325   4.759   7.303   2.629 -1.5960 -1.4342 -1.6209
   14MOL   C38011326   5.589   0.902   2.303  0.3135  0.3560 -0.0008
   14MOL   C38111327   5.694   1.010   2.282 -0.1703  0.0591 -0.4737
   14MOL   C38211328   5.839   0.969   2.326 -0.4442 -0.6828 -0.2253
   14MOL   C38311329   5.852   0.939   2.475 -0.1703 -0.1439 -0.3917
   14MOL   C38411330   5.994   0.929   2.536  0.4657 -0.1805 -0.4525
   14MOL   C38511331   5.995   0.908   2.684  0.5869 -0.0396  0.3495
   14MOL   C38611332   6.139   0.924   2.742 -1.0772  0.3280  0.4357
   14MOL   C38711333   6.135   0.949   2.892  0.6009  0.1306 -0.6951
   14MOL   C38811334   6.280   0.946   2.961 -0.3036 -0.0381  0.0863
   14MOL   C38911335   6.269   0.969   3.109  0.1664  0.4205  0.1901
   14MOL   C39011336   6.403   0.969   3.188 -0.0103 -0.5142  0.1068
   14MOL   C39111337   6.397   1.022   3.327  0.0988 -0.2604 -0.5533
   14MOL   C39211338   6.541   1.040   3.392 -0.3475 -0.0825 -0.0925
   14MOL   C39311339   6.536   1.111   3.525  0.0921  0.0453  0.6611
   14MOL   H39411340   5.566   0.834   2.221  1.3165  0.6410 -0.5288
   14MOL   H39511341   5.630   0.841   2.384  0.6142 -0.7998 -1.0102
   14MOL   H39611342   5.656   1.097   2.335  0.1400 -0.4354  0.5702
   14MOL   H39711343   5.905   1.052   2.300  0.1062 -0.5603  1.5121
   14MOL   H39811344   5.877   0.883   2.271  0.8831 -0.2760  0.0363
   14MOL   H39911345   5.802   0.849   2.510  2.7785 -0.5400  3.1150
   14MOL   H40011346   5.786   1.009   2.527  0.0381  0.1239 -0.4832
   14MOL   H40111347   6.036   1.027   2.515  0.2867 -0.4937 -2.4357
   14MOL   H40211348   6.055   0.850   2.491  1.3725 -0.4182  1.1582
   14MOL   H40311349   5.954   0.808   2.703  0.3651 -0.5888 -2.7653
   14MOL   H40411350   5.932   0.987   2.724 -0.7267 -0.2792 -1.1942
   14MOL   H40511351   6.199   0.837   2.717 -0.4522  0.6172  0.9286
   14MOL   H40611352   6.195   1.004   2.694  0.7865 -0.8948  0.5495
   14MOL   H40711353   6.090   1.045   2.916  1.4671  0.0342  1.4337
   14MOL   H40811354   6.073   0.868   2.931 -0.0111  1.1883  0.5891
   14MOL   H40911355   6.328   0.849   2.945 -0.2709  0.3394 -2.2736
   14MOL   H41011356   6.338   1.020   2.907 -0.9907 -0.7072 -1.6133
   14MOL   H41111357   6.209   0.892   3.158  0.1025 -0.8275 -1.7954
   14MOL   H41211358   6.221   1.066   3.118 -1.4759 -0.5095  1.7801
   14MOL   H41311359   6.437   0.865   3.185 -1.9495 -1.1791  0.0900
   14MOL   H41411360   6.474   1.026   3.129 -1.5181  0.3005 -0.9517
   14MOL   H41511361   6.324   0.964   3.385 -0.1429  2.4011  1.9640
   14MOL   H41611362   6.348   1.118   3.315 -0.0481 -0.3556 -0.7179
   14MOL   H41711363   6.577   0.938   3.406  0.6723  0.2911 -0.0192
   14MOL   H41811364   6.610   1.083   3.320  0.4303 -0.4635  0.4190
   14MOL   H41911365   6.456   1.074   3.589 -0.6472  2.4824  1.1951
   14MOL   H42011366   6.518   1.217   3.508  1.1756  0.2429  0.7445
   14MOL   H42111367   6.624   1.092   3.586 -1.0776 -2.5227  1.6249
   14MOL   C42211368   5.694   1.056   2.138  0.1343  0.7841 -0.3343
   14MOL   C42311369   5.801   1.162   2.101  0.4180  0.5590 -0.6656
   14MOL   C42411370   5.799   1.190   1.946  0.8715  0.2508 -0.0878
   14MOL   C42511371   5.682   1.283   1.905  0.8586  0.3136  0.5467
   14MOL   C42611372   5.664   1.291   1.750  0.1684 -0.0724 -0.2289
   14MOL   C42711373   5.593   1.421   1.714  0.2392 -0.3441  0.0126
   14MOL   C42811374   5.549   1.435   1.566 -0.2491  0.2291  0.5335
   14MOL   C42911375   5.498   1.576   1.521 -0.0054  0.3615  0.1799
   14MOL   C43011376   5.430   1.572   1.382 -0.3809  0.1900  0.0345
   14MOL   C43111377   5.521   1.582   1.261  0.6828 -0.1025 -0.0803
   14MOL   C43211378   5.448   1.629   1.125 -0.5602  0.4440  0.0178
   14MOL   C43311379   5.548   1.657   1.016 -0.2659 -0.4544  0.0706
   14MOL   C43411380   5.499   1.632   0.876 -0.8680 -0.4192 -0.1564
   14MOL   C43511381   5.358   1.685   0.844  0.0172  0.2007  0.5881
   14MOL   H43611382   5.594   1.095   2.119  0.2931  1.0408 -0.6416
   14MOL   H43711383   5.707   0.962   2.085 -0.9425 -0.0345  0.8206
   14MOL   H43811384   5.897   1.113   2.117 -1.0404 -1.3657  2.8859
   14MOL   H43911385   5.787   1.091   1.901 -2.5516 -0.2436  1.7363
   14MOL   H44011386   5.892   1.231   1.907  0.5665 -0.2419 -1.4026
   14MOL   H44111387   5.595   1.233   1.949  1.7922 -2.0337 -0.2238
   14MOL   H44211388   5.701   1.383   1.945  0.9336  0.5382 -0.0450
   14MOL   H44311389   5.597   1.211   1.719  1.7289 -0.4516 -2.7640
   14MOL   H44411390   5.761   1.290   1.702 -0.4630  1.7795 -1.6186
   14MOL   H44511391   5.666   1.496   1.743 -0.9681  0.8896 -0.0879
   14MOL   H44611392   5.510   1.442   1.781 -0.4335 -1.1739 -0.5322
   14MOL   H44711393   5.635   1.403   1.508 -0.7084 -1.8005  0.9210
   14MOL   H44811394   5.481   1.352   1.543  0.1431 -0.4326  1.7172
   14MOL   H44911395   5.427   1.619   1.592 -0.5369 -0.4715  0.1619
   14MOL   H45011396   5.586   1.640   1.514 -0.5193  1.0618  0.0333
   14MOL   H45111397   5.361   1.488   1.375 -1.0688  0.9757 -3.0021
   14MOL   H45211398   5.364   1.658   1.384  0.5577  0.9853 -2.0690
   14MOL   H45311399   5.604   1.650   1.281  0.8410 -0.3169 -0.0051
   14MOL   H45411400   5.571   1.486   1.244 -0.7585 -1.3522  2.4668
   14MOL   H45511401   5.381   1.549   1.096  1.4573 -0.8695 -1.1619
   14MOL   H45611402   5.378   1.711   1.140  0.9296  1.9877 -1.1529
   14MOL   H45711403   5.641   1.599   1.023  0.3144  0.5448  0.7539
   14MOL   H45811404   5.585   1.759   1.012  0.8855 -0.8002  1.6212
   14MOL   H45911405   5.563   1.679   0.801 -0.0025  0.8609  1.3526
   14MOL   H46011406   5.506   1.525   0.856  2.4364 -0.7868  2.4395
   14MOL   H46111407   5.268   1.637   0.882  0.4255 -0.9126  0.1890
   14MOL   H46211408   5.351   1.668   0.737  1.7047  0.8206  0.3639
   14MOL   H46311409   5.339   1.790   0.866 -0.7757 -0.0226  1.0180
   14MOL   C46411410   5.789   1.294   2.186  0.3000  0.2019 -0.0106
   14MOL   C46511411   5.895   1.403   2.151  0.2252  0.3833 -0.6240
   14MOL   C46611412   5.848   1.532   2.214 -0.5941 -0.2792  0.0814
   14MOL   C46711413   5.826   1.526   2.368  0.5108 -0.1448  0.4199
   14MOL   C46811414   5.816   1.664   2.450  0.1454  0.2408  0.0036
   14MOL   C46911415   5.787   1.671   2.602  0.0531  0.4883  0.2029
   14MOL   C47011416   5.784   1.813   2.653  0.2117  0.7293  0.2543
   14MOL   C47111417   5.763   1.814   2.802 -0.6714 -0.1507  0.5497
   14MOL   C47211418   5.728   1.957   2.842  0.3828  0.5305  0.4050
   14MOL   C47311419   5.681   1.978   2.992  0.4284  0.0023 -0.0076
   14MOL   C47411420   5.670   2.120   3.048  0.0251  0.0527  0.0667
   14MOL   C47511421   5.609   2.127   3.187 -0.1365  0.0789  0.4091
   14MOL   C47611422   5.617   2.270   3.244 -0.7728  0.5090  0.2144
   14MOL   C47711423   5.556   2.283   3.382 -0.7029  0.0417 -0.2365
   14MOL   H47811424   5.783   1.272   2.292 -1.0098  0.4885 -0.0091
   14MOL   H47911425   5.687   1.322   2.158  0.6843  0.8007 -0.8379
   14MOL   H48011426   5.894   1.415   2.043 -2.3188 -0.2987 -0.7018
   14MOL   H48111427   5.921   1.611   2.194  0.8347 -1.5364  0.1695
   14MOL   H48211428   5.746   1.549   2.181 -0.7957 -0.5748  0.5589
   14MOL   H48311429   5.900   1.455   2.407 -1.3171 -3.1427 -1.3678
   14MOL   H48411430   5.734   1.471   2.387  0.6158 -0.2389  0.6585
   14MOL   H48511431   5.744   1.722   2.394  1.6168  2.3685  0.2500
   14MOL   H48611432   5.911   1.716   2.432  0.6350  0.0683  1.8976
   14MOL   H48711433   5.692   1.622   2.623 -0.5466  1.6356  0.2101
   14MOL   H48811434   5.866   1.618   2.655  0.9350 -0.0356 -1.5876
   14MOL   H48911435   5.884   1.857   2.648  1.0197 -1.0098  0.7233
   14MOL   H49011436   5.712   1.877   2.603  2.5485  0.6737 -3.3090
   14MOL   H49111437   5.672   1.764   2.836 -0.0835 -1.2798  0.4792
   14MOL   H49211438   5.847   1.768   2.853 -1.0596 -3.0851 -1.2854
   14MOL   H49311439   5.814   2.021   2.828  0.6869 -0.0450 -0.3971
   14MOL   H49411440   5.665   2.000   2.764  2.1332  2.3624 -0.0215
   14MOL   H49511441   5.585   1.939   3.024  1.4224 -0.3938  2.5713
   14MOL   H49611442   5.744   1.928   3.065  1.9186  0.4476 -0.9765
   14MOL   H49711443   5.769   2.165   3.039 -0.2564  0.5420 -0.6287
   14MOL   H49811444   5.603   2.179   2.985 -0.3807 -0.2251  0.2376
   14MOL   H49911445   5.666   2.067   3.258 -1.1494 -0.5210  0.7281
   14MOL   H50011446   5.503   2.102   3.184 -0.1321 -0.0404  1.0482
   14MOL   H50111447   5.721   2.301   3.235 -0.8785  1.0648  0.8890
   14MOL   H50211448   5.559   2.334   3.177 -1.6053  0.6364  1.0451
   14MOL   H50311449   5.622   2.250   3.462 -1.7837 -0.4800  0.4603
   14MOL   H50411450   5.532   2.384   3.418  1.0152  0.7682 -1.0919
   14MOL   H50511451   5.466   2.224   3.398 -0.0520 -0.2195  2.6591
   14MOL   C50611452   6.040   1.348   2.192  0.1527  0.3052 -0.3476
   14MOL   C50711453   6.164   1.431   2.163  0.9465  0.2287 -0.7500
   14MOL   C50811454   6.290   1.411   2.257 -0.0368 -0.4644  0.0058
   14MOL   C50911455   6.271   1.450   2.402  0.4677 -0.1158  0.0821
   14MOL   C51011456   6.394   1.428   2.486  0.6795  0.0372 -0.0492
   14MOL   C51111457   6.381   1.474   2.629  0.5909  1.1658  0.0689
   14MOL   C51211458   6.297   1.386   2.722 -0.1289 -0.2885  0.3700
   14MOL   C51311459   6.148   1.406   2.715 -0.6011 -0.1120 -0.9264
   14MOL   C51411460   6.060   1.338   2.823 -0.0424  0.0457  0.0556
   14MOL   C51511461   5.908   1.341   2.794  0.2984 -0.0059  0.4113
   14MOL   C51611462   5.823   1.269   2.898  0.3342 -0.2559  0.9604
   14MOL   C51711463   5.678   1.241   2.861 -0.3856  0.3282  0.8150
   14MOL   C51811464   5.648   1.152   2.741 -0.0791  0.2725 -0.4467
   14MOL   C51911465   5.493   1.151   2.716 -0.3639  0.2197 -0.3060
   14MOL   H52011466   6.060   1.251   2.147 -2.2012 -1.0597  1.4287
   14MOL   H52111467   6.046   1.311   2.295  1.8410  2.7469  0.4867
   14MOL   H52211468   6.134   1.533   2.189 -0.2913 -0.0649 -0.9993
   14MOL   H52311469   6.325   1.308   2.255 -2.6423 -1.3963  0.5991
   14MOL   H52411470   6.376   1.456   2.209 -1.5480  1.2849 -1.1548
   14MOL   H52511471   6.247   1.556   2.398  0.0947 -0.2145 -0.3751
   14MOL   H52611472   6.187   1.392   2.441  0.5167 -0.7109 -0.6851
   14MOL   H52711473   6.481   1.472   2.436  1.2188 -0.2275  0.6504
   14MOL   H52811474   6.412   1.321   2.474  0.8457 -0.0161  0.6508
   14MOL   H52911475   6.341   1.575   2.630 -1.3735  0.4094 -0.0039
   14MOL   H53011476   6.479   1.490   2.675  2.4731 -1.3338 -2.8218
   14MOL   H53111477   6.319   1.281   2.703 -0.8594 -0.4805  0.5511
   14MOL   H53211478   6.322   1.407   2.826 -1.7025  2.2027  0.2689
   14MOL   H53311479   6.110   1.368   2.621 -1.2750 -1.4762 -0.1142
   14MOL   H53411480   6.136   1.514   2.720  1.0793  0.0433  0.4433
   14MOL   H53511481   6.077   1.390   2.918 -1.6247  0.0825  0.3227
   14MOL   H53611482   6.090   1.237   2.848 -0.1772  0.1345  0.5837
   14MOL   H53711483   5.865   1.440   2.776 -0.4939 -0.3048  0.6374
   14MOL   H53811484   5.896   1.291   2.698  2.0345 -1.6178  0.9986
   14MOL   H53911485   5.870   1.178   2.935  0.2876 -0.8946 -0.5218
   14MOL   H54011486   5.813   1.336   2.984 -0.2248 -0.8589  1.3679
   14MOL   H54111487   5.633   1.338   2.843  0.1729  0.4613  0.0979
   14MOL   H54211488   5.634   1.199   2.951 -0.5311 -0.5365  0.3486
   14MOL   H54311489   5.679   1.051   2.765  2.4730  1.4676  1.4393
   14MOL   H54411490   5.695   1.170   2.644  0.4423  2.4774  0.1871
   14MOL   H54511491   5.468   1.257   2.703 -0.3191  0.1780 -0.7524
   14MOL   H54611492   5.477   1.090   2.628  1.2200 -0.7535  0.0566
   14MOL   H54711493   5.436   1.111   2.800  0.6008 -1.9332 -0.6596
   14MOL   C54811494   6.194   1.417   2.019 -0.5943 -0.9605  0.6818
   14MOL   C54911495   6.299   1.511   1.957  0.6217  0.7400  0.1677
   14MOL   C55011496   6.321   1.471   1.811 -0.6464 -0.5436  0.1734
   14MOL   C55111497   6.385   1.335   1.796  0.1727  0.9838  0.3978
   14MOL   C55211498   6.456   1.302   1.661 -0.4932 -0.1499 -0.2702
   14MOL   C55311499   6.368   1.319   1.532  0.5471 -0.4847 -0.1685
   14MOL   C55411500   6.423   1.258   1.401  0.2811 -0.2083  0.1130
   14MOL   C55511501   6.333   1.281   1.284  0.2095  0.9680  0.3021
   14MOL   C55611502   6.363   1.183   1.170 -0.3140  0.7514 -0.2321
   14MOL   C55711503   6.252   1.200   1.065 -0.6218  0.2326  0.3353
   14MOL   C55811504   6.278   1.113   0.938 -0.2476  0.1556  0.5202
   14MOL   C55911505   6.185   1.153   0.825  0.7354  0.1424 -0.6047
   14MOL   C56011506   6.207   1.089   0.688 -0.4475 -0.2364 -0.0977
   14MOL   C56111507   6.105   1.150   0.589 -0.0839  0.5744 -0.5981
   14MOL   H56211508   6.233   1.315   2.022  0.6449 -0.4985  0.7412
   14MOL   H56311509   6.108   1.411   1.953  0.1928  1.4681 -0.6091
   14MOL   H56411510   6.392   1.501   2.012 -1.0643  0.8116  3.1510
   14MOL   H56511511   6.221   1.461   1.767 -0.8713 -0.8465  0.7566
   14MOL   H56611512   6.377   1.544   1.753 -1.1369 -1.5040 -1.5296
   14MOL   H56711513   6.318   1.254   1.823  2.5798 -1.3287 -0.4010
   14MOL   H56811514   6.469   1.322   1.865  0.0533 -0.0342  0.3459
   14MOL   H56911515   6.548   1.360   1.651  0.0209 -0.3228  2.9511
   14MOL   H57011516   6.497   1.201   1.658 -1.5385 -0.5759 -0.6458
   14MOL   H57111517   6.351   1.426   1.516  0.1436 -0.3411  1.1453
   14MOL   H57211518   6.266   1.283   1.545  0.9760 -1.5734  0.1731
   14MOL   H57311519   6.523   1.297   1.381  0.6467 -1.7411 -1.1221
   14MOL   H57411520   6.429   1.151   1.422  2.9268 -0.0261  0.4409
   14MOL   H57511521   6.359   1.379   1.245  3.2900  1.5848  3.6739
   14MOL   H57611522   6.226   1.276   1.301  0.2252 -2.1237 -0.1184
   14MOL   H57711523   6.354   1.080   1.206 -4.3059  1.3923  0.8507
   14MOL   H57811524   6.461   1.197   1.125 -0.2315  1.2237  0.0951
   14MOL   H57911525   6.157   1.167   1.106 -0.0100  0.3068  1.8286
   14MOL   H58011526   6.243   1.305   1.036  2.9680  0.5446  0.0818
   14MOL   H58111527   6.250   1.010   0.960 -0.6146  1.0346  4.6112
   14MOL   H58211528   6.383   1.117   0.911 -0.5275 -0.0980 -0.6458
   14MOL   H58311529   6.081   1.148   0.856 -0.1520 -0.5207 -3.5216
   14MOL   H58411530   6.208   1.259   0.822  1.0009  0.1340  0.6461
   14MOL   H58511531   6.308   1.109   0.651 -0.2277 -1.6865 -0.2981
   14MOL   H58611532   6.194   0.983   0.669  3.1267 -0.4354 -1.9206
   14MOL   H58711533   5.999   1.130   0.606  0.0017 -0.1260 -0.8685
   14MOL   H58811534   6.104   1.259   0.584 -0.4542  0.5081 -2.5070
   14MOL   H58911535   6.138   1.121   0.489 -0.5534  0.8473 -0.8333
   14MOL   C59011536   6.256   1.655   1.979  0.1225 -0.2398 -0.0949
   14MOL   C59111537   6.164   1.732   1.881 -0.2737 -0.0614  0.6757
   14MOL   C59211538   6.020   1.707   1.889 -0.2994 -0.3010 -0.4363
   14MOL   C59311539   5.940   1.705   1.751 -0.9977 -0.0699  0.4490
   14MOL   C59411540   5.989   1.594   1.655  0.1565 -0.0518 -0.2436
   14MOL   C59511541   5.920   1.580   1.519  0.0067 -0.1834 -1.1588
   14MOL   C59611542   5.973   1.473   1.426 -0.1322  0.4750 -0.0694
   14MOL   C59711543   5.910   1.470   1.287 -0.3381  0.4488 -0.2029
   14MOL   C59811544   5.979   1.374   1.181  0.4445  0.4058  0.2915
   14MOL   C59911545   5.922   1.387   1.039 -0.6308  0.5602  0.5348
   14MOL   C60011546   6.002   1.482   0.950  0.1197  0.3150 -0.8665
   14MOL   C60111547   5.924   1.548   0.833 -0.0210 -0.4197 -0.1095
   14MOL   C60211548   5.852   1.450   0.743 -0.1250 -0.3159  0.3795
   14MOL   C60311549   5.786   1.521   0.621  0.0581  0.1993  0.2677
   14MOL   H60411550   6.351   1.706   1.964 -0.8034  1.6778  0.3283
   14MOL   H60511551   6.240   1.687   2.082  1.5162  1.1977 -0.3076
   14MOL   H60611552   6.196   1.696   1.784  1.6912  1.0694  0.8631
   14MOL   H60711553   5.973   1.779   1.956  0.4862  0.0998 -0.3086
   14MOL   H60811554   6.010   1.609   1.936  0.6010 -1.0445 -1.7761
   14MOL   H60911555   5.946   1.803   1.703  0.6948 -1.4684 -2.3042
   14MOL   H61011556   5.834   1.698   1.775 -1.4400  2.6486 -0.5473
   14MOL   H61111557   5.990   1.496   1.703  0.3891 -0.5758 -1.3119
   14MOL   H61211558   6.093   1.616   1.629 -0.0569 -0.1962 -1.2324
   14MOL   H61311559   5.912   1.677   1.470  0.3352  0.4769  0.0950
   14MOL   H61411560   5.816   1.552   1.537  0.6208 -2.7417 -1.3973
   14MOL   H61511561   6.081   1.468   1.410  0.1191  0.0702  1.5843
   14MOL   H61611562   5.958   1.372   1.464  3.3151  0.0325  0.2857
   14MOL   H61711563   5.805   1.448   1.303 -0.7876  1.9739 -1.0038
   14MOL   H61811564   5.915   1.572   1.250 -2.8300  0.0411 -1.7193
   14MOL   H61911565   6.085   1.398   1.178  0.8395 -1.4145 -1.8760
   14MOL   H62011566   5.969   1.266   1.195 -2.3567  0.4916 -0.6848
   14MOL   H62111567   5.920   1.291   0.988  0.2073 -0.5217  2.4926
   14MOL   H62211568   5.819   1.417   1.062 -0.9649  0.5740 -0.9424
   14MOL   H62311569   6.083   1.422   0.908  0.2933  0.0940 -0.2231
   14MOL   H62411570   6.043   1.556   1.019 -0.1933  0.9620 -1.3754
   14MOL   H62511571   5.978   1.624   0.775  1.7239  0.0717  2.0785
   14MOL   H62611572   5.844   1.614   0.865  0.0119 -1.1397  1.5442
   14MOL   H62711573   5.932   1.383   0.710 -2.1117 -2.0322 -0.9966
   14MOL   H62811574   5.779   1.394   0.800  0.3611 -1.2573  0.0924
   14MOL   H62911575   5.740   1.445   0.558 -0.8518  1.4061 -0.5434
   14MOL   H63011576   5.868   1.573   0.571 -0.6992  0.6686 -0.5008
   14MOL   H63111577   5.721   1.601   0.657 -0.9014 -0.0907 -0.7875
   14MOL   C63211578   6.197   1.880   1.864 -0.0657  0.5377 -0.5053
   14MOL   C63311579   6.332   1.933   1.807 -0.4104 -0.4878  0.2274
   14MOL   C63411580   6.388   1.854   1.683  0.1184 -0.0770  0.7397
   14MOL   C63511581   6.283   1.849   1.564  0.0115 -0.0591  0.4312
   14MOL   C63611582   6.345   1.788   1.435 -0.4397  0.0640 -1.0437
   14MOL   C63711583   6.270   1.831   1.308 -0.2779 -0.8099  0.3451
   14MOL   C63811584   6.343   1.781   1.178  0.4437  0.5783 -0.1157
   14MOL   C63911585   6.261   1.784   1.050 -0.1109  0.4089  0.0539
   14MOL   C64011586   6.223   1.924   1.010  0.3694 -0.2424  0.1435
   14MOL   C64111587   6.155   1.916   0.872 -0.3212 -0.1284  0.1876
   14MOL   C64211588   6.127   2.055   0.808 -0.3612  0.1626 -0.1712
   14MOL   C64311589   6.016   2.126   0.879  0.5503 -0.5758 -0.3204
   14MOL   C64411590   5.955   2.246   0.804 -0.8571 -0.3554  0.8660
   14MOL   C64511591   5.829   2.314   0.853 -0.6286  0.5266  0.9273
   14MOL   H64611592   6.171   1.910   1.965 -0.6753  0.2290 -0.5684
   14MOL   H64711593   6.121   1.929   1.803 -0.9458  2.2515  1.9257
   14MOL   H64811594   6.409   1.926   1.885  0.0519  0.5660 -0.1236
   14MOL   H64911595   6.481   1.907   1.662  0.4668 -0.6220  0.8676
   14MOL   H65011596   6.413   1.750   1.707  0.4004 -0.7044 -2.0908
   14MOL   H65111597   6.250   1.947   1.531  1.4155 -0.6581 -2.8993
   14MOL   H65211598   6.185   1.813   1.598 -1.2255  1.9103 -0.9347
   14MOL   H65311599   6.346   1.680   1.443  1.2224  0.1463  0.0101
   14MOL   H65411600   6.446   1.825   1.420  0.3641 -0.6624  2.1162
   14MOL   H65511601   6.170   1.788   1.325 -0.4456 -0.7531 -0.4808
   14MOL   H65611602   6.261   1.939   1.309  0.1604 -0.7658 -0.4052
   14MOL   H65711603   6.430   1.847   1.176  0.1884  0.8814 -2.0749
   14MOL   H65811604   6.380   1.680   1.192  1.0218  0.5729 -1.5809
   14MOL   H65911605   6.175   1.716   1.044 -1.2627  1.7982  0.6321
   14MOL   H66011606   6.309   1.735   0.965 -0.2701 -0.0274  0.2127
   14MOL   H66111607   6.305   1.996   1.010 -1.3174  1.7632 -1.8191
   14MOL   H66211608   6.151   1.964   1.081  1.0877 -0.9569  1.3012
   14MOL   H66311609   6.230   1.874   0.805 -0.0040  2.2880 -1.0045
   14MOL   H66411610   6.064   1.857   0.882 -0.5694  0.2435  0.1122
   14MOL   H66511611   6.213   2.121   0.799  0.8665 -1.3794 -0.1084
   14MOL   H66611612   6.088   2.041   0.707  0.8806  0.9404 -0.7732
   14MOL   H66711613   6.052   2.156   0.978  0.3722 -0.0164 -0.4236
   14MOL   H66811614   5.934   2.061   0.909 -1.2012  1.6932  0.0002
   14MOL   H66911615   5.943   2.217   0.700  1.0198  1.7828  0.0306
   14MOL   H67011616   6.041   2.312   0.801 -1.1229  0.0625  2.0645
   14MOL   H67111617   5.804   2.405   0.799  0.3405  0.7558  0.8624
   14MOL   H67211618   5.744   2.245   0.857 -0.5283  0.3694  0.4573
   14MOL   H67311619   5.841   2.355   0.953 -1.6284  1.5643  0.6311
   14MOL   C67411620   6.321   2.082   1.768 -0.0151  0.2660 -0.1501
   14MOL   C67511621   6.324   2.172   1.893 -0.3598 -0.4682 -0.2496
   14MOL   C67611622   6.467   2.195   1.945  0.5143 -0.2253 -0.1168
   14MOL   C67711623   6.553   2.278   1.848  0.7723 -0.1277  0.1443
   14MOL   C67811624   6.625   2.409   1.904  0.4081 -0.6205 -0.0587
   14MOL   C67911625   6.755   2.451   1.827  0.0774 -0.1461  0.7378
   14MOL   C68011626   6.821   2.581   1.873 -0.1012 -0.2317 -0.6768
   14MOL   C68111627   6.888   2.581   2.012  0.0411  0.8550 -0.1171
   14MOL   C68211628   6.983   2.698   2.039 -0.9103  0.1766  0.2015
   14MOL   C68311629   7.084   2.675   2.155  0.0229  0.9825  0.7626
   14MOL   C68411630   7.196   2.576   2.112 -0.1597 -0.4922 -0.1784
   14MOL   C68511631   7.302   2.556   2.224 -0.1058  0.0248  0.3477
   14MOL   C68611632   7.441   2.522   2.170  0.6044  0.1508  0.5886
   14MOL   C68711633   7.522   2.645   2.125  0.4367 -0.0105 -0.4973
   14MOL   H68811634   6.230   2.089   1.707  0.8986 -2.8685 -2.0013
   14MOL   H68911635   6.406   2.102   1.702 -0.0066  0.2187 -0.1533
   14MOL   H69011636   6.275   2.110   1.969  0.8394 -0.1739  0.7751
   14MOL   H69111637   6.457   2.255   2.035  0.4313 -1.6532  0.8403
   14MOL   H69211638   6.516   2.101   1.969 -1.7142 -2.0903 -2.5793
   14MOL   H69311639   6.638   2.213   1.826  0.4011 -0.5305 -0.1031
   14MOL   H69411640   6.499   2.301   1.756  0.3976  0.3421  0.4861
   14MOL   H69511641   6.551   2.486   1.926 -0.8341 -1.3008 -1.7532
   14MOL   H69611642   6.657   2.387   2.006 -0.1899  0.0063  0.2698
   14MOL   H69711643   6.826   2.368   1.827  1.0432  0.6407 -1.7460
   14MOL   H69811644   6.731   2.467   1.722 -1.1234 -2.1213  0.6866
   14MOL   H69911645   6.896   2.612   1.801 -0.9775  2.3366 -0.5351
   14MOL   H70011646   6.746   2.660   1.878  0.6131  0.4280 -0.4458
   14MOL   H70111647   6.812   2.580   2.090  2.1347 -1.9422  1.9794
   14MOL   H70211648   6.941   2.487   2.026  1.0099  1.2755 -0.8949
   14MOL   H70311649   7.038   2.716   1.947 -0.1899  0.8205  0.7559
   14MOL   H70411650   6.932   2.793   2.054 -1.4925 -0.0192 -0.5191
   14MOL   H70511651   7.029   2.629   2.237 -1.1567  0.3113 -0.4006
   14MOL   H70611652   7.128   2.771   2.185  1.3565  0.2000  1.4060
   14MOL   H70711653   7.239   2.622   2.023 -1.3493 -1.7249 -1.4172
   14MOL   H70811654   7.145   2.485   2.081 -0.5761 -0.2055 -0.3547
   14MOL   H70911655   7.267   2.479   2.292 -0.7815  1.5283  1.7179
   14MOL   H71011656   7.306   2.651   2.277 -1.1045  0.5990 -0.5720
   14MOL   H71111657   7.492   2.468   2.250  0.6181 -1.3442 -0.3856
   14MOL   H71211658   7.432   2.461   2.080  0.4757  1.4253 -0.2708
   14MOL   H71311659   7.547   2.708   2.210  0.0100 -0.6374  0.1015
   14MOL   H71411660   7.617   2.628   2.074 -0.5563 -1.1784 -2.0053
   14MOL   H71511661   7.464   2.700   2.051  2.1159  2.8294  0.2280
   14MOL   C71611662   6.242   2.300   1.860  0.2283  0.2569  0.3025
   14MOL   C71711663   6.091   2.297   1.907  0.3512 -0.5758  0.7155
   14MOL   C71811664   6.056   2.438   1.961 -0.2937 -0.0974 -0.4314
   14MOL   C71911665   6.134   2.493   2.077  0.2967 -0.2020  0.3546
   14MOL   C72011666   6.175   2.393   2.192  1.4812 -0.4360  0.6349
   14MOL   C72111667   6.240   2.465   2.303 -0.5251  0.4103  0.2892
   14MOL   C72211668   6.303   2.370   2.401  0.0284  0.7326 -0.3125
   14MOL   C72311669   6.359   2.442   2.519  0.2589  0.6538  0.3198
   14MOL   C72411670   6.444   2.342   2.595 -0.0335  0.5302 -1.3514
   14MOL   C72511671   6.490   2.388   2.738  0.6939 -0.3624 -0.0576
   14MOL   C72611672   6.579   2.517   2.741  0.0921  0.4850 -0.0391
   14MOL   C72711673   6.586   2.574   2.882 -0.8015  0.4975 -0.4219
   14MOL   C72811674   6.470   2.679   2.915 -0.3503  0.6380  0.1804
   14MOL   C72911675   6.326   2.629   2.925  0.5618 -0.4870  0.9704
   14MOL   H73011676   6.290   2.382   1.913 -0.5991  1.4055 -0.6888
   14MOL   H73111677   6.250   2.328   1.755  0.1080 -0.7585  0.0234
   14MOL   H73211678   6.085   2.228   1.991  0.2725 -1.7775 -0.2646
   14MOL   H73311679   5.951   2.427   1.987 -0.4132 -0.6620 -1.1184
   14MOL   H73411680   6.053   2.518   1.886 -0.1787  0.9181  0.6406
   14MOL   H73511681   6.229   2.543   2.055  0.9221 -1.6302 -0.2464
   14MOL   H73611682   6.085   2.575   2.129 -0.1805 -0.1300 -0.2052
   14MOL   H73711683   6.083   2.350   2.233  0.1697  0.5724 -1.1867
   14MOL   H73811684   6.246   2.319   2.155  1.8590  0.0891  0.2986
   14MOL   H73911685   6.310   2.532   2.254  0.6169 -0.5774  0.5350
   14MOL   H74011686   6.164   2.524   2.355 -2.0292 -1.7180  0.5917
   14MOL   H74111687   6.228   2.301   2.439  2.2184 -1.4662  0.1973
   14MOL   H74211688   6.374   2.302   2.353 -0.7750 -0.4724  0.1825
   14MOL   H74311689   6.287   2.487   2.588  1.1619  1.2229  0.9026
   14MOL   H74411690   6.423   2.523   2.485  0.3609  0.8423  0.9471
   14MOL   H74511691   6.386   2.251   2.602 -0.2572  0.7421 -0.3951
   14MOL   H74611692   6.534   2.312   2.541  0.3926  0.5582 -0.6681
   14MOL   H74711693   6.395   2.411   2.787  1.0915 -0.7577  0.9138
   14MOL   H74811694   6.536   2.305   2.791 -0.4044 -1.7844 -1.3088
   14MOL   H74911695   6.677   2.495   2.697  0.2545 -1.1808  1.0899
   14MOL   H75011696   6.529   2.596   2.686  0.9677 -0.4372 -2.2128
   14MOL   H75111697   6.585   2.495   2.958 -1.8580  0.8402 -0.0778
   14MOL   H75211698   6.685   2.618   2.898 -1.1314  1.7175 -1.6152
   14MOL   H75311699   6.467   2.755   2.836  0.3848 -0.0306 -0.5022
   14MOL   H75411700   6.502   2.725   3.008  2.1819 -1.5971  0.4463
   14MOL   H75511701   6.266   2.713   2.961  1.1572  0.6135 -0.5484
   14MOL   H75611702   6.314   2.536   2.980 -0.9135 -1.6872 -1.3030
   14MOL   H75711703   6.287   2.624   2.823  0.5010  0.7976  0.9248
   14MOL   C75811704   5.994   2.248   1.797  0.0147  0.6280  0.9064
   14MOL   C75911705   5.846   2.219   1.832  0.4862  0.6438 -0.8604
   14MOL   C76011706   5.759   2.205   1.707  0.3652 -0.3860  0.2634
   14MOL   C76111707   5.741   2.332   1.619  0.4050  0.0953  0.5272
   14MOL   C76211708   5.652   2.299   1.502  0.1265  0.0157  0.0705
   14MOL   C76311709   5.647   2.422   1.412  0.5100  0.1770 -0.0480
   14MOL   C76411710   5.566   2.389   1.287  0.5466 -0.2852 -0.4871
   14MOL   C76511711   5.544   2.517   1.201 -0.3843 -0.0327 -0.5183
   14MOL   C76611712   5.472   2.477   1.071 -0.4689 -0.5507  0.1856
   14MOL   C76711713   5.436   2.603   0.980  0.8114  0.7576 -0.7779
   14MOL   C76811714   5.558   2.659   0.908 -0.3857  0.0019 -0.6475
   14MOL   C76911715   5.520   2.770   0.809 -0.5498 -0.3348 -0.6755
   14MOL   C77011716   5.646   2.823   0.736  0.4302 -0.1469 -0.0358
   14MOL   C77111717   5.628   2.932   0.627 -0.1674  0.0551  0.4033
   14MOL   H77211718   6.002   2.318   1.714 -2.0225 -2.6749 -2.2338
   14MOL   H77311719   6.033   2.157   1.750  1.1349  1.7583 -0.3843
   14MOL   H77411720   5.808   2.307   1.884  2.7434  0.3964  1.3059
   14MOL   H77511721   5.789   2.122   1.644  0.0403  0.1429 -0.5909
   14MOL   H77611722   5.654   2.190   1.735 -0.7817  1.1784 -3.0076
   14MOL   H77711723   5.704   2.419   1.673 -0.3575 -0.4456  0.8906
   14MOL   H77811724   5.839   2.363   1.583  0.4224 -0.4023  0.1427
   14MOL   H77911725   5.552   2.260   1.522 -0.2301  0.4665 -0.7836
   14MOL   H78011726   5.699   2.215   1.452  0.4164  0.3603 -0.2417
   14MOL   H78111727   5.746   2.458   1.384  0.8046  0.0326  0.8019
   14MOL   H78211728   5.605   2.511   1.460  0.0848 -0.2983  0.4581
   14MOL   H78311729   5.617   2.315   1.225  1.8649 -1.5528  2.0403
   14MOL   H78411730   5.472   2.346   1.322  0.5768 -0.9442 -1.1992
   14MOL   H78511731   5.637   2.566   1.174 -0.0233  1.3900  3.0806
   14MOL   H78611732   5.473   2.580   1.253  1.0249  0.5530  0.7373
   14MOL   H78711733   5.380   2.423   1.094 -1.1249  0.0673 -0.9509
   14MOL   H78811734   5.531   2.414   1.006 -0.5055 -0.4599  0.0637
   14MOL   H78911735   5.405   2.668   1.062 -1.2912 -1.6362  0.4182
   14MOL   H79011736   5.347   2.578   0.921  0.4282 -2.1914  0.9387
   14MOL   H79111737   5.624   2.708   0.980  0.6078  0.5509 -1.9131
   14MOL   H79211738   5.628   2.585   0.869  0.1475 -0.4786  1.1621
   14MOL   H79311739   5.444   2.729   0.742 -1.2295 -2.4258  1.3212
   14MOL   H79411740   5.473   2.851   0.864 -0.5591 -0.6834 -0.1736
   14MOL   H79511741   5.730   2.849   0.800  0.8520 -1.4253 -0.0577
   14MOL   H79611742   5.700   2.738   0.694  1.3255 -0.2317  1.2446
   14MOL   H79711743   5.599   3.026   0.674 -0.7490 -0.3553  0.8800
   14MOL   H79811744   5.725   2.943   0.579 -0.4089 -0.0291 -0.1118
   14MOL   H79911745   5.547   2.909   0.558 -1.0054  1.5295  0.8641
   14MOL   C80011746   5.842   2.095   1.921  0.3529  0.5390 -0.2378
   14MOL   C80111747   5.735   2.116   2.035 -0.1473 -0.1308 -0.0350
   14MOL   C80211748   5.747   2.002   2.139  0.6351 -1.1420 -0.5072
   14MOL   C80311749   5.825   2.036   2.265  0.0801  0.1134 -0.7049
   14MOL   C80411750   5.751   2.139   2.353 -0.7442  0.1025  0.3694
   14MOL   C80511751   5.849   2.230   2.433  0.9324  0.1752  0.3045
   14MOL   C80611752   5.933   2.163   2.535  0.0338 -0.3455  0.2919
   14MOL   C80711753   6.012   2.258   2.626  1.2950 -0.9587 -0.1138
   14MOL   C80811754   5.918   2.328   2.730  0.2153  0.7108  0.6347
   14MOL   C80911755   6.001   2.408   2.834  0.0586  0.3781 -0.5015
   14MOL   C81011756   5.899   2.490   2.926 -0.0296  0.6523 -0.1310
   14MOL   C81111757   5.982   2.600   2.993  0.8364 -0.3920 -0.3815
   14MOL   C81211758   5.911   2.653   3.121  0.5582  0.9678  0.1633
   14MOL   C81311759   5.974   2.766   3.206 -0.0323 -0.5132 -0.2395
   14MOL   H81411760   5.938   2.085   1.970  0.1312 -0.0959  0.0603
   14MOL   H81511761   5.822   2.005   1.862  0.1751  0.6490 -0.3459
   14MOL   H81611762   5.644   2.101   1.977  0.2792 -0.7623 -0.5541
   14MOL   H81711763   5.797   1.917   2.091  0.2286 -2.0549  0.6509
   14MOL   H81811764   5.651   1.966   2.176  1.5266 -2.2468  0.7958
   14MOL   H81911765   5.921   2.079   2.236  0.6020 -1.3075 -1.1361
   14MOL   H82011766   5.845   1.945   2.321 -1.0226 -0.2212 -0.8347
   14MOL   H82111767   5.702   2.213   2.291 -1.1098 -0.7255 -0.3243
   14MOL   H82211768   5.669   2.101   2.413 -2.1504 -1.2968 -2.3726
   14MOL   H82311769   5.784   2.295   2.491 -0.9653 -1.9053  0.5706
   14MOL   H82411770   5.916   2.285   2.366  0.9851 -1.3746 -0.9449
   14MOL   H82511771   5.878   2.093   2.598  1.3235 -0.9568  0.7555
   14MOL   H82611772   6.005   2.103   2.481  0.0096 -0.1763  0.0731
   14MOL   H82711773   6.092   2.203   2.675  1.6524  0.1515  0.5518
   14MOL   H82811774   6.053   2.346   2.577 -1.2079  0.8669  1.0066
   14MOL   H82911775   5.851   2.403   2.686 -1.4210 -1.4179 -0.6358
   14MOL   H83011776   5.853   2.247   2.763 -0.8320  0.4519 -1.8797
   14MOL   H83111777   6.065   2.479   2.781  2.1206 -0.7757  0.3803
   14MOL   H83211778   6.068   2.347   2.895  0.5441  0.1511 -1.2508
   14MOL   H83311779   5.820   2.537   2.868 -2.4076 -2.4337  0.4260
   14MOL   H83411780   5.862   2.430   3.009  0.0995 -0.8085 -1.1133
   14MOL   H83511781   5.997   2.688   2.931 -0.5665  0.8476  0.9689
   14MOL   H83611782   6.079   2.563   3.025 -0.6782 -4.7911 -0.5295
   14MOL   H83711783   5.813   2.696   3.102  1.5937  2.3208 -2.4304
   14MOL   H83811784   5.886   2.566   3.182 -0.0648  0.1686 -1.2175
   14MOL   H83911785   6.046   2.725   3.276  0.8945  3.3613  1.1639
   14MOL   H84011786   6.017   2.843   3.143  1.6430 -0.6947  0.6655
   14MOL   H84111787   5.892   2.820   3.254 -2.8100 -2.7499 -2.2522
   14MOL   H84211788   5.726   2.212   2.086  0.6925 -0.7802  1.3373
   15MOL     C111789   6.712   1.541   1.335  0.2918  0.3978 -0.0640
   15MOL     C211790   6.724   1.549   1.185 -0.2381  0.4350  0.2271
   15MOL     C311791   6.856   1.601   1.130  0.4347 -0.3891 -0.3225
   15MOL     C411792   6.980   1.519   1.185 -0.5701 -0.1601 -0.1986
   15MOL     C511793   7.109   1.584   1.125  0.2283  0.5346  0.5372
   15MOL     C611794   7.237   1.512   1.154 -0.1086  0.9148  0.2571
   15MOL     C711795   7.358   1.593   1.101 -0.1581 -0.5537  0.3592
   15MOL     C811796   7.483   1.536   1.168  0.0990  0.5582 -0.3283
   15MOL     C911797   7.532   1.397   1.109  1.0039  0.1862 -0.6172
   15MOL    C1011798   7.647   1.331   1.181 -0.2106  0.2954 -0.3190
   15MOL    C1111799   7.607   1.219   1.285  0.5607 -0.0492  0.2608
   15MOL    C1211800   0.024   1.171   1.378  0.4408  0.6293  0.4603
   15MOL    C1311801   7.671   1.081   1.494  0.4342  0.1114  0.4829
   15MOL    C1411802   7.610   0.941   1.445 -0.0515  0.4263  0.5671
   15MOL    H1511803   6.784   1.470   1.377  0.2576  0.6539  0.4199
   15MOL    H1611804   6.619   1.501   1.376 -1.0402  1.2745 -2.1619
   15MOL    H1711805   6.644   1.619   1.161 -1.6456 -0.2441  2.7061
   15MOL    H1811806   6.847   1.618   1.023 -1.3844  2.2704  0.1935
   15MOL    H1911807   6.869   1.701   1.170  0.3980 -0.5823  0.1862
   15MOL    H2011808   6.975   1.417   1.146 -1.9151 -1.4256  3.1070
   15MOL    H2111809   6.994   1.514   1.293 -3.3938  0.1362  0.2144
   15MOL    H2211810   7.129   1.687   1.154  2.3108  0.1699  0.4921
   15MOL    H2311811   7.101   1.594   1.016  1.4193 -2.0867  0.1725
   15MOL    H2411812   7.238   1.411   1.113 -1.2278  0.7602  0.5843
   15MOL    H2511813   7.239   1.484   1.259 -0.4387 -0.7148 -0.1523
   15MOL    H2611814   7.375   1.597   0.993 -1.7226  1.5171  0.1539
   15MOL    H2711815   7.339   1.696   1.134 -0.5734 -0.3098 -0.6203
   15MOL    H2811816   7.486   1.523   1.276 -0.8940  0.4845 -0.3040
   15MOL    H2911817   7.565   1.606   1.153 -2.2209  3.0907 -1.5847
   15MOL    H3011818   7.458   1.317   1.103  0.3893  0.5597  1.6382
   15MOL    H3111819   7.561   1.422   1.006  0.8277  2.0868 -0.2225
   15MOL    H3211820   0.005   1.281   1.101 -2.5366 -2.3854 -0.2749
   15MOL    H3311821   0.008   1.407   1.236 -1.2644  0.9024 -0.0738
   15MOL    H3411822   7.538   1.270   1.353 -2.5435  1.7202 -3.9673
   15MOL    H3511823   7.547   1.139   1.240  2.6043 -0.5608 -1.6286
   15MOL    H3611824   0.067   1.266   1.409  4.3719 -0.9686  0.2318
   15MOL    H3711825   0.101   1.130   1.313 -1.8669 -1.5361 -0.9875
   15MOL    H3811826   0.051   1.063   1.570  0.1583  0.6692  0.8894
   15MOL    H3911827   7.594   1.142   1.542  0.1528  0.5637 -0.5315
   15MOL    H4011828   7.546   0.951   1.357  2.8020  0.0111 -1.6670
   15MOL    H4111829   7.688   0.869   1.419 -1.0640  0.0431 -1.5467
   15MOL    H4211830   7.552   0.902   1.528  0.8660  1.3027  1.6252
   15MOL    H4311831   6.725   1.641   1.374 -0.6541 -0.0452  1.4292
   15MOL    C4411832   6.685   1.408   1.125  0.4104 -0.1392  0.4604
   15MOL    C4511833   6.675   1.403   0.970 -0.7049 -0.0861 -0.6651
   15MOL    C4611834   6.533   1.466   0.920 -0.4663  0.2274 -0.8874
   15MOL    C4711835   6.500   1.444   0.761  0.0787 -0.0670  0.3377
   15MOL    C4811836   6.383   1.525   0.711  0.0853 -0.2147  0.0336
   15MOL    C4911837   6.362   1.500   0.561  0.5113 -0.2275  0.3781
   15MOL    C5011838   6.230   1.557   0.521 -0.0728 -0.3296  0.2013
   15MOL    C5111839   6.189   1.520   0.377 -0.8211 -0.3976 -0.1163
   15MOL    C5211840   6.031   1.518   0.364  0.1559 -0.1029  0.6624
   15MOL    C5311841   5.989   1.481   0.218  0.9080  0.3603  0.0322
   15MOL    C5411842   5.850   1.523   0.178 -0.1177 -0.3679  0.4858
   15MOL    C5511843   5.754   1.426   0.237  0.6044  0.5917 -0.3561
   15MOL    C5611844   5.605   1.452   0.210 -0.0716 -0.6363 -0.2337
   15MOL    C5711845   5.510   1.352   0.268  0.4374 -0.2081 -0.0965
   15MOL    H5811846   6.748   1.325   1.158  0.3146  0.3132  1.7864
   15MOL    H5911847   6.587   1.385   1.166  0.1756  1.2510  0.6958
   15MOL    H6011848   6.753   1.454   0.914 -1.5325  0.0755 -1.7063
   15MOL    H6111849   6.455   1.417   0.978  1.3141 -0.8528  0.6612
   15MOL    H6211850   6.532   1.573   0.940 -3.2569  0.4276 -1.8449
   15MOL    H6311851   6.477   1.341   0.733  1.6024 -0.8570  1.9031
   15MOL    H6411852   6.592   1.470   0.708 -1.0800 -1.4102 -2.4449
   15MOL    H6511853   6.387   1.630   0.738  0.5771 -1.2297  4.1370
   15MOL    H6611854   6.299   1.494   0.773 -0.0811  0.1315 -0.0222
   15MOL    H6711855   6.448   1.529   0.502 -0.5718  0.5205 -0.8764
   15MOL    H6811856   6.355   1.392   0.549 -0.5218 -0.3866  2.1647
   15MOL    H6911857   6.150   1.517   0.583 -0.4493  0.9401  0.5660
   15MOL    H7011858   6.231   1.664   0.542 -1.1085 -0.1946 -0.4032
   15MOL    H7111859   6.226   1.419   0.360  0.8768 -0.0472  1.3321
   15MOL    H7211860   6.234   1.590   0.307 -2.1174  0.0638 -0.5126
   15MOL    H7311861   5.989   1.439   0.426 -1.4759  1.0416  1.0397
   15MOL    H7411862   6.004   1.616   0.403  1.6371  0.2241  0.8965
   15MOL    H7511863   6.003   1.373   0.213  0.7643  0.3269  0.3396
   15MOL    H7611864   6.060   1.518   0.144 -1.4010  0.3238 -2.3013
   15MOL    H7711865   5.833   1.519   0.071 -1.1144  1.5267  0.5495
   15MOL    H7811866   5.842   1.625   0.216 -4.1605 -0.4744  0.1504
   15MOL    H7911867   5.775   1.325   0.200 -0.5875 -0.0705  0.7249
   15MOL    H8011868   5.779   1.411   0.343 -2.2275  0.9255  0.3952
   15MOL    H8111869   5.597   1.463   0.101 -2.8837  0.4170  0.0416
   15MOL    H8211870   5.583   1.547   0.259  1.3685 -0.8863  0.9090
   15MOL    H8311871   5.538   1.315   0.366  0.3045  0.6580  0.2750
   15MOL    H8411872   5.509   1.271   0.195  0.3168 -0.9951  0.7770
   15MOL    H8511873   5.412   1.395   0.286  1.1401  0.7013  1.7211
   15MOL    C8611874   6.712   1.258   0.933  0.3837  0.1777  0.7857
   15MOL    C8711875   6.861   1.240   0.921 -1.0021 -0.2592  0.5612
   15MOL    C8811876   6.908   1.301   0.786 -0.3482  0.0797 -0.2507
   15MOL    C8911877   7.044   1.369   0.785  0.4078 -0.1069  0.1390
   15MOL    C9011878   7.099   1.423   0.643 -0.1135 -0.0097 -0.3842
   15MOL    C9111879   7.248   1.459   0.642 -0.1165  0.3283  0.1352
   15MOL    C9211880   7.352   1.344   0.666 -0.9585 -0.6599  0.1451
   15MOL    C9311881   7.494   1.396   0.684  0.4526 -0.1836 -0.6139
   15MOL    C9411882   7.601   1.287   0.663  0.6637 -0.1917 -0.1747
   15MOL    C9511883   7.639   1.263   0.511 -0.8696  0.4594 -0.7229
   15MOL    C9611884   7.687   1.396   0.444 -0.8220 -0.2846  0.4859
   15MOL    C9711885   0.031   1.364   0.299  0.5125  0.3739 -0.0656
   15MOL    C9811886   0.082   1.478   0.223  0.5798 -0.0304  0.3000
   15MOL    C9911887   0.096   1.448   0.072  0.2450 -0.2467 -0.0273
   15MOL   H10011888   6.660   1.185   0.995  1.3583 -1.4046 -0.2274
   15MOL   H10111889   6.666   1.235   0.837  1.7698 -0.5706  0.2893
   15MOL   H10211890   6.891   1.316   0.993  1.8659 -1.6296  0.8808
   15MOL   H10311891   6.916   1.225   0.707 -0.6058 -0.7204  0.4806
   15MOL   H10411892   6.834   1.372   0.749  0.0759  0.5511 -0.1966
   15MOL   H10511893   7.041   1.449   0.860 -1.4403 -0.3726  0.3683
   15MOL   H10611894   7.109   1.287   0.816 -1.1418 -0.8991  1.3706
   15MOL   H10711895   7.045   1.515   0.620 -0.4659  0.1699  1.0837
   15MOL   H10811896   7.078   1.362   0.555 -1.7281  1.1124 -0.8042
   15MOL   H10911897   7.264   1.536   0.718 -1.1441  0.6054  0.0826
   15MOL   H11011898   7.275   1.502   0.546 -1.4238  1.1015  0.0957
   15MOL   H11111899   7.329   1.285   0.755  1.3763 -0.7920  0.6968
   15MOL   H11211900   7.342   1.279   0.580 -4.5199 -0.8434  0.6037
   15MOL   H11311901   7.504   1.436   0.785 -1.3461 -1.1630 -0.0124
   15MOL   H11411902   7.513   1.483   0.622  0.5073  0.4913  0.3385
   15MOL   H11511903   7.688   1.319   0.720  0.1260 -2.0926  1.7982
   15MOL   H11611904   7.569   1.193   0.710  0.7223 -1.7993 -3.2085
   15MOL   H11711905   7.555   1.224   0.454 -3.0473  1.3702  1.8151
   15MOL   H11811906   0.031   1.197   0.502 -0.0548  1.3821  0.3282
   15MOL   H11911907   7.606   1.469   0.446  2.6410  3.8503 -1.1160
   15MOL   H12011908   0.076   1.441   0.497 -1.1661  1.4106 -0.3457
   15MOL   H12111909   0.101   1.281   0.297  0.5043  0.3843 -1.1182
   15MOL   H12211910   7.633   1.327   0.255  0.0627 -0.6419  1.7117
   15MOL   H12311911   0.176   1.516   0.263  1.7837 -3.1564  0.5901
   15MOL   H12411912   0.004   1.553   0.232 -0.1493 -0.6784 -0.5590
   15MOL   H12511913   0.004   1.410   0.028  0.5857 -1.6369  0.4355
   15MOL   H12611914   0.132   1.535   0.017  1.7962 -1.3810 -0.8769
   15MOL   H12711915   0.173   1.373   0.053 -0.7895 -1.0159 -1.2884
   15MOL   C12811916   6.899   1.088   0.935 -0.4969  0.6281  0.6649
   15MOL   C12911917   6.930   1.059   1.083 -0.0991 -0.2572  0.0730
   15MOL   C13011918   6.807   0.991   1.152 -0.4432  0.3367  0.0931
   15MOL   C13111919   6.811   1.010   1.307 -0.1502 -1.1292  0.3823
   15MOL   C13211920   6.693   0.941   1.384 -0.1064  0.3826  0.2617
   15MOL   C13311921   6.714   0.937   1.533 -0.6157 -0.0681  0.3665
   15MOL   C13411922   6.597   0.884   1.616  0.3161 -0.3359 -0.2121
   15MOL   C13511923   6.644   0.853   1.762  0.0468 -0.5645 -0.1788
   15MOL   C13611924   6.615   0.971   1.860  0.1566 -1.0892  0.1918
   15MOL   C13711925   6.641   0.945   2.009 -0.8492  0.1658  0.0177
   15MOL   C13811926   6.603   1.057   2.105 -0.2473 -0.0318  0.5881
   15MOL   C13911927   6.636   1.028   2.253 -0.1469  0.0691  0.6343
   15MOL   C14011928   6.566   1.133   2.346 -0.1857  0.2262 -0.2944
   15MOL   C14111929   6.600   1.104   2.490 -0.4225 -0.1174 -0.3996
   15MOL   H14211930   6.822   1.020   0.897  0.2049 -0.4384  1.1058
   15MOL   H14311931   6.993   1.066   0.883 -0.7088 -0.4968  0.7306
   15MOL   H14411932   6.935   1.151   1.141 -1.8935  0.8670 -1.4912
   15MOL   H14511933   6.715   1.043   1.124 -0.0928  0.0914 -1.5735
   15MOL   H14611934   6.804   0.888   1.118  3.8474  0.0262  0.4482
   15MOL   H14711935   6.903   0.962   1.343  1.5558  0.8841 -1.1311
   15MOL   H14811936   6.810   1.116   1.330 -1.8978 -0.2957 -3.1386
   15MOL   H14911937   6.597   0.987   1.364 -0.6089 -0.4445  0.7333
   15MOL   H15011938   6.681   0.839   1.347  1.7633  0.9950 -2.2043
   15MOL   H15111939   6.808   0.881   1.544  1.1532  2.7906  0.4003
   15MOL   H15211940   6.731   1.035   1.578 -0.3476 -0.3331  0.8486
   15MOL   H15311941   6.509   0.948   1.620 -1.2327 -2.4894  1.4244
   15MOL   H15411942   6.572   0.787   1.573 -1.3567 -0.5718  1.2407
   15MOL   H15511943   6.589   0.768   1.803  0.9296 -1.3090 -0.5113
   15MOL   H15611944   6.751   0.836   1.777  0.3118  0.5351 -0.7819
   15MOL   H15711945   6.663   1.064   1.827  0.8433 -0.8239  1.8608
   15MOL   H15811946   6.508   0.982   1.846  0.2322 -0.0242  0.3899
   15MOL   H15911947   6.743   0.911   2.025 -0.8045  1.2498  2.1737
   15MOL   H16011948   6.586   0.858   2.045 -2.4544  0.8981 -0.5951
   15MOL   H16111949   6.666   1.141   2.076 -0.0568 -1.0729 -2.1726
   15MOL   H16211950   6.499   1.088   2.094 -0.1156  0.2344  0.0900
   15MOL   H16311951   6.604   0.928   2.283 -1.3655  0.3436  0.2969
   15MOL   H16411952   6.743   1.042   2.259 -0.0445 -0.9455  1.2887
   15MOL   H16511953   6.588   1.238   2.326  2.3141 -0.5091 -1.6093
   15MOL   H16611954   6.458   1.121   2.338 -0.3267  0.9485  0.3983
   15MOL   H16711955   6.532   1.168   2.547 -0.1232 -0.5583  0.4566
   15MOL   H16811956   6.575   1.003   2.519 -0.2120 -0.1319 -0.2647
   15MOL   H16911957   6.700   1.138   2.518 -1.8241  2.3186  1.9514
   15MOL   C17011958   7.058   0.964   1.103  0.6519 -0.1934 -0.2685
   15MOL   C17111959   7.194   1.022   1.077 -0.5416 -0.1189  0.3335
   15MOL   C17211960   7.219   1.126   1.183 -0.5017  1.0691  0.3112
   15MOL   C17311961   7.237   1.077   1.329 -0.0659  0.6961 -0.5809
   15MOL   C17411962   7.241   1.185   1.433 -0.4112  0.3028 -0.1675
   15MOL   C17511963   7.276   1.130   1.571 -1.1410 -0.0484 -0.1720
   15MOL   C17611964   7.292   1.239   1.678 -0.2397 -0.3222  0.6976
   15MOL   C17711965   7.326   1.180   1.818  0.1618  0.1440 -0.1866
   15MOL   C17811966   7.381   1.286   1.907 -0.3816 -0.5261 -0.2831
   15MOL   C17911967   7.385   1.225   2.051  0.4605 -0.1675  0.0512
   15MOL   C18011968   7.450   1.315   2.151 -0.6287 -0.5243  0.2382
   15MOL   C18111969   7.462   1.250   2.290  0.7206 -0.0888 -0.0127
   15MOL   C18211970   7.551   1.330   2.388  0.3302 -0.3651 -0.1463
   15MOL   C18311971   7.570   1.267   2.521  0.5303 -0.5980 -0.3015
   15MOL   H18411972   7.046   0.885   1.029 -0.3434 -2.0898  1.8503
   15MOL   H18511973   7.065   0.911   1.198 -0.1300 -1.8600 -1.1055
   15MOL   H18611974   7.212   1.089   0.992  1.2909 -0.1045  0.7260
   15MOL   H18711975   7.313   1.170   1.149 -1.4921  1.2753 -2.2458
   15MOL   H18811976   7.136   1.196   1.182 -0.5893  0.9623 -0.1368
   15MOL   H18911977   7.147   1.019   1.351 -0.3813  1.4041  0.0372
   15MOL   H19011978   7.318   1.005   1.327  0.4644  1.2761 -0.3368
   15MOL   H19111979   7.318   1.254   1.398  1.4014 -0.6708  1.7852
   15MOL   H19211980   7.146   1.239   1.425 -0.1947  0.7766  0.4302
   15MOL   H19311981   7.362   1.064   1.567 -0.7381  0.3944  0.9615
   15MOL   H19411982   7.199   1.064   1.612 -2.0621 -0.1154 -1.9542
   15MOL   H19511983   7.206   1.306   1.687 -0.8373 -0.7167 -1.5865
   15MOL   H19611984   7.369   1.306   1.640  0.0365 -1.2695 -0.4228
   15MOL   H19711985   7.406   1.106   1.820  1.1860  1.2472  1.9600
   15MOL   H19811986   7.233   1.137   1.856 -0.8924  2.7224  0.2420
   15MOL   H19911987   7.321   1.377   1.911 -0.3258 -0.4752 -0.5704
   15MOL   H20011988   7.480   1.327   1.886 -0.5481  0.8766  1.5020
   15MOL   H20111989   7.442   1.132   2.055  0.1973 -0.2584  2.3687
   15MOL   H20211990   7.286   1.196   2.086  0.6719 -1.6801 -0.5607
   15MOL   H20311991   7.408   1.415   2.156 -0.3352 -0.1971 -2.8043
   15MOL   H20411992   7.548   1.351   2.122 -0.2313 -0.3201  1.8076
   15MOL   H20511993   7.369   1.234   2.343  1.3567  1.3614  1.5814
   15MOL   H20611994   7.502   1.149   2.284 -0.6737 -0.9403  3.7285
   15MOL   H20711995   7.646   1.346   2.338  1.2669 -1.0341  1.4009
   15MOL   H20811996   7.514   1.433   2.397 -0.1614 -0.7053  1.7662
   15MOL   H20911997   7.478   1.227   2.564  0.0497 -1.1812 -1.8424
   15MOL   H21011998   7.616   1.339   2.588  1.8029 -0.1548 -1.6404
   15MOL   H21111999   7.631   1.177   2.520 -0.6579 -1.4504  0.8418
   15MOL   C21212000   7.300   0.908   1.077  0.0972 -0.4016 -0.0265
   15MOL   C21312001   7.323   0.822   0.949  0.5368  0.2818 -0.6832
   15MOL   C21412002   7.222   0.713   0.935  0.2567  0.3772  0.1163
   15MOL   C21512003   7.190   0.624   1.056 -0.7806  0.4067  0.7276
   15MOL   C21612004   7.100   0.494   1.012 -0.1243 -0.2216 -0.4650
   15MOL   C21712005   7.145   0.398   0.906 -0.6046 -0.2196 -0.0214
   15MOL   C21812006   7.271   0.321   0.928 -0.0412 -0.8719 -0.8341
   15MOL   C21912007   7.310   0.230   0.809 -0.6488 -0.0720  0.2165
   15MOL   C22012008   7.368   0.294   0.679 -0.0130 -0.2029 -0.0445
   15MOL   C22112009   7.360   0.201   0.559 -0.4053  0.1234  0.2187
   15MOL   C22212010   7.417   0.245   0.429 -0.2740 -0.3170  0.4112
   15MOL   C22312011   7.335   0.209   0.302 -0.5195 -0.3435  0.0732
   15MOL   C22412012   7.346   0.063   0.268 -0.7403 -0.1436  0.3915
   15MOL   C22512013   7.248   0.020   0.156 -1.0768 -0.1943  0.1009
   15MOL   H22612014   7.301   0.847   1.167 -1.8211 -0.9080 -0.3107
   15MOL   H22712015   7.396   0.957   1.094  0.5948 -1.0565 -0.9049
   15MOL   H22812016   7.417   0.775   0.978  0.7994  1.2874  0.1568
   15MOL   H22912017   7.131   0.743   0.882 -2.0051 -2.6705  2.0771
   15MOL   H23012018   7.258   0.644   0.860 -2.4147 -0.0452 -0.8436
   15MOL   H23112019   7.132   0.682   1.128 -1.2545 -2.2865  2.6139
   15MOL   H23212020   7.276   0.587   1.112 -1.7827 -1.0077  1.3554
   15MOL   H23312021   6.998   0.525   0.988 -0.1810  0.6923  0.9095
   15MOL   H23412022   7.094   0.441   1.106 -1.3732  1.7021  0.5837
   15MOL   H23512023   7.143   0.462   0.818  0.3676  0.1933  0.2501
   15MOL   H23612024   7.069   0.323   0.885 -0.4914 -0.3220 -0.0700
   15MOL   H23712025   7.357   0.386   0.945  0.7941 -1.5563 -2.3115
   15MOL   H23812026   7.259   0.266   1.021  0.1991 -0.2775 -0.4469
   15MOL   H23912027   7.380   0.151   0.838 -1.4526 -1.0225 -0.4017
   15MOL   H24012028   7.223   0.172   0.780 -0.5784 -0.2695  0.4000
   15MOL   H24112029   7.470   0.323   0.704  0.4459 -2.1027  0.3249
   15MOL   H24212030   7.311   0.384   0.657 -3.3292 -2.6467 -1.9655
   15MOL   H24312031   7.403   0.104   0.583 -1.6245 -0.4260  0.2242
   15MOL   H24412032   7.258   0.169   0.540  0.3470 -1.0664 -1.9824
   15MOL   H24512033   7.516   0.203   0.416 -0.1810  0.0726 -0.1790
   15MOL   H24612034   7.422   0.354   0.434  1.1328 -0.3054 -0.9975
   15MOL   H24712035   7.354   0.273   0.216  0.1986 -1.6666 -0.7689
   15MOL   H24812036   7.234   0.242   0.327 -0.2512  0.4965  0.0629
   15MOL   H24912037   7.328   7.695   0.355  0.7303 -2.7052 -1.1124
   15MOL   H25012038   7.445   0.037   0.232  0.1920  2.0213  1.2751
   15MOL   H25112039   7.256   0.087   0.071 -0.5170 -0.5200 -0.1044
   15MOL   H25212040   7.272   7.617   0.118  1.5133  1.0348 -1.6132
   15MOL   H25312041   7.146   0.022   0.193 -0.5555 -0.3589  1.6080
   15MOL   C25412042   7.346   0.892   0.814 -0.2106  0.3976 -1.4197
   15MOL   C25512043   7.406   0.815   0.698 -0.2121  0.5218 -0.5651
   15MOL   C25612044   7.320   0.801   0.568 -0.5525 -0.3809  0.1345
   15MOL   C25712045   7.247   0.674   0.559  0.8628 -0.5752 -0.4783
   15MOL   C25812046   7.182   0.653   0.414 -0.3236 -0.0949 -0.5839
   15MOL   C25912047   7.127   0.511   0.392 -0.3573 -0.4956  0.4548
   15MOL   C26012048   7.015   0.472   0.492  0.0807  0.3393 -0.1081
   15MOL   C26112049   6.975   0.330   0.481  0.3497  0.2124 -0.4653
   15MOL   C26212050   6.866   0.286   0.583  0.4654  0.3734  0.0327
   15MOL   C26312051   6.828   0.135   0.582 -0.0389 -0.4424  0.6552
   15MOL   C26412052   6.728   0.104   0.690  0.3145  0.3924 -0.6846
   15MOL   C26512053   6.672   7.651   0.688  0.7645  0.1979 -0.3538
   15MOL   C26612054   6.572   7.621   0.811  0.2122  0.2643  0.0058
   15MOL   C26712055   6.570   7.482   0.867  0.4310  0.6502  0.6281
   15MOL   H26812056   7.413   0.974   0.839 -0.6373  1.2182 -2.8696
   15MOL   H26912057   7.254   0.944   0.785 -1.4728  0.8453  3.1024
   15MOL   H27012058   7.427   0.714   0.732  1.1394  0.6824 -0.8785
   15MOL   H27112059   7.377   0.815   0.477  0.2817 -0.4169  0.6425
   15MOL   H27212060   7.241   0.876   0.563 -0.7751 -0.5110  1.5105
   15MOL   H27312061   7.162   0.670   0.628  0.1606 -0.3078 -1.3211
   15MOL   H27412062   7.312   0.588   0.574  0.9556 -0.7618 -1.9234
   15MOL   H27512063   7.248   0.678   0.332 -0.5273  0.7781 -0.4804
   15MOL   H27612064   7.104   0.727   0.398 -0.5599 -0.3251 -0.5152
   15MOL   H27712065   7.213   0.445   0.406 -0.0150 -0.4851 -1.5305
   15MOL   H27812066   7.087   0.493   0.293  2.3431  0.9603 -0.9528
   15MOL   H27912067   7.039   0.489   0.597  0.5555  0.0423 -0.1714
   15MOL   H28012068   6.930   0.539   0.476 -0.3620 -0.2661 -0.2894
   15MOL   H28112069   7.060   0.263   0.485  0.3444  0.2615  1.0076
   15MOL   H28212070   6.950   0.315   0.376 -0.0099  1.3581 -0.5513
   15MOL   H28312071   6.896   0.319   0.682 -0.5319 -1.1317  0.8514
   15MOL   H28412072   6.770   0.336   0.566  0.4386  0.1873 -0.3651
   15MOL   H28512073   6.920   0.076   0.581  0.1709 -0.1063 -0.2296
   15MOL   H28612074   6.783   0.123   0.484 -0.3243  1.3781  0.5541
   15MOL   H28712075   6.645   0.174   0.679 -0.7587 -0.4105  1.9734
   15MOL   H28812076   6.782   0.118   0.783 -1.2805 -2.7605  0.8255
   15MOL   H28912077   6.608   7.631   0.602 -0.0911  3.2291 -0.4761
   15MOL   H29012078   6.755   7.581   0.675  0.4116 -0.3076  0.1227
   15MOL   H29112079   6.599   7.686   0.895  0.5139  0.3445 -0.1515
   15MOL   H29212080   6.470   7.647   0.785  0.2404 -1.0343 -1.4721
   15MOL   H29312081   6.666   7.446   0.904 -0.2203  0.5290  2.2293
   15MOL   H29412082   6.531   7.407   0.797  1.6977 -0.0596  0.6662
   15MOL   H29512083   6.489   7.481   0.940  0.2231  0.4894  0.3971
   15MOL   C29612084   7.548   0.871   0.650  0.2861 -0.1056 -0.2701
   15MOL   C29712085   7.645   0.772   0.580 -0.1714  0.4400  0.8601
   15MOL   C29812086   0.054   0.829   0.485  0.4346 -0.7423  0.6496
   15MOL   C29912087   7.688   0.893   0.360 -0.7981 -0.7518 -0.3817
   15MOL   C30012088   0.088   0.942   0.257  0.5876 -0.3957  0.9376
   15MOL   C30112089   0.015   0.989   0.129  0.2493  0.1272 -0.5620
   15MOL   C30212090   0.097   1.061   0.023  0.4735 -0.2186 -0.0305
   15MOL   C30312091   0.018   1.120   7.600 -0.8173 -0.4535  0.4325
   15MOL   C30412092   0.108   1.175   7.493  0.6948 -0.1777  0.0933
   15MOL   C30512093   0.031   1.275   7.396  0.2889  0.6382 -0.0611
   15MOL   C30612094   0.116   1.333   7.278 -0.2474  0.4116  0.5522
   15MOL   C30712095   0.035   1.448   7.206 -0.0567  0.0151 -0.5455
   15MOL   C30812096   0.114   1.525   7.100 -0.5986 -0.1762 -0.2380
   15MOL   C30912097   0.027   1.634   7.030  0.0966  0.0957 -0.9529
   15MOL   H31012098   7.610   0.906   0.732  0.6423  0.2912 -0.7046
   15MOL   H31112099   7.534   0.962   0.591  1.3867  0.6542  0.6225
   15MOL   H31212100   7.579   0.707   0.523  0.6988  0.9302 -0.7275
   15MOL   H31312101   0.124   0.751   0.456  2.9110  1.2412  1.1535
   15MOL   H31412102   0.119   0.905   0.528  1.1465 -0.2610 -1.2517
   15MOL   H31512103   7.641   0.984   0.396  0.6862 -0.3096  0.4564
   15MOL   H31612104   7.606   0.828   0.327  0.0079 -2.5291  1.0439
   15MOL   H31712105   0.155   1.016   0.299 -0.1806  1.7559 -1.5117
   15MOL   H31812106   0.147   0.857   0.223 -1.3869 -1.9959  1.3746
   15MOL   H31912107   7.628   1.056   0.153 -1.3430 -1.7850 -0.5634
   15MOL   H32012108   7.666   0.904   0.079  0.3131  0.1962 -0.7372
   15MOL   H32112109   0.154   1.143   0.067  1.9978 -0.6696 -1.1292
   15MOL   H32212110   0.175   0.992   7.687 -0.5420 -1.9999  1.2789
   15MOL   H32312111   7.652   1.201   7.640 -0.5027 -1.0418  2.1708
   15MOL   H32412112   7.634   1.051   7.571 -0.3943  0.1315 -2.2369
   15MOL   H32512113   0.192   1.226   7.540 -0.2455  0.5034  1.0433
   15MOL   H32612114   0.127   1.093   7.423  2.4296  0.0556  0.2608
   15MOL   H32712115   0.003   1.355   7.465  1.3209  0.6963  0.3029
   15MOL   H32812116   7.630   1.233   7.367  0.5167  1.7399 -2.5517
   15MOL   H32912117   0.140   1.256   7.205 -0.6188 -0.2527  1.1288
   15MOL   H33012118   0.216   1.363   7.307 -0.4722  2.5495 -0.7197
   15MOL   H33112119   0.020   1.520   7.286  2.0454 -0.4000  0.2380
   15MOL   H33212120   7.637   1.406   7.167 -0.3607 -1.1510  1.3663
   15MOL   H33312121   0.158   1.461   7.022  0.2206  1.0560 -0.8077
   15MOL   H33412122   0.201   1.575   7.142 -1.3183 -0.2958  1.4022
   15MOL   H33512123   0.006   1.712   7.104  2.6096 -1.6921  1.7744
   15MOL   H33612124   0.084   1.664   6.942  1.6580 -2.7727 -0.9935
   15MOL   H33712125   7.625   1.606   6.993 -1.1845  2.0165  0.8774
   15MOL   C33812126   0.016   0.675   0.682  0.3139 -0.1789  0.6561
   15MOL   C33912127   0.116   0.559   0.641 -0.1082 -0.9080 -0.9932
   15MOL   C34012128   0.162   0.484   0.769 -0.4766  0.0273 -0.5719
   15MOL   C34112129   0.047   0.399   0.821 -0.0175  0.3903  0.0130
   15MOL   C34212130   0.096   0.269   0.894  0.1578 -0.5381 -0.2679
   15MOL   C34312131   7.671   0.197   0.946 -0.6898 -0.4070  0.4286
   15MOL   C34412132   7.693   0.068   1.023 -0.1868 -0.0510 -0.0163
   15MOL   C34512133   7.560   7.687   1.034 -0.3448  0.0021 -0.1454
   15MOL   C34612134   7.582   7.568   1.122 -0.0518  0.3679 -0.0999
   15MOL   C34712135   7.455   7.482   1.137 -0.3530  0.0831 -0.1965
   15MOL   C34812136   7.476   7.345   1.206 -0.1159 -0.6313  0.4241
   15MOL   C34912137   7.346   7.261   1.217 -0.6711 -1.0198 -0.3010
   15MOL   C35012138   7.365   7.127   1.282 -0.0132  0.1243  0.4078
   15MOL   C35112139   7.236   7.044   1.295 -0.5280  0.6197 -0.0393
   15MOL   H35212140   0.058   0.734   0.764 -0.1780  0.2520  0.6032
   15MOL   H35312141   7.620   0.625   0.715 -0.3106 -1.7039 -3.1232
   15MOL   H35412142   0.206   0.615   0.618  0.7493 -2.0467 -0.4656
   15MOL   H35512143   0.241   0.412   0.748 -2.4309 -2.0177 -1.2531
   15MOL   H35612144   0.203   0.544   0.849 -2.8881  1.0363 -0.0455
   15MOL   H35712145   7.666   0.375   0.747  1.9840  2.8481 -2.9627
   15MOL   H35812146   7.693   0.460   0.896  1.4351  1.1712  0.3463
   15MOL   H35912147   0.173   0.288   0.968  1.0820 -2.1083 -0.8091
   15MOL   H36012148   0.159   0.195   0.844  1.2095 -0.6808  1.2489
   15MOL   H36112149   7.603   0.273   0.983 -0.5705 -0.2126  0.2489
   15MOL   H36212150   7.617   0.172   0.854  0.1292  2.5254 -0.8905
   15MOL   H36312151   0.075   0.006   0.978 -0.2933  0.5675 -1.0577
   15MOL   H36412152   0.036   0.090   1.122  1.3180 -2.0218 -0.1407
   15MOL   H36512153   7.483   0.059   1.070  0.8586  1.0753  0.4237
   15MOL   H36612154   7.518   7.656   0.938  1.4070  0.2906 -1.0157
   15MOL   H36712155   7.659   7.499   1.084 -0.6766 -1.7933  2.4156
   15MOL   H36812156   7.618   7.599   1.220  1.2443  1.6209 -0.9496
   15MOL   H36912157   7.378   7.537   1.191 -1.2916 -2.6232  1.3695
   15MOL   H37012158   7.411   7.462   1.039 -0.7343 -1.6016  0.3058
   15MOL   H37112159   7.508   7.377   1.305 -2.7009 -0.3263  1.1911
   15MOL   H37212160   7.552   7.293   1.147 -0.6089 -0.7225 -0.1271
   15MOL   H37312161   7.299   7.262   1.118 -1.4817  1.3528  0.0726
   15MOL   H37412162   7.274   7.322   1.272  0.5399  2.5396 -2.4248
   15MOL   H37512163   7.424   7.070   1.211  0.7808  2.7192 -1.0869
   15MOL   H37612164   7.430   7.136   1.370  1.6090  1.8907 -0.9129
   15MOL   H37712165   7.200   7.024   1.194 -0.3761 -1.1960  0.2532
   15MOL   H37812166   7.256   6.947   1.340  1.6309  0.2285 -1.7658
   15MOL   H37912167   7.155   7.092   1.351  0.0410 -0.9823  2.2043
   15MOL   C38012168   0.064   0.471   0.523 -0.8162 -0.3473  0.0394
   15MOL   C38112169   0.172   0.386   0.455 -0.2323 -0.0341  0.6348
   15MOL   C38212170   0.124   0.243   0.419 -0.1351 -0.0446  0.3579
   15MOL   C38312171   0.092   0.160   0.543  0.1402  0.0414 -0.1757
   15MOL   C38412172   0.070   0.005   0.510 -0.4994 -0.7989  0.1905
   15MOL   C38512173   0.001   7.636   0.634 -0.4764  0.5105 -0.0849
   15MOL   C38612174   7.620   7.505   0.610 -0.1441 -0.0351 -0.1262
   15MOL   C38712175   7.568   7.425   0.727  0.4326  0.3364  0.7459
   15MOL   C38812176   7.498   7.294   0.694  0.7933  0.4352  0.0265
   15MOL   C38912177   7.448   7.210   0.815 -0.4227  0.1457 -0.0343
   15MOL   C39012178   7.441   7.064   0.794  0.4837 -0.6368  0.5227
   15MOL   C39112179   7.448   6.988   0.930  0.3693  0.8926  1.0776
   15MOL   C39212180   7.383   6.846   0.916 -0.5400 -0.5174 -0.7274
   15MOL   C39312181   7.409   6.763   1.044 -0.0721 -0.1768 -0.4704
   15MOL   H39412182   0.023   0.538   0.447 -0.2122 -0.8778 -0.7599
   15MOL   H39512183   7.672   0.411   0.549  0.7301 -2.7027 -0.1248
   15MOL   H39612184   0.257   0.390   0.523  1.1834  0.3600 -1.1256
   15MOL   H39712185   0.187   0.179   0.357 -2.1827 -0.8106 -0.9986
   15MOL   H39812186   0.029   0.260   0.369  0.6129  0.4001 -0.9285
   15MOL   H39912187   0.005   0.205   0.590  1.9847  1.7109  1.7434
   15MOL   H40012188   0.174   0.171   0.614  1.1680 -4.0259 -0.6008
   15MOL   H40112189   0.170   7.663   0.485  0.7649  2.2737  0.2935
   15MOL   H40212190   0.003   7.689   0.426  1.1557 -2.0443 -0.9792
   15MOL   H40312191   7.623   0.011   0.673 -0.3343  0.6760 -0.1144
   15MOL   H40412192   0.081   7.630   0.708  0.2081 -0.8602 -0.9189
   15MOL   H40512193   7.536   7.526   0.544  1.4728  1.1960 -1.8606
   15MOL   H40612194   7.685   7.451   0.541  0.6514  0.1047  0.5063
   15MOL   H40712195   7.649   7.414   0.799 -0.4912 -1.3862  1.5355
   15MOL   H40812196   7.496   7.496   0.767 -1.5284 -0.5651 -1.0968
   15MOL   H40912197   7.415   7.306   0.624  1.7182  0.4834 -1.0744
   15MOL   H41012198   7.578   7.243   0.640  3.2603  1.5676  2.4546
   15MOL   H41112199   7.363   7.252   0.867 -0.0124  1.5283 -0.4463
   15MOL   H41212200   7.522   7.226   0.893  1.7787 -1.7737 -1.6392
   15MOL   H41312201   7.344   7.036   0.753  1.1157  1.2477 -2.3834
   15MOL   H41412202   7.517   7.017   0.733  1.4449  1.9239 -0.3457
   15MOL   H41512203   7.385   7.034   1.005  1.7092  1.1803  2.0483
   15MOL   H41612204   7.551   6.989   0.967  0.6869 -2.3134  0.3808
   15MOL   H41712205   7.278   6.846   0.888 -1.0221  1.6457  0.9455
   15MOL   H41812206   7.439   6.792   0.840  1.4854 -1.7527  1.5549
   15MOL   H41912207   7.508   6.761   1.091  1.1635  0.2492 -2.9825
   15MOL   H42012208   7.381   6.661   1.018 -0.8888 -0.0168 -0.2155
   15MOL   H42112209   7.339   6.792   1.122 -0.8456  0.3629 -1.3663
   15MOL   C42212210   0.234   0.443   0.323  0.0100  0.5070 -0.4773
   15MOL   C42312211   0.387   0.442   0.319 -0.2532  0.2770  0.0989
   15MOL   C42412212   0.441   0.574   0.372  0.0632  0.1022 -0.3840
   15MOL   C42512213   0.419   0.701   0.288  0.5129 -0.0529 -0.0654
   15MOL   C42612214   0.529   0.804   0.327 -0.5613 -0.5287  0.4733
   15MOL   C42712215   0.491   0.872   0.461 -0.0046  0.1624 -0.8934
   15MOL   C42812216   0.615   0.948   0.528  0.0105 -0.1164  0.1714
   15MOL   C42912217   0.574   1.007   0.662  0.8753 -0.1949  0.0034
   15MOL   C43012218   0.688   1.093   0.721 -0.0696 -0.1693 -0.2259
   15MOL   C43112219   0.727   1.215   0.636  0.5255  0.3475 -0.5778
   15MOL   C43212220   0.854   1.288   0.682 -0.0451  0.3591 -0.3651
   15MOL   C43312221   0.851   1.344   0.831  0.4470 -0.4584  0.3808
   15MOL   C43412222   0.740   1.450   0.853 -0.1936 -0.0632  0.3991
   15MOL   C43512223   0.736   1.494   1.000 -0.8098  0.7409 -0.5544
   15MOL   H43612224   0.204   0.547   0.311  0.8009  0.8770  0.6142
   15MOL   H43712225   0.192   0.390   0.237 -0.8886 -0.4627  0.5470
   15MOL   H43812226   0.401   0.444   0.211 -0.1928 -1.1827  0.0734
   15MOL   H43912227   0.546   0.563   0.398  0.3358  0.0792 -1.4927
   15MOL   H44012228   0.396   0.611   0.465  1.8652 -1.6618  1.2351
   15MOL   H44112229   0.437   0.687   0.182 -1.1656  4.1754 -1.0059
   15MOL   H44212230   0.321   0.745   0.304  1.0805  1.6147 -1.0065
   15MOL   H44312231   0.543   0.873   0.244 -1.3793  0.5932  1.2525
   15MOL   H44412232   0.623   0.751   0.340 -1.2250 -1.3256  2.1704
   15MOL   H44512233   0.457   0.810   0.543  3.4831 -1.6227 -0.7353
   15MOL   H44612234   0.402   0.933   0.441 -1.2377 -1.2963  0.0814
   15MOL   H44712235   0.702   0.885   0.545 -0.1268 -0.0773  1.0289
   15MOL   H44812236   0.642   1.028   0.460  1.9324  0.2281  1.2982
   15MOL   H44912237   0.491   1.075   0.643  1.3442  0.0399 -1.2410
   15MOL   H45012238   0.547   0.929   0.733  2.6141 -1.6830 -0.9178
   15MOL   H45112239   0.656   1.126   0.820 -0.1883  0.1097 -0.3576
   15MOL   H45212240   0.777   1.031   0.737  0.3130  0.8319  1.6621
   15MOL   H45312241   0.747   1.179   0.535 -2.5498 -1.0266 -0.7313
   15MOL   H45412242   0.637   1.275   0.631  0.2888 -0.0517 -1.2043
   15MOL   H45512243   0.940   1.224   0.669 -0.3413 -0.2871  0.7653
   15MOL   H45612244   0.873   1.366   0.609 -1.5753  0.1006 -1.0601
   15MOL   H45712245   0.950   1.383   0.855  0.0791  0.3435  0.6063
   15MOL   H45812246   0.818   1.270   0.904  2.1445 -1.2603  0.3533
   15MOL   H45912247   0.751   1.537   0.787  0.1022  1.5252  2.4813
   15MOL   H46012248   0.642   1.406   0.837  0.2665 -0.7546 -0.5207
   15MOL   H46112249   0.836   1.504   1.040 -1.6132  0.6745  1.5331
   15MOL   H46212250   0.689   1.415   1.058  2.5066 -1.4268 -0.6960
   15MOL   H46312251   0.684   1.590   0.998 -1.4241  0.4987  2.1263
   15MOL   C46412252   0.459   0.310   0.358  0.2518 -0.1432 -0.4376
   15MOL   C46512253   0.602   0.295   0.296  0.0908  0.6769 -0.8256
   15MOL   C46612254   0.705   0.205   0.385 -0.2055 -0.2472 -0.1953
   15MOL   C46712255   0.667   0.065   0.426 -0.4414  0.3545  0.3950
   15MOL   C46812256   0.780   7.689   0.508 -0.1975 -0.5377 -0.0613
   15MOL   C46912257   0.772   7.536   0.497 -0.2206 -0.0014  0.1047
   15MOL   C47012258   0.874   7.468   0.585 -0.3090  0.9569  0.7491
   15MOL   C47112259   0.891   7.325   0.538  0.0437  0.2831  0.0350
   15MOL   C47212260   0.967   7.243   0.636 -0.6743  0.2086 -0.0734
   15MOL   C47312261   0.964   7.098   0.596 -0.4300 -0.4584  0.2395
   15MOL   C47412262   1.011   6.996   0.705  0.0163  0.2763 -0.0199
   15MOL   C47512263   1.030   6.851   0.642 -0.3084  0.2370  0.0733
   15MOL   C47612264   0.896   6.769   0.635 -0.3558  0.0563 -0.4929
   15MOL   C47712265   0.911   6.640   0.552 -0.1860  0.7014  0.0130
   15MOL   H47812266   0.394   0.234   0.313 -0.5138 -0.0850  0.5357
   15MOL   H47912267   0.463   0.303   0.467 -2.8781  3.5402  0.0172
   15MOL   H48012268   0.655   0.390   0.285  0.3894  0.7071  0.6609
   15MOL   H48112269   0.802   0.211   0.337  0.2838  0.1814  0.8405
   15MOL   H48212270   0.740   0.256   0.475 -1.1706 -2.9212  1.7426
   15MOL   H48312271   0.646   0.005   0.338  1.2399 -0.1775  0.3337
   15MOL   H48412272   0.578   0.057   0.488  0.3206 -2.1542  1.2293
   15MOL   H48512273   0.772   0.018   0.614 -1.5969 -0.4545 -0.1879
   15MOL   H48612274   0.883   0.022   0.488 -0.7887  1.2388 -0.6355
   15MOL   H48712275   0.670   7.504   0.515 -0.3212  0.7184  0.8553
   15MOL   H48812276   0.779   7.507   0.392  0.0313 -1.8009  0.6014
   15MOL   H48912277   0.970   7.516   0.604 -0.2114  1.0010  0.1347
   15MOL   H49012278   0.826   7.459   0.683 -0.5727  1.7427  0.6964
   15MOL   H49112279   0.791   7.281   0.525 -0.0247  0.0731  1.2439
   15MOL   H49212280   0.931   7.322   0.436 -1.4826  1.4523 -0.6259
   15MOL   H49312281   1.071   7.275   0.638 -0.3134 -0.9878  0.5150
   15MOL   H49412282   0.923   7.260   0.735 -0.1197  3.1743 -0.2891
   15MOL   H49512283   0.867   7.059   0.567  0.8323 -3.7153  0.0949
   15MOL   H49612284   1.024   7.078   0.507 -1.1697 -0.5251 -0.2497
   15MOL   H49712285   1.106   7.023   0.751  0.2679 -1.4650  0.5149
   15MOL   H49812286   0.941   6.989   0.788  2.1282 -0.7023  1.7320
   15MOL   H49912287   1.105   6.788   0.690  1.1746  0.6950 -1.5933
   15MOL   H50012288   1.075   6.861   0.543 -1.0384  1.2681 -0.1610
   15MOL   H50112289   0.849   6.759   0.732 -1.6489 -2.1152 -1.2960
   15MOL   H50212290   0.824   6.827   0.577 -1.3371 -0.7362 -0.0659
   15MOL   H50312291   0.990   6.577   0.594 -1.0025 -0.9377 -0.8816
   15MOL   H50412292   0.816   6.587   0.563  0.4609 -0.5471 -0.2613
   15MOL   H50512293   0.932   6.658   0.447  0.0994 -1.1523 -0.2662
   15MOL   C50612294   0.584   0.242   0.153  0.3395  0.2364  0.0522
   15MOL   C50712295   0.688   0.283   0.050  0.0959 -0.1812  0.0599
   15MOL   C50812296   0.710   0.187   7.630 -0.0909 -0.3455  0.0614
   15MOL   C50912297   0.780   0.050   7.651  0.0350  0.2857 -0.3352
   15MOL   C51012298   0.813   7.679   7.514 -0.1641 -0.2750  0.7663
   15MOL   C51112299   0.837   7.529   7.518  0.2886 -0.4237  0.7952
   15MOL   C51212300   0.912   7.474   7.387  0.7120  0.2518 -0.5206
   15MOL   C51312301   0.900   7.316   7.381 -0.4901  0.2172 -0.0270
   15MOL   C51412302   0.978   7.240   7.486 -1.0057 -0.7171  0.1161
   15MOL   C51512303   1.129   7.217   7.468  0.1426 -0.8358  0.1189
   15MOL   C51612304   1.163   7.102   7.564  0.2693  0.1684 -0.4485
   15MOL   C51712305   1.309   7.106   7.622 -0.0978  0.4737 -0.0997
   15MOL   C51812306   1.330   7.006   0.041 -0.1383 -0.1561  0.4927
   15MOL   C51912307   1.270   7.044   0.174  0.1030 -0.0160 -0.1766
   15MOL   H52012308   0.491   0.268   0.103  1.0489  0.4951 -1.1753
   15MOL   H52112309   0.581   0.133   0.157  2.1486  0.1822  0.6592
   15MOL   H52212310   0.783   0.283   0.105 -0.9401 -1.0101  1.9003
   15MOL   H52312311   0.617   0.172   7.575 -0.0342  0.3080 -0.2113
   15MOL   H52412312   0.787   0.231   7.566 -0.6967  0.0182 -0.4164
   15MOL   H52512313   0.880   0.060   7.693 -0.3738  4.1987 -0.0679
   15MOL   H52612314   0.722   7.677   0.016  1.4179 -0.5684  0.0478
   15MOL   H52712315   0.897   0.033   7.466 -0.1344  0.1684  1.2691
   15MOL   H52812316   0.732   0.002   7.443 -1.2393 -0.5388  1.8971
   15MOL   H52912317   0.737   7.487   7.531 -0.6845  1.3607 -0.7379
   15MOL   H53012318   0.894   7.506   7.608  0.2386  1.4034  1.3041
   15MOL   H53112319   0.856   7.509   7.300  1.9348  1.3780 -0.8736
   15MOL   H53212320   1.016   7.506   7.387  0.7192  0.2316 -0.2521
   15MOL   H53312321   0.931   7.282   7.282 -3.1804  0.0435 -0.8685
   15MOL   H53412322   0.793   7.295   7.387 -1.0379  2.0404 -2.4622
   15MOL   H53512323   0.933   7.141   7.493 -0.2080 -0.9931  1.4250
   15MOL   H53612324   0.962   7.290   7.581 -0.7977 -2.7572  1.2661
   15MOL   H53712325   1.154   7.190   7.366 -0.4405  0.6360 -0.4245
   15MOL   H53812326   1.185   7.309   7.482  1.2025 -1.4144 -0.2160
   15MOL   H53912327   1.090   7.110   7.644 -0.5069  3.7415 -1.4242
   15MOL   H54012328   1.144   7.000   7.531 -0.3530 -0.9360  3.1747
   15MOL   H54112329   1.353   7.202   7.650 -1.8537  0.9332  1.1864
   15MOL   H54212330   1.381   7.080   7.544 -0.5739 -2.6565  0.4614
   15MOL   H54312331   1.438   7.007   0.051 -0.1610  0.4003  0.7014
   15MOL   H54412332   1.314   6.902   0.010  2.9380 -0.2754 -0.8855
   15MOL   H54512333   1.307   7.135   0.223 -0.5342 -1.2096  2.6385
   15MOL   H54612334   1.166   7.076   0.170  0.2530  0.7649  1.5399
   15MOL   H54712335   1.287   6.965   0.248  0.6230  0.8060  0.6023
   15MOL   C54812336   0.655   0.425   7.687  0.0196  0.7830  0.1602
   15MOL   C54912337   0.771   0.536   7.687 -0.6214 -0.0320 -0.0196
   15MOL   C55012338   0.899   0.495   7.620  0.1538  0.1573 -0.1068
   15MOL   C55112339   0.902   0.499   7.464 -0.0486  0.6476 -0.0719
   15MOL   C55212340   1.040   0.467   7.415  0.1297 -1.0912 -0.0163
   15MOL   C55312341   1.078   0.322   7.441  0.8711  0.1611 -0.3203
   15MOL   C55412342   1.211   0.288   7.377 -0.1206  0.2802  0.1754
   15MOL   C55512343   1.268   0.141   7.393 -0.3465 -0.6068 -0.1435
   15MOL   C55612344   1.312   0.100   7.533  0.1288  0.2138  0.5189
   15MOL   C55712345   1.316   7.641   7.553 -0.3785 -0.2409  0.4482
   15MOL   C55812346   1.241   7.596   7.678  0.0791  0.2717 -0.0193
   15MOL   C55912347   1.306   7.641   0.126 -0.8768  0.6682  0.5267
   15MOL   C56012348   1.195   7.664   0.225 -0.0512 -0.4072  0.0902
   15MOL   C56112349   1.123   7.533   0.254  0.5586  0.3245  0.2605
   15MOL   H56212350   0.606   0.415   7.591  1.5447 -0.5698 -0.5015
   15MOL   H56312351   0.578   0.466   0.057 -0.8081 -0.7076  0.1512
   15MOL   H56412352   0.793   0.549   0.098  1.1635 -0.4109 -0.3240
   15MOL   H56512353   0.977   0.561   7.659 -1.1240  1.7749 -0.2348
   15MOL   H56612354   0.927   0.396   7.656 -1.1918 -0.4477 -0.7147
   15MOL   H56712355   0.872   0.592   7.416  0.9702  2.9610  3.5699
   15MOL   H56812356   0.834   0.423   7.426 -0.0349  0.7749 -0.3505
   15MOL   H56912357   1.031   0.478   7.307  0.7743 -0.2276  0.0120
   15MOL   H57012358   1.122   0.526   7.455 -1.6303  1.7517 -0.4661
   15MOL   H57112359   0.994   0.257   7.414 -1.0071  1.6627  1.7915
   15MOL   H57212360   1.089   0.299   7.547  0.8026  1.8132  0.0537
   15MOL   H57312361   1.199   0.296   7.269  2.1097 -0.6264 -0.1662
   15MOL   H57412362   1.296   0.349   7.408 -0.9349  0.4863  2.0281
   15MOL   H57512363   1.350   0.116   7.325  0.6074  0.5210  0.5599
   15MOL   H57612364   1.183   0.083   7.360 -1.2366  1.2628 -1.1977
   15MOL   H57712365   1.237   0.137   7.604  0.4314  0.8086  0.5266
   15MOL   H57812366   1.404   0.149   7.565 -1.2382  1.2883  2.9226
   15MOL   H57912367   1.270   7.592   7.468  0.1764 -0.9132  0.5387
   15MOL   H58012368   1.420   7.615   7.569  0.6085  2.5684 -1.0381
   15MOL   H58112369   1.249   7.487   7.681  2.4044  0.4750  2.2351
   15MOL   H58212370   1.134   7.615   7.671 -0.0760  0.1579  1.8357
   15MOL   H58312371   1.377   7.564   0.157 -2.4908 -1.3959 -0.7252
   15MOL   H58412372   1.363   0.038   0.124  1.7699 -0.9473 -0.6667
   15MOL   H58512373   1.233   0.017   0.315 -2.0664  1.6729 -0.1224
   15MOL   H58612374   1.130   0.050   0.192  1.1536  1.3125  1.8757
   15MOL   H58712375   1.157   7.496   0.351 -0.5719  0.5392  0.7460
   15MOL   H58812376   1.015   7.543   0.267  0.7582  1.8442  0.9250
   15MOL   H58912377   1.152   7.450   0.191 -1.1995 -0.4172  0.4239
   15MOL   C59012378   0.708   0.662   7.629 -0.3126  0.0688  0.0473
   15MOL   C59112379   0.803   0.788   7.632 -0.3508 -0.2815 -0.0598
   15MOL   C59212380   0.738   0.896   7.544 -0.4103 -0.4878 -0.7488
   15MOL   C59312381   0.762   0.874   7.395 -0.1911 -0.0847 -0.2995
   15MOL   C59412382   0.669   0.968   7.319 -0.1026 -0.0830  0.1199
   15MOL   C59512383   0.702   0.953   7.167  0.2717 -0.0438 -0.3722
   15MOL   C59612384   0.644   1.077   7.092  0.2629 -0.1096  0.3518
   15MOL   C59712385   0.663   1.083   6.940 -0.2603  0.3280 -0.0305
   15MOL   C59812386   0.556   1.162   6.860 -0.5899  0.1492 -0.5560
   15MOL   C59912387   0.561   1.312   6.880  0.4797 -0.5174  0.4477
   15MOL   C60012388   0.441   1.365   6.806  0.2488  0.2117  0.0832
   15MOL   C60112389   0.436   1.517   6.811 -0.0833  1.0731 -0.5226
   15MOL   C60212390   0.323   1.560   6.722  0.8024  0.3007 -0.3252
   15MOL   C60312391   0.346   1.544   6.568 -0.8061  0.0008  0.4957
   15MOL   H60412392   0.614   0.693   7.675  1.4003  1.0323  3.0133
   15MOL   H60512393   0.679   0.645   7.526 -0.1141 -0.3507  0.0591
   15MOL   H60612394   0.896   0.775   7.577 -1.5620 -1.3517 -1.9053
   15MOL   H60712395   0.787   0.992   7.565 -1.2773 -0.4622  1.2107
   15MOL   H60812396   0.635   0.909   7.575 -0.1647 -1.2958  0.4342
   15MOL   H60912397   0.747   0.768   7.374  2.0162 -0.6077  0.6660
   15MOL   H61012398   0.868   0.896   7.380  0.1951 -0.3213  1.9637
   15MOL   H61112399   0.674   1.070   7.357 -1.3156  0.4036 -0.9900
   15MOL   H61212400   0.569   0.928   7.334  0.6674 -2.4094 -0.7635
   15MOL   H61312401   0.661   0.871   7.109 -0.7310  0.6746 -0.6938
   15MOL   H61412402   0.811   0.949   7.156  0.7188  1.2579  3.0065
   15MOL   H61512403   0.538   1.076   7.119  0.7317  0.9334  2.3583
   15MOL   H61612404   0.668   1.173   7.137  2.8900 -0.3237 -0.5246
   15MOL   H61712405   0.758   1.128   6.912 -0.3270  0.7574  0.4452
   15MOL   H61812406   0.677   0.979   6.909  2.4380  0.4215  0.7731
   15MOL   H61912407   0.585   1.149   6.756  3.4207  1.9242  0.2337
   15MOL   H62012408   0.456   1.122   6.870  0.4177 -1.9363  1.6449
   15MOL   H62112409   0.552   1.347   6.982  0.4726  1.9433 -0.3770
   15MOL   H62212410   0.651   1.358   6.839  0.4681 -1.2909 -0.4870
   15MOL   H62312411   0.345   1.326   6.839  0.9498  0.2546  2.2307
   15MOL   H62412412   0.452   1.318   6.708 -0.8239  0.4659 -0.1650
   15MOL   H62512413   0.528   1.567   6.781 -0.7244  2.0404 -0.9011
   15MOL   H62612414   0.405   1.548   6.911 -0.5551  1.4516 -0.7837
   15MOL   H62712415   0.228   1.513   6.746  2.5774 -2.4333  1.6002
   15MOL   H62812416   0.293   1.664   6.734 -1.0287 -0.2128 -0.3488
   15MOL   H62912417   0.270   1.593   6.507  0.7390  1.2127 -0.4574
   15MOL   H63012418   0.337   1.439   6.540 -0.0243 -0.1692  0.8601
   15MOL   H63112419   0.443   1.577   6.532 -0.6506 -1.0754 -0.1025
   15MOL   C63212420   0.823   0.849   0.077  0.3291  0.2157 -0.1046
   15MOL   C63312421   0.954   0.926   0.100  0.3460  0.1312  0.1329
   15MOL   C63412422   0.936   1.026   0.219 -0.0679  0.8682  0.2496
   15MOL   C63512423   0.902   1.163   0.148  1.1175 -0.4914 -0.4374
   15MOL   C63612424   0.875   1.265   0.262 -0.0840 -0.0157 -0.0788
   15MOL   C63712425   0.844   1.416   0.227 -0.1023  0.9860  0.6489
   15MOL   C63812426   0.832   1.493   0.361  0.2082 -0.5226 -0.1347
   15MOL   C63912427   0.813   1.643   0.342 -0.6057  0.1978 -0.0573
   15MOL   C64012428   0.795   1.726   0.476 -0.0913  0.4539 -0.1516
   15MOL   C64112429   0.767   1.877   0.457 -0.4213 -0.4999  0.2575
   15MOL   C64212430   0.723   1.943   0.588 -0.2086  0.7074  0.8661
   15MOL   C64312431   0.682   2.091   0.566 -0.2654 -0.3491 -0.6661
   15MOL   C64412432   0.657   2.184   0.695  0.6151 -0.2190  0.1771
   15MOL   C64512433   0.604   2.322   0.656  0.5031 -0.4450  0.1013
   15MOL   H64612434   0.817   0.771   0.153 -2.6566  0.9133  0.4132
   15MOL   H64712435   0.737   0.910   0.102  1.6411  1.9871  0.1533
   15MOL   H64812436   0.971   0.990   0.013  2.7440  2.1274  1.9667
   15MOL   H64912437   0.851   0.997   0.281 -0.1111  0.5681  0.0521
   15MOL   H65012438   1.020   1.046   0.285  0.1717 -0.0708  0.2334
   15MOL   H65112439   0.813   1.148   0.087 -0.6549 -0.8686  2.1596
   15MOL   H65212440   0.982   1.189   0.079  1.4600 -1.5718 -0.4592
   15MOL   H65312441   0.972   1.277   0.311 -0.9435 -2.5521  2.4467
   15MOL   H65412442   0.821   1.221   0.346  1.1853 -2.2311 -0.3871
   15MOL   H65512443   0.924   1.454   0.163 -1.3156  1.7386 -0.4269
   15MOL   H65612444   0.749   1.407   0.175  0.7584 -0.1726 -0.7641
   15MOL   H65712445   0.754   1.441   0.417 -1.2565  2.0110  0.2350
   15MOL   H65812446   0.920   1.477   0.422  0.3816 -2.1538 -0.7702
   15MOL   H65912447   0.711   1.658   0.304 -0.1326 -0.4081 -1.5780
   15MOL   H66012448   0.878   1.700   0.275 -0.5739  0.4088  0.1511
   15MOL   H66112449   0.888   1.706   0.529 -0.4994  1.8530  1.1245
   15MOL   H66212450   0.719   1.678   0.538  1.2757  0.9969  2.0189
   15MOL   H66312451   0.855   1.921   0.410 -0.2296 -0.1072  0.9884
   15MOL   H66412452   0.686   1.887   0.384  0.9116  2.5127 -0.8989
   15MOL   H66512453   0.644   1.890   0.642  0.9087  0.9382  2.7747
   15MOL   H66612454   0.804   1.934   0.660  1.0112  0.1159 -0.5536
   15MOL   H66712455   0.588   2.094   0.511  0.6435  0.6491 -2.2104
   15MOL   H66812456   0.750   2.138   0.494  1.0408  0.1017  0.8320
   15MOL   H66912457   0.749   2.190   0.754  0.0659  0.7515  0.9650
   15MOL   H67012458   0.590   2.131   0.762 -0.2070  0.1351 -0.3507
   15MOL   H67112459   0.530   2.313   0.576 -1.8710  1.7727  1.9504
   15MOL   H67212460   0.555   2.381   0.734  0.1286 -1.6538  0.7866
   15MOL   H67312461   0.684   2.380   0.610 -0.6127  2.4556  1.7039
   15MOL   C67412462   1.072   0.832   0.129  0.3554  0.1011  0.0783
   15MOL   C67512463   1.209   0.884   0.085  0.9097 -0.1093  0.5475
   15MOL   C67612464   1.313   0.780   0.130 -0.2734  0.2933  0.0785
   15MOL   C67712465   1.324   0.767   0.282  0.1245 -0.6156 -0.1649
   15MOL   C67812466   1.432   0.658   0.321 -0.1293  0.1936 -0.1825
   15MOL   C67912467   1.453   0.654   0.468  0.1407  0.4068 -0.1015
   15MOL   C68012468   1.514   0.516   0.508  0.4551  0.3953 -0.3607
   15MOL   C68112469   1.537   0.515   0.661  0.2633 -0.2883 -0.1116
   15MOL   C68212470   1.413   0.526   0.750  0.0900  0.0016  0.1451
   15MOL   C68312471   1.427   0.474   0.897  0.3676 -0.2306  0.9067
   15MOL   C68412472   1.554   0.520   0.974 -0.4929  0.0136  0.2289
   15MOL   C68512473   1.547   0.523   1.127  0.6816  0.5558  0.0552
   15MOL   C68612474   1.682   0.540   1.197 -0.0228 -0.1950  0.8038
   15MOL   C68712475   1.666   0.513   1.346  0.6047 -0.7313  0.4284
   15MOL   H68812476   1.054   0.741   0.071 -0.7928  0.5251 -0.2550
   15MOL   H68912477   1.066   0.817   0.236 -5.7161 -2.1783 -0.3977
   15MOL   H69012478   1.214   0.978   0.139  1.9482  0.1293  0.0372
   15MOL   H69112479   1.284   0.694   0.069 -1.4808 -0.6833  1.9907
   15MOL   H69212480   1.410   0.805   0.087  0.7637 -1.8755  1.0439
   15MOL   H69312481   1.350   0.861   0.331 -3.5421  0.7034 -0.5714
   15MOL   H69412482   1.230   0.729   0.323  1.6761 -2.4169  1.8074
   15MOL   H69512483   1.392   0.566   0.281  0.4849 -0.6523  1.1022
   15MOL   H69612484   1.529   0.688   0.280 -0.2025  0.9511  0.1736
   15MOL   H69712485   1.519   0.734   0.501 -1.1227  0.7181  1.7391
   15MOL   H69812486   1.353   0.674   0.505 -0.2649 -0.6721 -0.5914
   15MOL   H69912487   1.451   0.432   0.480 -0.6510  0.6438  1.3247
   15MOL   H70012488   1.609   0.504   0.457 -0.2254 -1.8057 -1.1847
   15MOL   H70112489   1.585   0.419   0.680 -2.1170 -1.6842 -0.9086
   15MOL   H70212490   1.609   0.590   0.689 -0.1674  0.0773  0.0219
   15MOL   H70312491   1.379   0.630   0.746 -0.0684 -0.0732 -0.6303
   15MOL   H70412492   1.335   0.475   0.693  0.1843  1.1390 -1.0234
   15MOL   H70512493   1.424   0.365   0.902  1.0460 -0.2385  1.1504
   15MOL   H70612494   1.345   0.515   0.956  0.0591 -0.5601  0.7071
   15MOL   H70712495   1.587   0.618   0.940  0.0251 -0.1718  0.1920
   15MOL   H70812496   1.636   0.455   0.944 -1.3866 -1.5032  0.9651
   15MOL   H70912497   1.501   0.431   1.163  2.0803  0.1439  0.8356
   15MOL   H71012498   1.475   0.598   1.161  0.1061 -0.0268  0.1286
   15MOL   H71112499   1.741   0.461   1.149 -1.4840 -0.3018 -0.8825
   15MOL   H71212500   1.737   0.631   1.175 -1.3272  0.9705  2.2273
   15MOL   H71312501   1.605   0.590   1.392  0.5013 -2.0661  2.5772
   15MOL   H71412502   1.639   0.408   1.361 -0.2079 -0.7024 -0.7181
   15MOL   H71512503   1.755   0.514   1.408  0.7567 -1.8798  0.2396
   15MOL   C71612504   1.225   0.910   7.628 -0.4178  0.1934  0.0601
   15MOL   C71712505   1.287   1.041   7.593 -0.4255 -0.3723  0.0074
   15MOL   C71812506   1.423   1.070   7.661 -0.1425  0.6458  0.6847
   15MOL   C71912507   1.545   1.003   7.594  0.2069 -0.5510 -0.2411
   15MOL   C72012508   1.685   1.031   7.664  0.2062 -0.0044 -0.7233
   15MOL   C72112509   1.683   0.982   0.112  0.1499 -0.0601  0.1908
   15MOL   C72212510   1.821   1.005   0.184  0.0076 -0.0287 -0.6195
   15MOL   C72312511   1.842   1.150   0.223  0.4864  0.0796 -0.0402
   15MOL   C72412512   1.959   1.162   0.323  0.7217  0.5150  0.1615
   15MOL   C72512513   2.004   1.308   0.341  0.3161 -0.9782 -0.4101
   15MOL   C72612514   2.130   1.312   0.428  0.2519 -1.0120 -0.6418
   15MOL   C72712515   2.159   1.456   0.473 -0.0749  0.2739  0.7370
   15MOL   C72812516   2.296   1.474   0.549  0.1985  0.2772 -0.0961
   15MOL   C72912517   2.423   1.455   0.462 -0.1752  0.3096  0.2725
   15MOL   H73012518   1.293   0.837   7.584 -0.3752 -0.2071  0.7652
   15MOL   H73112519   1.133   0.895   7.571  1.5522  0.6887 -3.3735
   15MOL   H73212520   1.224   1.119   7.638  2.4677  1.0483  1.7158
   15MOL   H73312521   1.409   1.046   0.071 -0.0732 -4.1101 -0.2804
   15MOL   H73412522   1.431   1.178   7.655 -1.9715  0.7650  0.0196
   15MOL   H73512523   1.543   0.895   7.609 -0.3003 -0.4401  0.5369
   15MOL   H73612524   1.558   1.024   7.488 -1.6993 -0.0939 -0.4037
   15MOL   H73712525   1.768   0.978   7.618  1.5379 -0.0472  1.6227
   15MOL   H73812526   1.697   1.139   7.656  1.9892 -0.3083 -2.3903
   15MOL   H73912527   1.613   1.042   0.170 -1.5819 -0.9628 -0.9023
   15MOL   H74012528   1.659   0.877   0.129 -0.2176 -0.0494 -0.2403
   15MOL   H74112529   1.834   0.937   0.269 -1.7312 -0.8280 -0.9528
   15MOL   H74212530   1.902   0.963   0.124  1.9725 -0.1847  2.0450
   15MOL   H74312531   1.752   1.174   0.280 -0.7755 -1.5080 -1.3130
   15MOL   H74412532   1.836   1.213   0.134  2.5361 -0.5821 -0.6795
   15MOL   H74512533   1.927   1.126   0.421 -1.4034  1.1515 -0.2574
   15MOL   H74612534   2.038   1.099   0.282 -0.0929 -0.4743  0.0664
   15MOL   H74712535   2.024   1.352   0.244  0.3794  0.0582  0.0648
   15MOL   H74812536   1.921   1.366   0.383  1.0261 -1.4161  1.6555
   15MOL   H74912537   2.122   1.242   0.512  0.5243 -1.2538 -0.8175
   15MOL   H75012538   2.220   1.279   0.376  1.8289  0.2407  1.2030
   15MOL   H75112539   2.145   1.522   0.387 -0.2687 -2.1004 -1.1140
   15MOL   H75212540   2.082   1.469   0.549  0.4074 -0.5593  1.3804
   15MOL   H75312541   2.298   1.395   0.625  1.4661  1.0008  0.6506
   15MOL   H75412542   2.304   1.561   0.614  0.5062  0.1350  0.0604
   15MOL   H75512543   2.504   1.451   0.536  0.1726  0.9373 -0.0679
   15MOL   H75612544   2.424   1.535   0.388  0.3690  0.7943  0.7917
   15MOL   H75712545   2.427   1.358   0.413 -1.4581  0.6759 -0.5764
   15MOL   C75812546   1.279   1.058   7.437 -0.0966 -0.2464 -0.2896
   15MOL   C75912547   1.144   1.048   7.357  0.8510  0.2599  0.0144
   15MOL   C76012548   1.067   1.178   7.326  0.8524  0.0171 -0.2579
   15MOL   C76112549   1.008   1.247   7.452 -0.8293  0.8067  0.1028
   15MOL   C76212550   0.964   1.392   7.419  0.3865  0.0643 -0.1016
   15MOL   C76312551   0.941   1.465   7.545  0.1217  0.1799  0.1169
   15MOL   C76412552   0.878   1.605   7.528 -0.1793  0.0260 -0.6744
   15MOL   C76512553   0.852   1.687   7.657  0.2007 -0.5708 -0.5797
   15MOL   C76612554   0.799   1.827   7.636  0.2300  0.2683  0.0724
   15MOL   C76712555   0.776   1.908   0.065  0.3013  0.1249  0.0033
   15MOL   C76812556   0.711   2.041   0.030 -0.0131  1.1179 -0.9476
   15MOL   C76912557   0.644   2.120   0.153 -0.3510  0.1559 -1.2474
   15MOL   C77012558   0.546   2.232   0.117 -0.2788  0.0696  0.4769
   15MOL   C77112559   0.462   2.271   0.244  0.1507 -0.1094  0.6469
   15MOL   H77212560   1.335   1.147   7.408 -0.5451 -0.2279 -1.1188
   15MOL   H77312561   1.343   0.977   7.401 -0.0461  0.5459 -2.0240
   15MOL   H77412562   1.070   0.990   7.411  0.7608 -0.8912 -1.3140
   15MOL   H77512563   1.144   1.252   7.301  2.6552 -1.0945  1.7654
   15MOL   H77612564   0.980   1.161   7.264 -0.8966 -0.4724  2.2856
   15MOL   H77712565   0.933   1.191   7.509  0.2890  0.1278  0.9181
   15MOL   H77812566   1.090   1.246   7.524 -1.2943 -2.6820  0.6777
   15MOL   H77912567   0.871   1.393   7.362 -0.2503 -1.9032  0.8667
   15MOL   H78012568   1.032   1.450   7.357  0.1657  2.6528  1.9756
   15MOL   H78112569   1.043   1.476   7.582  0.2335 -0.5610  0.0382
   15MOL   H78212570   0.888   1.405   7.620 -1.0017 -2.0738 -2.3957
   15MOL   H78312571   0.933   1.665   7.456  1.6469 -0.3585  0.3676
   15MOL   H78412572   0.777   1.588   7.491  0.0132  0.5720 -1.4690
   15MOL   H78512573   0.942   1.699   0.022 -1.2469 -0.8831  1.6929
   15MOL   H78612574   0.788   1.624   0.024  0.7922  0.9017  1.5715
   15MOL   H78712575   0.704   1.818   7.582 -1.8450  2.8669  3.1076
   15MOL   H78812576   0.867   1.879   7.568  0.8358 -0.7957 -0.1369
   15MOL   H78912577   0.874   1.930   0.107  0.1370  0.3025  0.2973
   15MOL   H79012578   0.714   1.850   0.134 -0.4359 -1.4708 -1.9496
   15MOL   H79112579   0.786   2.106   7.681  0.6538  1.0803  0.0863
   15MOL   H79212580   0.635   2.017   7.652 -0.9465 -0.6146  0.5246
   15MOL   H79312581   0.595   2.052   0.223 -0.2418 -0.8643 -2.1583
   15MOL   H79412582   0.718   2.141   0.230 -2.0181 -1.4821  0.8977
   15MOL   H79512583   0.593   2.317   0.068  2.6583 -1.9989 -0.4735
   15MOL   H79612584   0.479   2.196   0.039  1.0707 -1.7823  0.1261
   15MOL   H79712585   0.402   2.184   0.273  1.1413 -1.7467 -2.0870
   15MOL   H79812586   0.531   2.303   0.322  3.0989  1.7223 -2.5654
   15MOL   H79912587   0.387   2.347   0.225  0.1177 -0.4260 -0.5666
   15MOL   C80012588   1.165   0.973   7.217 -0.2479  0.3917 -0.3283
   15MOL   C80112589   1.167   0.821   7.231 -0.4257  0.2291  0.5037
   15MOL   C80212590   1.251   0.737   7.128  0.3352 -0.2921 -0.1671
   15MOL   C80312591   1.268   0.582   7.150  0.1283 -0.7897 -0.2917
   15MOL   C80412592   1.360   0.528   7.037 -0.2597 -0.0675 -0.3077
   15MOL   C80512593   1.408   0.381   7.060  0.1017  0.7816  0.5131
   15MOL   C80612594   1.508   0.333   6.948  0.2073  0.2828 -0.5344
   15MOL   C80712595   1.649   0.392   6.948 -0.4951 -0.1655  0.5931
   15MOL   C80812596   1.742   0.320   6.844 -0.0731 -0.0742  0.3170
   15MOL   C80912597   1.868   0.405   6.822  0.2957  0.4105 -0.3603
   15MOL   C81012598   1.986   0.339   6.754 -0.6912 -0.2440  0.1138
   15MOL   C81112599   2.106   0.308   6.850  0.5962  0.1102  0.5980
   15MOL   C81212600   2.230   0.262   6.773  0.3092 -0.2001 -0.5954
   15MOL   C81312601   2.344   0.223   6.859  0.4958  0.1092 -0.6288
   15MOL   H81412602   1.260   1.003   7.175 -0.5386  0.4611 -0.9416
   15MOL   H81512603   1.084   0.999   7.149 -1.0539 -0.5038  0.2507
   15MOL   H81612604   1.062   0.792   7.233 -0.0965 -1.0087  0.0854
   15MOL   H81712605   1.351   0.781   7.127  0.2811 -0.1762 -0.7807
   15MOL   H81812606   1.218   0.759   7.026 -0.2575 -3.8534 -0.7926
   15MOL   H81912607   1.170   0.534   7.147  0.4939 -1.7571  2.1299
   15MOL   H82012608   1.299   0.568   7.253 -0.2050 -0.7614 -0.1869
   15MOL   H82112609   1.305   0.535   6.943 -1.5277 -0.4195  0.3895
   15MOL   H82212610   1.449   0.591   7.029  0.4041 -0.7282  1.6456
   15MOL   H82312611   1.322   0.315   7.061 -0.3618  1.3904  1.5079
   15MOL   H82412612   1.456   0.377   7.157 -0.3030 -0.7063  0.6540
   15MOL   H82512613   1.512   0.224   6.948  0.0634  0.2538 -2.3276
   15MOL   H82612614   1.463   0.351   6.850 -0.2595 -0.6350 -0.4988
   15MOL   H82712615   1.636   0.486   6.893  0.0405  0.5220  1.6188
   15MOL   H82812616   1.699   0.405   7.044 -0.0762 -2.3961  0.7004
   15MOL   H82912617   1.770   0.219   6.871  0.8851  0.2629  0.6055
   15MOL   H83012618   1.696   0.305   6.746  1.9072  2.3404 -1.0422
   15MOL   H83112619   1.912   0.437   6.916  1.1023 -0.8689 -0.3019
   15MOL   H83212620   1.845   0.492   6.760 -0.7635 -0.0012 -0.5500
   15MOL   H83312621   1.958   0.250   6.698 -0.0423  0.3010 -1.1188
   15MOL   H83412622   2.025   0.403   6.673  0.8668  0.5358  1.4487
   15MOL   H83512623   2.073   0.230   6.919  0.4964  0.6286  1.1409
   15MOL   H83612624   2.136   0.394   6.910  1.2308  0.6934 -0.5318
   15MOL   H83712625   2.207   0.182   6.703  1.9673 -2.3622  1.2364
   15MOL   H83812626   2.258   0.346   6.710  1.0162 -2.1984 -3.0552
   15MOL   H83912627   2.423   0.172   6.804 -0.4008 -0.7049 -1.1941
   15MOL   H84012628   2.381   0.309   6.914  1.5630 -1.7374  1.6166
   15MOL   H84112629   2.320   0.152   6.938 -0.3288 -0.7453 -1.6278
   15MOL   H84212630   1.209   0.794   7.328  1.8220  1.8001  0.0060
   16MOL     C112631   5.389   7.590   3.350 -0.6200  0.3382 -0.2983
   16MOL     C212632   5.372   7.675   3.477  0.8645 -0.0361  0.3700
   16MOL     C312633   5.501   0.024   3.544  0.2616 -0.0940  0.0736
   16MOL     C412634   5.601   7.609   3.574  0.1861  0.5089 -0.6205
   16MOL     C512635   5.710   7.652   3.668  0.1405 -0.1716  0.1225
   16MOL     C612636   5.799   7.532   3.705 -0.2091  0.0617 -0.8496
   16MOL     C712637   5.913   7.565   3.807  0.3453  0.2341  0.8206
   16MOL     C812638   5.869   7.618   3.947 -0.0470 -0.7858 -0.4818
   16MOL     C912639   5.996   7.663   4.029 -0.4238  0.2834 -0.5797
   16MOL    C1012640   5.949   0.011   4.175 -0.4983 -0.2533 -0.5591
   16MOL    C1112641   6.056   0.084   4.263  0.5250  0.1464 -0.1449
   16MOL    C1212642   6.029   0.095   4.419  0.5183 -0.3383  0.4434
   16MOL    C1312643   6.123   0.184   4.495  1.7728  0.4199 -0.3357
   16MOL    C1412644   6.083   0.330   4.482 -0.1217  0.3014 -0.2371
   16MOL    H1512645   5.445   7.498   3.367 -1.7806 -0.0387  1.6970
   16MOL    H1612646   5.441   7.649   3.275  2.1540 -0.9110  0.5606
   16MOL    H1712647   5.317   7.607   3.541 -1.7727  2.2482  0.6184
   16MOL    H1812648   5.556   0.095   3.482  1.0496  0.8528  1.8198
   16MOL    H1912649   5.472   0.067   3.640 -2.4870  2.5903 -1.8685
   16MOL    H2012650   5.643   7.567   3.482 -0.8700  0.5904 -1.1437
   16MOL    H2112651   5.539   7.532   3.619  1.5827 -0.7770 -0.8259
   16MOL    H2212652   5.665   0.004   3.755 -0.6663  0.9650 -0.9083
   16MOL    H2312653   5.767   0.035   3.619  2.6462 -1.1865  1.2686
   16MOL    H2412654   5.840   7.502   3.608 -0.4383 -1.2035 -0.5667
   16MOL    H2512655   5.727   7.456   3.736  1.0565 -1.8484 -2.4707
   16MOL    H2612656   5.974   7.475   3.821  0.3619 -0.0294 -0.8921
   16MOL    H2712657   5.974   7.632   3.748  2.7762  0.1558  3.1565
   16MOL    H2812658   5.811   7.548   4.006  0.4474  0.4338  1.4939
   16MOL    H2912659   5.802   0.007   3.934 -0.3978 -0.6800  1.8893
   16MOL    H3012660   6.075   7.588   4.033  0.6575  1.4638  1.0388
   16MOL    H3112661   6.035   0.056   3.978 -1.3362 -0.1183 -1.9879
   16MOL    H3212662   5.853   0.064   4.173 -0.1457  0.3750 -1.1641
   16MOL    H3312663   5.938   7.617   4.235 -0.1844 -0.9120 -1.4658
   16MOL    H3412664   6.148   0.029   4.247 -0.3482 -1.5836  0.6970
   16MOL    H3512665   6.081   0.183   4.224  0.8603  0.1297  0.0300
   16MOL    H3612666   6.045   7.690   4.458 -2.8506 -0.4137  1.8542
   16MOL    H3712667   5.924   0.115   4.439  0.5767 -0.7465  1.1627
   16MOL    H3812668   6.116   0.148   4.597  3.4683 -1.0603 -0.7262
   16MOL    H3912669   6.229   0.176   4.471  2.1742  3.0164  0.3956
   16MOL    H4012670   5.996   0.340   4.547 -0.4800 -2.2564 -0.2387
   16MOL    H4112671   6.155   0.406   4.510 -0.1123  0.1630  0.1192
   16MOL    H4212672   6.057   0.350   4.378 -3.0723 -0.4620  0.2927
   16MOL    H4312673   5.292   7.553   3.317 -0.7701 -1.2723  1.8218
   16MOL    C4412674   5.276   0.103   3.449  0.2670 -0.0221  0.1143
   16MOL    C4512675   5.216   0.183   3.571 -0.4047 -0.4129 -0.2137
   16MOL    C4612676   5.149   0.088   3.667 -1.1258  1.0676 -0.3214
   16MOL    C4712677   5.092   0.140   3.797  0.0061 -0.1732 -0.6506
   16MOL    C4812678   5.016   0.020   3.864 -0.2446 -0.4800 -0.2766
   16MOL    C4912679   4.977   0.047   4.009 -0.0805 -0.0761 -0.2104
   16MOL    C5012680   4.856   0.133   4.030 -0.0709  0.1800 -0.5129
   16MOL    C5112681   4.783   0.149   4.173 -0.3025 -0.1470  0.6655
   16MOL    C5212682   4.653   0.239   4.160  0.3231  0.6328  0.5405
   16MOL    C5312683   4.600   0.289   4.293  0.4284 -0.5616  0.0917
   16MOL    C5412684   4.462   0.359   4.280  1.0793  0.1090 -0.4729
   16MOL    C5512685   4.405   0.402   4.409  0.3465 -1.0529  0.2112
   16MOL    C5612686   4.301   0.516   4.405 -0.4226  0.1299  0.0330
   16MOL    C5712687   4.220   0.543   4.529  0.0234  0.5217  0.1703
   16MOL    H5812688   5.329   0.167   3.379 -0.4663 -1.5107 -1.8299
   16MOL    H5912689   5.193   0.064   3.392 -0.4355  0.3660  0.8561
   16MOL    H6012690   5.300   0.229   3.625  0.1953 -2.1147  0.3251
   16MOL    H6112691   5.077   0.032   3.607 -0.0583  1.1496 -1.7139
   16MOL    H6212692   5.223   0.013   3.695 -0.3511  1.9811  0.1009
   16MOL    H6312693   5.027   0.226   3.779  1.3018  0.8228 -0.6877
   16MOL    H6412694   5.171   0.168   3.868  0.1048  0.6658 -1.0883
   16MOL    H6512695   5.091   7.637   3.860 -0.7221 -0.9170 -0.9685
   16MOL    H6612696   4.930   7.673   3.810 -0.5865 -0.4602  0.2531
   16MOL    H6712697   4.954   7.644   4.050  0.8161 -0.6552 -1.1007
   16MOL    H6812698   5.063   0.087   4.062  0.8403 -1.8138 -0.3593
   16MOL    H6912699   4.891   0.232   4.001 -0.9192  0.4896 -0.4964
   16MOL    H7012700   4.781   0.114   3.953  0.0253 -0.9463 -0.3434
   16MOL    H7112701   4.848   0.201   4.243 -0.0219  1.5588 -0.8152
   16MOL    H7212702   4.755   0.056   4.223 -0.4980 -0.3131  0.2563
   16MOL    H7312703   4.672   0.327   4.098  2.7976  1.1858  2.0091
   16MOL    H7412704   4.575   0.189   4.104  0.3696 -1.6612  2.4550
   16MOL    H7512705   4.676   0.349   4.343  0.3405 -1.2234  1.0236
   16MOL    H7612706   4.578   0.202   4.355  0.0034  0.2412  1.0727
   16MOL    H7712707   4.386   0.294   4.236  1.6468 -0.4097 -0.6976
   16MOL    H7812708   4.480   0.438   4.207 -0.8144 -1.0944 -2.2795
   16MOL    H7912709   4.368   0.319   4.470  0.0689 -2.4978 -1.8608
   16MOL    H8012710   4.484   0.445   4.470 -0.8262  2.2961 -0.5498
   16MOL    H8112711   4.229   0.484   4.330  1.5081  0.1309 -1.8771
   16MOL    H8212712   4.350   0.606   4.367 -0.5936  0.3521  0.3412
   16MOL    H8312713   4.164   0.450   4.540  1.2599 -1.0033 -4.9638
   16MOL    H8412714   4.156   0.632   4.528 -0.1718  0.3797 -1.6422
   16MOL    H8512715   4.286   0.560   4.614 -0.2492  1.1460  0.2658
   16MOL    C8612716   5.124   0.296   3.526 -0.0412  0.4175 -0.5626
   16MOL    C8712717   5.182   0.396   3.420 -0.1458  0.5184 -1.3632
   16MOL    C8812718   5.313   0.464   3.451  0.8965  0.1883 -0.1847
   16MOL    C8912719   5.307   0.573   3.561  0.3378 -0.5171 -0.5551
   16MOL    C9012720   5.441   0.607   3.614  0.0656 -0.0051  0.1882
   16MOL    C9112721   5.442   0.678   3.748 -0.6256  0.1216 -0.9095
   16MOL    C9212722   5.581   0.733   3.798  0.0272  0.3212  0.5228
   16MOL    C9312723   5.583   0.789   3.939  0.5848 -0.0359  0.8039
   16MOL    C9412724   5.729   0.813   3.980 -0.1152  0.5339  0.1423
   16MOL    C9512725   5.753   0.909   4.098  0.3149  0.7526  0.1889
   16MOL    C9612726   5.724   1.056   4.075 -0.5392 -0.2690  0.1946
   16MOL    C9712727   5.828   1.137   4.152  0.4426  0.4399  0.4534
   16MOL    C9812728   5.804   1.287   4.148  0.1219 -0.1795 -0.4782
   16MOL    C9912729   5.909   1.357   4.228 -0.5692  0.2463 -0.6477
   16MOL   H10012730   5.043   0.244   3.474 -0.5585  0.0195  0.6315
   16MOL   H10112731   5.084   0.354   3.609 -0.9218  0.0373 -0.7125
   16MOL   H10212732   5.196   0.332   3.333  0.2205  0.9639 -1.6375
   16MOL   H10312733   5.381   0.386   3.486 -1.0187 -2.2385 -1.6730
   16MOL   H10412734   5.350   0.525   3.368  0.3332  2.3933  1.1430
   16MOL   H10512735   5.243   0.658   3.539  0.7107  0.0158  0.3952
   16MOL   H10612736   5.249   0.527   3.640 -0.9642  0.3786 -0.9688
   16MOL   H10712737   5.492   0.663   3.536 -2.8219  0.0073 -1.7647
   16MOL   H10812738   5.506   0.519   3.618  1.8890  1.1186 -3.0079
   16MOL   H10912739   5.407   0.607   3.823  0.1526  2.1476  1.4246
   16MOL   H11012740   5.360   0.750   3.755  1.4687  2.3603  1.6697
   16MOL   H11112741   5.655   0.652   3.799 -0.9492 -0.5777  0.7531
   16MOL   H11212742   5.596   0.820   3.734  1.3193  0.0825  0.4821
   16MOL   H11312743   5.564   0.714   4.016 -0.0811 -1.3484 -0.6083
   16MOL   H11412744   5.515   0.869   3.966 -0.2357 -0.0735 -1.0660
   16MOL   H11512745   5.791   0.725   3.996  0.0775  0.4943 -0.8060
   16MOL   H11612746   5.775   0.854   3.890 -1.1889  0.8715 -0.2569
   16MOL   H11712747   5.856   0.895   4.129  0.0899 -0.8571  0.2442
   16MOL   H11812748   5.687   0.866   4.173 -0.3289  1.5205  0.0694
   16MOL   H11912749   5.717   1.080   3.969 -1.2581 -2.2346 -0.2408
   16MOL   H12012750   5.626   1.086   4.112 -0.6058  0.2056 -0.3643
   16MOL   H12112751   5.832   1.101   4.254  1.2871 -1.8303 -0.3610
   16MOL   H12212752   5.926   1.126   4.105 -0.8797  1.2089 -2.6548
   16MOL   H12312753   5.704   1.309   4.187  0.3246  0.4505 -0.3041
   16MOL   H12412754   5.797   1.313   4.043 -0.0746  0.3288 -0.3414
   16MOL   H12512755   5.896   1.465   4.232 -1.2102  0.1670 -0.5333
   16MOL   H12612756   5.922   1.340   4.335  0.6076 -0.8939 -0.9526
   16MOL   H12712757   6.004   1.335   4.179 -1.4791 -1.6229 -1.5844
   16MOL   C12812758   5.068   0.499   3.391  0.2213 -0.2820  0.4528
   16MOL   C12912759   4.952   0.448   3.301 -0.5839  0.1165 -0.6579
   16MOL   C13012760   4.814   0.496   3.359  0.4478  0.4816  0.6281
   16MOL   C13112761   4.694   0.446   3.283 -0.1063 -0.0069 -0.2514
   16MOL   C13212762   4.557   0.471   3.360  0.1463 -0.3970  0.3559
   16MOL   C13312763   4.442   0.400   3.292 -0.5323  0.3830 -0.0518
   16MOL   C13412764   4.319   0.474   3.325 -0.8949  0.7081  0.3823
   16MOL   C13512765   4.198   0.400   3.267  0.6690  0.1604  0.5329
   16MOL   C13612766   4.058   0.458   3.306 -0.3859  0.5903 -0.5230
   16MOL   C13712767   4.022   0.597   3.250  0.7877 -0.0610  0.1021
   16MOL   C13812768   3.878   0.644   3.288 -0.3984 -0.6970 -0.6266
   16MOL   C13912769   3.845   0.782   3.229  0.2220 -0.0076  0.0969
   16MOL   C14012770   3.733   0.853   3.308  0.3803 -0.2327 -0.6352
   16MOL   C14112771   3.727   1.008   3.288  0.1178  0.1065  0.4710
   16MOL   H14212772   5.038   0.549   3.483  0.1849  4.1349 -1.8321
   16MOL   H14312773   5.122   0.570   3.329 -0.9421  1.4884  1.4136
   16MOL   H14412774   4.935   0.343   3.324  1.8091 -0.8591 -2.9885
   16MOL   H14512775   4.803   0.461   3.461  0.5557  0.6312  0.6920
   16MOL   H14612776   4.810   0.605   3.355  1.7014  0.5937  1.9598
   16MOL   H14712777   4.703   0.500   3.189  2.5044  2.1466  1.1883
   16MOL   H14812778   4.708   0.339   3.263  0.1420 -0.3956  1.8861
   16MOL   H14912779   4.576   0.433   3.460  1.8042  0.8564  0.5365
   16MOL   H15012780   4.545   0.579   3.360  2.3876 -0.1262 -0.5272
   16MOL   H15112781   4.462   0.384   3.185  0.3081  0.8665  0.0277
   16MOL   H15212782   4.435   0.301   3.337 -0.5431  0.8401  0.9542
   16MOL   H15312783   4.299   0.504   3.428  0.8753  4.7084 -0.3210
   16MOL   H15412784   4.336   0.573   3.283  0.3361  0.7493  0.9545
   16MOL   H15512785   4.214   0.389   3.160  1.3023  0.8295  0.5543
   16MOL   H15612786   4.197   0.300   3.309  0.5673  0.3746  1.0529
   16MOL   H15712787   3.994   0.378   3.268 -0.0550 -0.7866  1.7474
   16MOL   H15812788   4.039   0.454   3.413 -1.3909 -0.9649 -0.7407
   16MOL   H15912789   4.032   0.598   3.142 -0.3520  1.2595 -0.0056
   16MOL   H16012790   4.094   0.675   3.279  0.5792  0.6539 -1.2882
   16MOL   H16112791   3.799   0.571   3.270 -0.6577 -0.5687 -0.0199
   16MOL   H16212792   3.895   0.634   3.396  0.4927 -0.5950 -0.7477
   16MOL   H16312793   3.932   0.847   3.218  0.5475 -0.5289 -0.4647
   16MOL   H16412794   3.819   0.762   3.125 -3.0461 -2.6589  1.3416
   16MOL   H16512795   3.634   0.808   3.302 -0.5896  1.3396  2.2489
   16MOL   H16612796   3.754   0.825   3.411  1.2221  0.4554 -0.6120
   16MOL   H16712797   3.815   1.035   3.346  0.5263 -3.3751  1.6126
   16MOL   H16812798   3.735   1.039   3.184  0.9079  0.9476  0.7826
   16MOL   H16912799   3.639   1.057   3.330  1.5838  2.2336  1.1153
   16MOL   C17012800   4.970   0.471   3.149 -0.0297 -0.8513 -0.2192
   16MOL   C17112801   4.968   0.344   3.058 -1.1353  0.4880  0.0806
   16MOL   C17212802   4.986   0.384   2.915  0.3526  0.0542  0.6684
   16MOL   C17312803   4.850   0.450   2.862  0.4795 -0.0555 -0.0029
   16MOL   C17412804   4.859   0.484   2.717  0.0478 -0.7380  0.3280
   16MOL   C17512805   4.731   0.470   2.629  0.5591 -0.1060 -0.2972
   16MOL   C17612806   4.747   0.482   2.472  0.3762  0.1472  0.5638
   16MOL   C17712807   4.624   0.437   2.389 -0.2539 -0.5543  0.6730
   16MOL   C17812808   4.644   0.438   2.240  0.3940 -0.2321  0.0924
   16MOL   C17912809   4.536   0.365   2.158  0.3736 -0.0069  0.0399
   16MOL   C18012810   4.565   0.321   2.015 -0.0383  0.1416  0.3394
   16MOL   C18112811   4.447   0.280   1.933  0.5364  0.6757  0.1224
   16MOL   C18212812   4.501   0.243   1.787  0.6147 -0.5646  0.1766
   16MOL   C18312813   4.383   0.209   1.701  0.1948 -0.5593 -0.1995
   16MOL   H18412814   5.071   0.506   3.130 -0.5918  1.4973  0.8472
   16MOL   H18512815   4.917   0.562   3.119 -0.9406 -0.3367  2.7880
   16MOL   H18612816   4.870   0.297   3.061 -0.1454 -1.7230 -1.1292
   16MOL   H18712817   5.063   0.461   2.906  0.7688 -0.4972 -0.5287
   16MOL   H18812818   5.005   0.293   2.858 -3.4558  0.5968 -1.6570
   16MOL   H18912819   4.768   0.382   2.882 -2.7962  3.8711  0.6057
   16MOL   H19012820   4.813   0.540   2.912 -1.0155  0.1342 -1.4290
   16MOL   H19112821   4.913   0.579   2.707 -0.3645 -0.4582  0.7730
   16MOL   H19212822   4.932   0.412   2.679  0.1619 -1.6023  2.1623
   16MOL   H19312823   4.657   0.543   2.661  0.8677  0.6789 -1.3661
   16MOL   H19412824   4.691   0.370   2.651  2.2489 -0.4220  1.4451
   16MOL   H19512825   4.829   0.416   2.446  1.2670  0.5283  2.3341
   16MOL   H19612826   4.790   0.580   2.451 -0.7757  0.3790 -0.8098
   16MOL   H19712827   4.552   0.509   2.426  0.6372  1.3257 -1.0895
   16MOL   H19812828   4.589   0.340   2.422 -2.5373  0.1469  0.3956
   16MOL   H19912829   4.741   0.397   2.211 -0.1161 -1.3402 -0.0928
   16MOL   H20012830   4.649   0.542   2.209 -0.3167 -0.1896  0.1304
   16MOL   H20112831   4.451   0.433   2.152 -1.1646 -2.0176 -1.2201
   16MOL   H20212832   4.493   0.278   2.207 -1.0793  0.7932  0.2264
   16MOL   H20312833   4.646   0.248   2.023 -0.8297 -0.7965 -0.2290
   16MOL   H20412834   4.619   0.402   1.966 -0.3424  1.5262  2.2276
   16MOL   H20512835   4.396   0.199   1.984 -1.0851  0.2898 -2.0293
   16MOL   H20612836   4.370   0.356   1.920 -0.2877 -0.2780 -0.6856
   16MOL   H20712837   4.549   0.329   1.740 -1.1387 -0.3412 -1.2624
   16MOL   H20812838   4.570   0.158   1.786 -1.0023 -1.9313  1.1681
   16MOL   H20912839   4.328   0.125   1.745  0.6624 -1.4261 -1.2580
   16MOL   H21012840   4.402   0.179   1.598  2.3653  1.0306 -0.2765
   16MOL   H21112841   4.318   0.296   1.685  0.5040 -0.2681  0.1133
   16MOL   C21212842   5.074   0.238   3.107 -0.4665 -0.1335 -0.1157
   16MOL   C21312843   5.078   0.103   3.028  0.3218 -0.5004  0.2052
   16MOL   C21412844   5.223   0.070   2.990 -0.7860  0.6027 -0.2149
   16MOL   C21512845   5.249   7.651   2.885 -0.0636  0.2029  0.1557
   16MOL   C21612846   5.397   7.648   2.840  0.6188 -0.0618 -0.3293
   16MOL   C21712847   5.409   7.542   2.731  0.2069  0.5346  0.2699
   16MOL   C21812848   5.525   7.563   2.637 -0.3164 -0.1410  0.5357
   16MOL   C21912849   5.547   7.474   2.523  0.4405  0.4690 -0.0489
   16MOL   C22012850   5.433   7.454   2.431 -0.0400 -0.4979  0.3624
   16MOL   C22112851   5.469   7.369   2.309 -0.4455 -0.1058  0.1536
   16MOL   C22212852   5.367   7.367   2.196  0.6973 -0.0340 -0.3148
   16MOL   C22312853   5.220   7.333   2.244 -0.4313 -0.8513  0.5734
   16MOL   C22412854   5.116   7.408   2.166  0.1171  0.1499 -0.1290
   16MOL   C22512855   5.132   7.380   2.015 -0.1136  0.6133  0.0689
   16MOL   H22612856   5.066   0.221   3.214 -2.7385  1.5779  0.0487
   16MOL   H22712857   5.163   0.300   3.110 -0.2140 -0.5533  1.7952
   16MOL   H22812858   5.036   0.117   2.929 -0.1755  2.5113  0.7731
   16MOL   H22912859   5.267   0.162   2.953  0.3841  0.1762  0.0927
   16MOL   H23012860   5.276   0.041   3.081  1.8208  1.0644 -1.5333
   16MOL   H23112861   5.186   7.677   2.800 -1.1374 -2.1753  0.1872
   16MOL   H23212862   5.225   7.558   2.936  0.0417  2.0660  3.8090
   16MOL   H23312863   5.468   7.628   2.920 -0.1548 -0.9112  0.1562
   16MOL   H23412864   5.429   0.050   2.803 -0.7089 -0.0719 -1.5460
   16MOL   H23512865   5.318   7.544   2.672 -1.3171  2.6360  2.5682
   16MOL   H23612866   5.420   7.443   2.775  2.1043  0.9759  0.8499
   16MOL   H23712867   5.501   7.659   2.590 -0.5025  0.1094  1.1412
   16MOL   H23812868   5.625   7.568   2.680 -0.2015 -4.6087  1.0707
   16MOL   H23912869   5.636   7.506   2.469  0.8276  1.0722  0.9344
   16MOL   H24012870   5.574   7.377   2.564 -1.9028 -0.3371 -0.3040
   16MOL   H24112871   5.406   7.548   2.381 -0.7214 -0.3601  0.9785
   16MOL   H24212872   5.340   7.421   2.477  0.2590 -2.7533 -0.6081
   16MOL   H24312873   5.563   7.400   2.263 -1.6698  3.2348 -0.1613
   16MOL   H24412874   5.489   7.266   2.341  3.0501 -0.4740 -2.7472
   16MOL   H24512875   5.396   7.300   2.116 -1.0791  0.1885 -1.1582
   16MOL   H24612876   5.367   7.465   2.147 -2.8317  0.7476  1.0811
   16MOL   H24712877   5.202   7.346   2.351 -0.2791 -1.0744  0.6258
   16MOL   H24812878   5.208   7.226   2.232  1.3900 -0.9730 -0.2291
   16MOL   H24912879   5.115   7.515   2.186  0.4721  0.1123  0.0782
   16MOL   H25012880   5.022   7.364   2.200  1.5016 -1.3014  1.9626
   16MOL   H25112881   5.216   7.439   1.977  0.3182 -0.3903 -0.5513
   16MOL   H25212882   5.146   7.277   1.984 -0.2393  0.7568 -0.4769
   16MOL   H25312883   5.038   7.408   1.968 -0.7206  3.0576  2.5832
   16MOL   C25412884   5.002   7.680   3.089  0.3742 -0.5622  0.0873
   16MOL   C25512885   4.854   0.010   3.125  0.0612  0.1555 -0.8233
   16MOL   C25612886   4.777   0.040   2.995  1.0768 -0.1053 -0.1041
   16MOL   C25712887   4.623   0.062   3.012 -0.1280 -0.3145 -0.1323
   16MOL   C25812888   4.558   0.132   2.887  0.1358 -0.7045 -0.6747
   16MOL   C25912889   4.573   0.060   2.760  0.1513 -0.5716 -0.2244
   16MOL   C26012890   4.472   0.110   2.646 -0.0466  0.1074 -0.0150
   16MOL   C26112891   4.484   0.034   2.511 -0.0896 -0.3163 -0.4222
   16MOL   C26212892   4.342   0.002   2.446 -0.6632  0.3980 -0.4616
   16MOL   C26312893   4.280   0.130   2.385  0.3300 -0.0159 -0.1170
   16MOL   C26412894   4.154   0.118   2.295 -0.5133 -1.0341  0.1910
   16MOL   C26512895   4.092   0.253   2.270 -0.7200 -0.4160  0.3931
   16MOL   C26612896   4.185   0.349   2.191  0.1599  0.3413 -0.2455
   16MOL   C26712897   4.125   0.482   2.170  0.3492 -0.4455  0.6916
   16MOL   H26812898   5.053   7.667   3.185  1.2549 -3.0334 -0.6782
   16MOL   H26912899   5.021   7.587   3.035  2.0709  0.8252 -1.7733
   16MOL   H27012900   4.837   0.090   3.197 -0.4919 -1.0555  0.4213
   16MOL   H27112901   4.799   7.652   2.929  1.8310 -0.7057  0.8987
   16MOL   H27212902   4.808   0.132   2.945 -0.6135  0.0606 -0.8921
   16MOL   H27312903   4.617   0.120   3.104  0.0795  2.0329 -1.5782
   16MOL   H27412904   4.565   7.672   3.047  1.2136 -1.0540  0.3218
   16MOL   H27512905   4.598   0.233   2.879 -3.2469  0.6323 -1.8858
   16MOL   H27612906   4.452   0.156   2.899  0.9074  2.2694  0.7641
   16MOL   H27712907   4.573   7.647   2.763 -0.5827 -0.5834 -0.4543
   16MOL   H27812908   4.669   0.102   2.728 -0.0469 -0.7057 -1.0076
   16MOL   H27912909   4.369   0.122   2.680 -0.4300  1.4522 -1.6044
   16MOL   H28012910   4.501   0.214   2.637  0.6080 -0.1609 -1.0214
   16MOL   H28112911   4.531   7.633   2.533 -1.4167 -0.6548  1.0430
   16MOL   H28212912   4.551   0.088   2.444  0.6820 -3.4080 -2.2504
   16MOL   H28312913   4.355   7.621   2.369 -0.9464 -1.3538  1.1842
   16MOL   H28412914   4.281   7.649   2.522  1.1493 -0.3630  0.5391
   16MOL   H28512915   4.355   0.177   2.321 -0.9109  0.4551 -1.2322
   16MOL   H28612916   4.254   0.199   2.465  0.2519 -0.6310  0.3871
   16MOL   H28712917   4.079   0.060   2.349 -1.6520  1.0847  0.9242
   16MOL   H28812918   4.185   0.071   2.202 -1.4998  0.4797 -0.9230
   16MOL   H28912919   4.009   0.233   2.202  0.7359  0.9379 -1.8990
   16MOL   H29012920   4.051   0.296   2.361 -0.1475  1.2286 -0.1078
   16MOL   H29112921   4.253   0.373   2.272 -0.8440  1.1931  0.3471
   16MOL   H29212922   4.233   0.314   2.099  1.7237 -1.0594  1.0861
   16MOL   H29312923   4.185   0.529   2.092  0.0361 -0.4594  0.4465
   16MOL   H29412924   4.121   0.537   2.264 -3.1521  0.8703 -0.1790
   16MOL   H29512925   4.024   0.479   2.130 -0.2696 -1.3605  2.2492
   16MOL   C29612926   4.789   7.581   3.193 -0.7087 -0.7195 -0.4603
   16MOL   C29712927   4.844   7.540   3.337  0.2280 -0.8005 -0.2491
   16MOL   C29812928   4.838   7.658   3.443 -0.6475 -0.5322 -0.6021
   16MOL   C29912929   4.693   0.021   3.467 -0.8283  0.3249  0.0441
   16MOL   C30012930   4.692   0.117   3.578  0.3898 -0.5088  0.0533
   16MOL   C30112931   4.560   0.176   3.610  1.2588  0.1652  0.1029
   16MOL   C30212932   4.571   0.287   3.717 -0.4628 -0.0963 -0.0926
   16MOL   C30312933   4.430   0.308   3.769  0.7563 -1.1273 -0.2839
   16MOL   C30412934   4.407   0.400   3.887  0.7218 -0.1822 -0.2770
   16MOL   C30512935   4.261   0.425   3.925 -0.3146 -0.0129 -0.5061
   16MOL   C30612936   4.174   0.497   3.829 -0.1405  0.2806 -0.3361
   16MOL   C30712937   4.032   0.526   3.888  0.5588  0.8606 -0.4821
   16MOL   C30812938   3.953   0.634   3.813 -0.5497  1.0504  0.3540
   16MOL   C30912939   3.934   0.604   3.661  0.4163  0.1179  0.2949
   16MOL   H31012940   4.810   7.490   3.136 -1.1968 -0.8319 -0.4616
   16MOL   H31112941   4.681   7.587   3.201 -0.6793 -0.1375 -0.5393
   16MOL   H31212942   4.953   7.533   3.334  0.4174  0.7984  1.5051
   16MOL   H31312943   4.882   0.054   3.403 -2.3509  0.4368 -0.3421
   16MOL   H31412944   4.890   7.630   3.534  0.3582 -1.2701 -1.3852
   16MOL   H31512945   4.622   7.639   3.496 -0.8922  1.2196  2.3479
   16MOL   H31612946   4.654   0.064   3.374 -1.8412 -1.2779 -0.2946
   16MOL   H31712947   4.712   0.065   3.672  1.2303  1.0143  0.7311
   16MOL   H31812948   4.768   0.190   3.550  0.7309  0.0064  2.2125
   16MOL   H31912949   4.501   0.096   3.655  1.5909  1.4482  2.9318
   16MOL   H32012950   4.514   0.192   3.513  1.4110 -4.0857 -0.7611
   16MOL   H32112951   4.624   0.251   3.805  3.3402  0.4848 -2.0453
   16MOL   H32212952   4.623   0.377   3.684 -1.1974 -0.7089 -3.0531
   16MOL   H32312953   4.383   0.214   3.796 -0.1825 -0.6278 -0.1855
   16MOL   H32412954   4.369   0.354   3.691  0.8279  0.9410  0.8204
   16MOL   H32512955   4.453   0.354   3.975 -1.0904  0.4696  1.0573
   16MOL   H32612956   4.459   0.495   3.882 -1.2023  0.9694  1.0264
   16MOL   H32712957   4.249   0.459   4.028 -2.0654  0.7520 -0.9394
   16MOL   H32812958   4.209   0.329   3.932  1.2095 -0.6328  3.2234
   16MOL   H32912959   4.150   0.431   3.746  1.9581 -2.7332  1.3663
   16MOL   H33012960   4.212   0.594   3.797 -2.0776  1.3344  0.4651
   16MOL   H33112961   4.057   0.559   3.989  3.0321 -0.7901 -0.5127
   16MOL   H33212962   3.967   0.439   3.892 -0.5582  1.7752  2.8325
   16MOL   H33312963   4.000   0.732   3.807  2.0265 -0.2603 -2.2128
   16MOL   H33412964   3.857   0.649   3.862  0.1248  0.1541  1.9749
   16MOL   H33512965   3.878   0.511   3.653 -0.5743  0.2725  4.5217
   16MOL   H33612966   3.868   0.676   3.613  2.6310  2.0030 -0.0350
   16MOL   H33712967   4.024   0.609   3.599  0.3475 -2.1534 -0.0082
   16MOL   C33812968   4.798   7.394   3.371 -0.5945 -0.8962  0.1888
   16MOL   C33912969   4.859   7.323   3.492 -0.6271 -0.5639  0.9508
   16MOL   C34012970   5.009   7.322   3.489 -0.3167  0.2358  0.4761
   16MOL   C34112971   5.075   7.220   3.583  0.0846  0.3986  0.1865
   16MOL   C34212972   5.225   7.236   3.589  0.9236 -0.6558 -0.5598
   16MOL   C34312973   5.289   7.137   3.685 -0.0142 -0.1557 -0.0290
   16MOL   C34412974   5.445   7.166   3.688 -0.0034 -0.1801 -0.1392
   16MOL   C34512975   5.525   7.093   3.803  0.2317  0.6418  0.0489
   16MOL   C34612976   5.681   7.114   3.812 -0.2866 -0.0922  0.1969
   16MOL   C34712977   5.744   7.045   3.941  0.9487  0.3283 -0.1241
   16MOL   C34812978   5.717   7.128   4.068  0.4175 -0.2565 -0.2042
   16MOL   C34912979   5.759   7.068   4.202  0.5176 -0.5638  0.1674
   16MOL   C35012980   5.678   6.948   4.268  0.0216  0.0634 -0.6408
   16MOL   C35112981   5.745   6.932   4.412  0.1868  0.6317  0.1666
   16MOL   H35212982   4.689   7.389   3.367 -0.6343 -0.5777  0.7585
   16MOL   H35312983   4.826   7.331   3.287  2.1462  1.1455 -0.5371
   16MOL   H35412984   4.837   7.216   3.489 -1.3422 -0.3824 -2.4144
   16MOL   H35512985   5.029   7.297   3.385 -1.1679 -1.1293  0.6257
   16MOL   H35612986   5.045   7.419   3.523  0.9466 -0.4581  1.1987
   16MOL   H35712987   5.053   7.117   3.553 -2.1626  1.3257 -1.5201
   16MOL   H35812988   5.036   7.236   3.684 -0.4667  2.9207 -0.4117
   16MOL   H35912989   5.238   7.336   3.631 -2.7029 -0.2932 -0.2118
   16MOL   H36012990   5.277   7.214   3.496  1.0344 -1.3103 -0.3521
   16MOL   H36112991   5.250   7.141   3.786  1.8186 -0.1271  0.7082
   16MOL   H36212992   5.272   7.034   3.653  0.2844 -0.1387 -0.2487
   16MOL   H36312993   5.494   7.154   3.591  0.2840 -0.0484 -0.0109
   16MOL   H36412994   5.450   7.269   3.724  0.3241 -0.0834 -0.4670
   16MOL   H36512995   5.488   7.131   3.899  2.9262  1.0631  0.9704
   16MOL   H36612996   5.504   6.987   3.811 -0.5725  0.8256  0.4294
   16MOL   H36712997   5.720   7.067   3.722 -0.3572  0.9224 -0.3771
   16MOL   H36812998   5.696   7.222   3.815 -0.9058 -0.0441  2.3957
   16MOL   H36912999   5.683   6.956   3.957 -0.5355  1.5986  1.5345
   16MOL   H37013000   5.848   7.024   3.917  1.2786  0.0149  1.5244
   16MOL   H37113001   5.619   7.172   4.082  0.7028  0.1528  0.5050
   16MOL   H37213002   5.786   7.212   4.059 -0.3941  0.5813  1.1716
   16MOL   H37313003   5.758   7.149   4.275  2.2834 -1.4906  1.2716
   16MOL   H37413004   5.863   7.035   4.206  1.2570  1.6724  0.1453
   16MOL   H37513005   5.571   6.965   4.277  0.5400  2.3308  1.9897
   16MOL   H37613006   5.696   6.854   4.217 -0.6802 -0.7249  0.5370
   16MOL   H37713007   5.739   7.026   4.468  0.8647  1.7110 -1.5354
   16MOL   H37813008   5.689   6.859   4.471 -1.2681 -0.5290 -2.5864
   16MOL   H37913009   5.844   6.888   4.400 -0.6896 -1.6440  1.0797
   16MOL   C38013010   4.802   7.384   3.622  0.0895  0.8856  0.6845
   16MOL   C38113011   4.730   7.291   3.718  0.0788  0.3430  0.0988
   16MOL   C38213012   4.693   7.363   3.851  0.6455  0.2673  0.1894
   16MOL   C38313013   4.599   7.487   3.841 -0.0909 -0.0824  0.6340
   16MOL   C38413014   4.515   7.508   3.967 -0.3747 -0.2392  0.8611
   16MOL   C38513015   4.432   7.631   3.962  0.1218 -0.3338 -0.3617
   16MOL   C38613016   4.336   7.641   4.090 -0.5695  1.1763  0.2413
   16MOL   C38713017   4.233   0.047   4.085 -0.2671 -0.5629  0.3482
   16MOL   C38813018   4.147   0.052   4.212  0.2494 -0.5703 -0.0051
   16MOL   C38913019   4.039   0.163   4.199  0.1706  0.6464 -0.4399
   16MOL   C39013020   3.966   0.187   4.337  0.4604  0.1059  0.4535
   16MOL   C39113021   3.877   0.308   4.341  0.4422 -0.0749 -0.1549
   16MOL   C39213022   3.822   0.334   4.483 -0.3544 -0.6963 -0.1748
   16MOL   C39313023   3.716   0.234   4.515  0.1800  0.4109 -0.3778
   16MOL   H39413024   4.729   7.460   3.595 -0.6432  0.2469  0.8555
   16MOL   H39513025   4.874   7.439   3.684 -0.1545  0.5870  1.2360
   16MOL   H39613026   4.803   7.215   3.745 -0.0200 -0.0381 -0.7072
   16MOL   H39713027   4.783   7.395   3.904  0.3944 -1.5549  1.7716
   16MOL   H39813028   4.655   7.289   3.922  0.2527  0.1367 -0.1569
   16MOL   H39913029   4.530   7.471   3.757  0.4279 -2.0249  0.5489
   16MOL   H40013030   4.653   7.580   3.826 -0.5762 -0.0429 -1.0143
   16MOL   H40113031   4.578   7.523   4.055 -0.4554 -0.4574  0.9582
   16MOL   H40213032   4.454   7.426   4.004 -3.1412  1.3362 -0.0557
   16MOL   H40313033   4.377   7.637   3.868  1.2470  1.9121 -0.8953
   16MOL   H40413034   4.496   0.023   3.959 -0.3960  0.0521 -0.3743
   16MOL   H40513035   4.289   7.544   4.108  0.9245  0.2062 -0.9795
   16MOL   H40613036   4.404   7.655   4.175 -0.1702  1.9542 -0.2013
   16MOL   H40713037   4.275   0.147   4.081 -2.9604  0.6716  1.4866
   16MOL   H40813038   4.172   0.033   3.996 -0.2162  0.7035  0.1081
   16MOL   H40913039   4.098   7.652   4.224 -0.0401 -0.7420 -2.4362
   16MOL   H41013040   4.212   0.073   4.298  0.1373  2.1939 -0.5518
   16MOL   H41113041   3.959   0.147   4.127  0.5434 -0.3393 -0.6327
   16MOL   H41213042   4.090   0.257   4.174  0.4153  2.0999  4.9886
   16MOL   H41313043   3.921   0.094   4.371  1.2402 -0.2224  0.6044
   16MOL   H41413044   4.044   0.198   4.412 -0.3699  1.7873  1.1078
   16MOL   H41513045   3.803   0.300   4.261 -1.0348  0.9004  1.0972
   16MOL   H41613046   3.937   0.395   4.316 -1.2566  1.3351  0.5918
   16MOL   H41713047   3.904   0.327   4.554  2.0175  2.2766 -2.5052
   16MOL   H41813048   3.780   0.434   4.488 -0.0230 -0.5442 -0.4686
   16MOL   H41913049   3.667   0.274   4.605 -1.3862  0.7281 -1.3491
   16MOL   H42013050   3.750   0.134   4.542  2.4991  1.4752  0.7949
   16MOL   H42113051   3.632   0.235   4.446 -0.2027  1.6288  0.0814
   16MOL   C42213052   4.607   7.225   3.649  0.1485 -0.2801 -0.0424
   16MOL   C42313053   4.605   7.070   3.635 -0.2961  0.0489 -0.3833
   16MOL   C42413054   4.591   7.009   3.779 -0.1295  0.2084 -0.2304
   16MOL   C42513055   4.636   6.863   3.786  0.0883  0.2913 -0.5394
   16MOL   C42613056   4.786   6.839   3.834  0.2665 -0.2520 -0.4941
   16MOL   C42713057   4.801   6.702   3.879  0.6422 -0.0442  0.0215
   16MOL   C42813058   4.778   6.596   3.773 -0.3084  0.6081 -0.0583
   16MOL   C42913059   4.809   6.451   3.821  0.4786 -0.4696  0.6245
   16MOL   C43013060   4.773   6.349   3.702 -0.5439  0.2603 -0.0923
   16MOL   C43113061   4.840   6.203   3.722 -0.5639 -0.2292  0.1428
   16MOL   C43213062   4.988   6.188   3.679  0.4513 -0.2143  0.2430
   16MOL   C43313063   5.052   6.051   3.728 -0.6565  0.3452 -0.2796
   16MOL   C43413064   5.182   6.021   3.648 -0.4277  0.2633  0.5583
   16MOL   C43513065   5.280   6.140   3.655 -0.5702  0.8041  0.1444
   16MOL   H43613066   4.601   7.279   3.555  3.4864 -0.7873 -0.5988
   16MOL   H43713067   4.510   7.246   3.694 -0.5596 -0.4800 -1.4728
   16MOL   H43813068   4.698   7.030   3.594 -1.2243 -0.2645 -2.2327
   16MOL   H43913069   4.485   7.014   3.803 -0.1718 -0.2240 -0.3301
   16MOL   H44013070   4.645   7.067   3.854  0.7882  2.5134 -2.5955
   16MOL   H44113071   4.574   6.819   3.864  1.1327 -0.3033 -0.0372
   16MOL   H44213072   4.604   6.808   3.697 -1.4081 -1.6722  1.1669
   16MOL   H44313073   4.789   6.907   3.919 -0.8119  1.7838 -2.0320
   16MOL   H44413074   4.865   6.868   3.763 -0.0483  1.5400 -0.1338
   16MOL   H44513075   4.721   6.687   3.952  0.1404 -0.5653 -0.6280
   16MOL   H44613076   4.901   6.698   3.921  1.0267 -0.1015 -0.8924
   16MOL   H44713077   4.673   6.610   3.746 -0.0296  0.1442 -1.4096
   16MOL   H44813078   4.836   6.599   3.680  1.0940 -1.4825  0.7029
   16MOL   H44913079   4.914   6.430   3.843  0.7773 -1.1375 -1.3987
   16MOL   H45013080   4.745   6.421   3.904  0.6751 -1.2146  0.5066
   16MOL   H45113081   4.666   6.334   3.710 -0.6015 -0.5173 -2.1667
   16MOL   H45213082   4.809   6.379   3.604  0.7960 -0.7651  0.0647
   16MOL   H45313083   4.843   6.172   3.826 -0.5572 -1.1715 -0.1278
   16MOL   H45413084   4.790   6.125   3.664 -1.3163 -0.4191  1.0339
   16MOL   H45513085   5.008   6.186   3.572  0.2220 -1.7687  0.2246
   16MOL   H45613086   5.035   6.278   3.719  1.6050 -0.4038 -0.6699
   16MOL   H45713087   4.987   5.963   3.717  2.4144 -2.1399  0.6732
   16MOL   H45813088   5.076   6.066   3.833 -0.1976 -0.7693 -0.2176
   16MOL   H45913089   5.225   5.938   3.705  2.3940  1.3874  0.1092
   16MOL   H46013090   5.162   5.991   3.545  0.3422 -3.5511  1.4410
   16MOL   H46113091   5.372   6.098   3.616 -0.5872  0.7299  0.1872
   16MOL   H46213092   5.297   6.184   3.754 -1.1004  1.3305  0.0093
   16MOL   H46313093   5.241   6.212   3.583  1.2418  1.7429  0.0778
   16MOL   C46413094   4.489   7.012   3.538  0.4923  0.1431  0.4364
   16MOL   C46513095   4.505   7.055   3.389 -0.9111 -1.0250  0.5236
   16MOL   C46613096   4.650   7.007   3.338 -0.5857 -0.4632 -0.1898
   16MOL   C46713097   4.661   6.856   3.347 -0.8589  0.4815  0.5131
   16MOL   C46813098   4.793   6.806   3.287 -0.2337 -0.0929 -0.7381
   16MOL   C46913099   4.812   6.832   3.141 -0.2900 -0.4509  0.9912
   16MOL   C47013100   4.925   6.743   3.079  0.0627  0.7782 -0.0536
   16MOL   C47113101   4.952   6.776   2.932 -0.8068  0.1239 -0.5079
   16MOL   C47213102   5.075   6.716   2.858  0.3683  0.0868 -0.6171
   16MOL   C47313103   5.102   6.570   2.891  0.2045  0.2732 -0.4732
   16MOL   C47413104   5.197   6.494   2.798 -0.1691 -0.3803  0.1371
   16MOL   C47513105   5.219   6.354   2.832 -0.1365 -0.4720 -0.4252
   16MOL   C47613106   5.300   6.271   2.731  0.1101  0.0519 -0.2430
   16MOL   C47713107   5.312   6.128   2.785  0.3408 -0.1410 -0.0060
   16MOL   H47813108   4.389   7.033   3.578  0.8892 -0.8968  2.0243
   16MOL   H47913109   4.489   6.904   3.548 -0.4530  0.1565  0.6858
   16MOL   H48013110   4.515   7.163   3.382 -1.0494 -1.0128  0.5199
   16MOL   H48113111   4.668   7.020   3.231  1.9893  0.9492  0.3649
   16MOL   H48213112   4.734   7.056   3.387  0.3445 -1.5527 -0.6673
   16MOL   H48313113   4.573   6.807   3.304 -0.1688 -0.6668  0.3938
   16MOL   H48413114   4.652   6.815   3.448 -0.0883 -1.1495 -0.0670
   16MOL   H48513115   4.792   6.698   3.294  0.5706 -0.1037 -0.6986
   16MOL   H48613116   4.883   6.850   3.331 -0.8767  1.2735 -0.7623
   16MOL   H48713117   4.720   6.804   3.090  0.1808 -0.6574  0.2349
   16MOL   H48813118   4.832   6.938   3.124  0.7310 -0.7631  0.1358
   16MOL   H48913119   5.012   6.757   3.144 -0.0895 -0.1440  0.3645
   16MOL   H49013120   4.905   6.636   3.093 -0.1014  1.0996  2.4828
   16MOL   H49113121   4.860   6.759   2.876 -0.1181  2.0235 -2.2528
   16MOL   H49213122   4.964   6.884   2.930 -1.1454  0.2100  1.2356
   16MOL   H49313123   5.045   6.717   2.753 -1.9503 -1.0752 -0.0128
   16MOL   H49413124   5.166   6.773   2.877  0.1298  0.2231  0.1238
   16MOL   H49513125   5.142   6.576   2.992 -0.1401 -0.4190 -0.2923
   16MOL   H49613126   5.010   6.513   2.885  1.5087 -2.0799  0.8808
   16MOL   H49713127   5.152   6.485   2.700 -0.9710  0.9952  0.3634
   16MOL   H49813128   5.289   6.549   2.780  0.5836 -1.7630 -0.3618
   16MOL   H49913129   5.125   6.311   2.865 -0.4875 -0.7312 -1.7384
   16MOL   H50013130   5.275   6.358   2.925  1.4663  0.6144 -1.4047
   16MOL   H50113131   5.240   6.267   2.640  0.0892  3.1347 -0.4119
   16MOL   H50213132   5.394   6.319   2.705  0.2065 -0.1174 -0.2113
   16MOL   H50313133   5.221   6.104   2.840  1.2852 -1.2683  1.0709
   16MOL   H50413134   5.319   6.068   2.694  0.7539  0.8705 -0.6528
   16MOL   H50513135   5.392   6.133   2.858 -0.2677  1.4694  0.5786
   16MOL   C50613136   4.385   7.018   3.297 -0.2619 -0.0308  0.2124
   16MOL   C50713137   4.284   7.136   3.274  0.3611  0.8349  0.6001
   16MOL   C50813138   4.191   7.077   3.162  0.5089 -0.4413  0.0258
   16MOL   C50913139   4.096   7.171   3.095 -0.1677 -0.6740  0.2607
   16MOL   C51013140   4.020   7.103   2.976  0.5383 -0.0227 -0.2679
   16MOL   C51113141   3.929   7.194   2.915  0.1800 -0.3252 -0.0630
   16MOL   C51213142   3.838   7.142   2.806 -0.0027 -0.1914 -0.0548
   16MOL   C51313143   3.769   7.246   2.724  0.5230  0.1961 -0.2791
   16MOL   C51413144   3.727   7.190   2.588 -0.1555 -0.1389 -0.4287
   16MOL   C51513145   3.635   7.283   2.512 -0.4692 -0.1446  0.6587
   16MOL   C51613146   3.588   7.215   2.389 -0.0056 -0.1444 -0.0002
   16MOL   C51713147   3.499   7.312   2.314 -0.2633  0.4979  0.4978
   16MOL   C51813148   3.479   7.263   2.164 -0.3271 -0.4277 -0.2900
   16MOL   C51913149   3.444   7.120   2.152  0.0932  0.7177  0.1651
   16MOL   H52013150   4.332   6.933   3.341 -1.8282  1.1477  0.6715
   16MOL   H52113151   4.431   6.988   3.203 -0.1785 -1.9576  0.8423
   16MOL   H52213152   4.349   7.215   3.235  1.7137  0.0370  1.1786
   16MOL   H52313153   4.254   7.030   3.086  0.0560 -1.5282  0.3066
   16MOL   H52413154   4.131   7.002   3.215  0.0345  0.7181  1.1417
   16MOL   H52513155   4.018   7.219   3.154 -0.7763  0.7934 -1.6882
   16MOL   H52613156   4.152   7.255   3.053  1.3433 -3.0605 -2.7394
   16MOL   H52713157   3.968   7.016   3.017  0.6403  0.1731  0.2802
   16MOL   H52813158   4.076   7.061   2.891  0.5393 -1.4927  0.4356
   16MOL   H52913159   3.987   7.277   2.875 -2.7406  2.2713  0.8553
   16MOL   H53013160   3.865   7.246   2.987  0.9982  1.1682 -0.3975
   16MOL   H53113161   3.880   7.061   2.746  1.6105  1.2618 -0.9483
   16MOL   H53213162   3.766   7.076   2.855  2.6292 -3.8729 -0.9246
   16MOL   H53313163   3.835   7.333   2.719 -0.7721  1.3770  2.2246
   16MOL   H53413164   3.693   7.299   2.781  1.3429  0.3513  0.6792
   16MOL   H53513165   3.676   7.096   2.608  0.0769 -0.3326 -0.7499
   16MOL   H53613166   3.816   7.167   2.529 -1.3704  0.7797 -2.6989
   16MOL   H53713167   3.548   7.313   2.571 -0.3868 -0.4968  0.9628
   16MOL   H53813168   3.690   7.375   2.492 -0.8479  0.2522  1.4544
   16MOL   H53913169   3.680   7.210   2.330 -0.9013 -1.1463 -1.3483
   16MOL   H54013170   3.548   7.114   2.401  0.3000 -0.3010 -0.2646
   16MOL   H54113171   3.538   7.414   2.317  1.6217 -0.1265 -1.2518
   16MOL   H54213172   3.407   7.310   2.372 -0.4775 -2.8760  0.1283
   16MOL   H54313173   3.578   7.287   2.125 -0.0351 -1.4091 -0.1524
   16MOL   H54413174   3.410   7.335   2.119 -0.4002 -0.0261  0.4554
   16MOL   H54513175   3.348   7.114   2.203 -0.5665  0.6340 -1.0800
   16MOL   H54613176   3.441   7.088   2.048  2.3174  0.6142  0.0989
   16MOL   H54713177   3.507   7.051   2.208 -1.3891 -2.8319 -2.3886
   16MOL   C54813178   4.194   7.186   3.396  0.0071  0.9115 -0.4233
   16MOL   C54913179   4.256   7.278   3.502  0.1762  0.0516  0.0441
   16MOL   C55013180   4.328   7.404   3.446 -0.0888 -0.1447 -0.4708
   16MOL   C55113181   4.243   7.481   3.345  0.2596  0.2170 -0.2730
   16MOL   C55213182   4.314   7.602   3.281 -0.0354 -0.0132  0.2871
   16MOL   C55313183   4.226   7.690   3.185 -0.4086  0.3314 -0.0808
   16MOL   C55413184   4.205   7.636   3.047 -0.5461 -0.4451  0.4122
   16MOL   C55513185   4.106   0.024   2.970  0.1119  0.1574  0.5050
   16MOL   C55613186   4.097   7.673   2.822  0.1962 -0.4789 -0.0028
   16MOL   C55713187   3.999   0.060   2.740 -0.2031 -0.4359 -0.3795
   16MOL   C55813188   3.927   7.671   2.640  0.0313 -0.0188 -0.4286
   16MOL   C55913189   3.836   0.062   2.553 -0.0159 -0.3436 -0.2393
   16MOL   C56013190   3.752   7.677   2.454  0.1750  0.7424 -0.4723
   16MOL   C56113191   3.676   0.083   2.364 -0.7116  0.4024  0.5452
   16MOL   H56213192   4.108   7.236   3.351  1.3014  2.3540 -1.3573
   16MOL   H56313193   4.168   7.093   3.447  1.5830  0.6202 -0.1197
   16MOL   H56413194   4.340   7.233   3.556  0.6034  1.1868  0.3313
   16MOL   H56513195   4.355   7.474   3.525 -2.2439 -0.6452  0.7564
   16MOL   H56613196   4.420   7.378   3.393  0.5262  0.3012  0.3464
   16MOL   H56713197   4.161   7.524   3.402  1.3422  0.4781  1.1056
   16MOL   H56813198   4.210   7.423   3.259 -3.6461  2.6822 -0.5913
   16MOL   H56913199   4.341   7.672   3.361  0.8918  0.9048 -0.8163
   16MOL   H57013200   4.411   7.569   3.244 -0.3128 -1.1277  0.5416
   16MOL   H57113201   4.276   0.091   3.179  1.6520 -0.7059  0.1109
   16MOL   H57213202   4.136   0.015   3.244 -0.4849  0.8742 -0.3834
   16MOL   H57313203   4.304   7.631   3.001 -0.4700  0.3943  0.4821
   16MOL   H57413204   4.168   7.534   3.046  1.0264 -1.0281  0.0951
   16MOL   H57513205   4.139   0.128   2.971  0.3816  0.0831 -0.1165
   16MOL   H57613206   4.008   0.024   3.018 -1.5627 -0.4920 -2.7820
   16MOL   H57713207   4.061   7.570   2.827  1.1680 -0.9231 -1.9069
   16MOL   H57813208   4.191   7.653   2.771  0.7813  0.7066  0.6099
   16MOL   H57913209   3.930   0.111   2.807  2.1449  0.3445  1.4817
   16MOL   H58013210   4.048   0.144   2.692 -0.6608  1.1584  1.8765
   16MOL   H58113211   3.884   7.586   2.693  2.7856 -0.5110  1.1468
   16MOL   H58213212   4.005   7.619   2.584  0.7262  1.4231 -0.8315
   16MOL   H58313213   3.784   0.133   2.618  2.2147  0.5638  0.6088
   16MOL   H58413214   3.892   0.131   2.490  0.5978 -1.3454 -0.8164
   16MOL   H58513215   3.819   7.611   2.398  0.2255  0.1671  0.2615
   16MOL   H58613216   3.677   7.614   2.500  1.1147 -2.2530 -2.8997
   16MOL   H58713217   3.602   0.040   2.297  2.8266 -1.9856 -2.0091
   16MOL   H58813218   3.638   0.163   2.427 -1.9956  1.4949 -1.5721
   16MOL   H58913219   3.742   0.134   2.294  0.1527  1.4557  2.0808
   16MOL   C59013220   4.148   7.318   3.600  0.7239  0.0257 -0.3395
   16MOL   C59113221   4.128   7.206   3.710 -0.7148 -0.3525  0.5255
   16MOL   C59213222   4.217   7.222   3.836 -0.2560 -0.8456 -0.3103
   16MOL   C59313223   4.236   7.090   3.913 -0.0679  0.5697 -0.2924
   16MOL   C59413224   4.337   7.096   4.039 -0.5062 -0.8265  0.5251
   16MOL   C59513225   4.360   6.970   4.114 -0.0759 -0.3344  0.2803
   16MOL   C59613226   4.245   6.928   4.208  0.0276  0.1344 -0.7610
   16MOL   C59713227   4.271   6.795   4.278  0.4299 -0.3325  0.1364
   16MOL   C59813228   4.190   6.789   4.413 -0.5852  0.0304 -0.0108
   16MOL   C59913229   4.037   6.769   4.408  0.0612 -0.2031  0.6810
   16MOL   C60013230   3.979   6.720   4.543 -0.4517 -0.0709  0.1508
   16MOL   C60113231   3.833   6.684   4.520  0.3278  0.5539  0.6260
   16MOL   C60213232   3.750   6.637   4.645  0.3352 -0.5259 -0.0935
   16MOL   C60313233   3.612   6.579   4.606 -0.0687  0.0955  0.4354
   16MOL   H60413234   4.055   7.336   3.546  0.4484  1.7600  0.6729
   16MOL   H60513235   4.184   7.404   3.656 -0.5223  1.7533 -2.1634
   16MOL   H60613236   4.142   7.110   3.660  1.4688 -0.0901  0.5832
   16MOL   H60713237   4.174   7.292   3.908 -1.0896 -2.9916  1.3024
   16MOL   H60813238   4.312   7.268   3.808  0.3643 -2.4420 -0.8384
   16MOL   H60913239   4.294   7.024   3.848  1.2752  1.3845  0.0602
   16MOL   H61013240   4.144   7.036   3.935  0.3918 -1.0405 -2.2070
   16MOL   H61113241   4.312   7.175   4.109  0.2400 -0.8094  0.7749
   16MOL   H61213242   4.432   7.132   3.998 -0.1290 -1.2599  1.0176
   16MOL   H61313243   4.447   6.978   4.179  0.8692 -2.6011 -0.6258
   16MOL   H61413244   4.398   6.890   4.050 -0.5983 -1.1337  0.9649
   16MOL   H61513245   4.240   7.006   4.285 -1.8652  0.0622 -0.7751
   16MOL   H61613246   4.151   6.924   4.153  0.6718  0.8331 -1.9364
   16MOL   H61713247   4.247   6.714   4.210 -0.4751 -1.2735  1.5666
   16MOL   H61813248   4.375   6.805   4.310  1.2357  1.0721 -2.7596
   16MOL   H61913249   4.236   6.701   4.457  1.3120  1.2092  0.4291
   16MOL   H62013250   4.220   6.870   4.479  0.2889  1.3873 -2.0130
   16MOL   H62113251   3.977   6.857   4.384 -0.9511 -0.2914  2.7984
   16MOL   H62213252   3.996   6.691   4.344  0.4557  0.0448  0.1269
   16MOL   H62313253   3.972   6.804   4.612 -2.5709 -1.9063  2.2763
   16MOL   H62413254   4.036   6.636   4.581 -1.1965 -0.7843 -0.2788
   16MOL   H62513255   3.831   6.603   4.447 -2.9706  1.3598 -0.2984
   16MOL   H62613256   3.785   6.770   4.472 -0.7586 -1.7029 -2.5001
   16MOL   H62713257   3.803   6.558   4.700 -0.6849 -2.1242 -1.3418
   16MOL   H62813258   3.737   6.718   4.716 -2.5633 -0.2982 -0.8266
   16MOL   H62913259   3.627   6.484   4.555  1.8774  1.1364 -1.0370
   16MOL   H63013260   3.552   6.650   4.549  0.0154 -1.9837 -2.3454
   16MOL   H63113261   3.569   6.550   4.702  0.2118  2.7282  1.3954
   16MOL   C63213262   3.975   7.212   3.757 -0.0406 -0.3935  0.3688
   16MOL   C63313263   3.881   7.105   3.694  0.5326 -0.1310  0.4879
   16MOL   C63413264   3.906   6.973   3.756  0.6485 -0.1804 -0.4458
   16MOL   C63513265   3.844   6.946   3.899  0.2895 -0.6555 -0.3386
   16MOL   C63613266   3.889   6.801   3.956 -0.1707  0.1403  0.6959
   16MOL   C63713267   3.792   6.741   4.061  0.1991  0.9246  0.0952
   16MOL   C63813268   3.654   6.699   4.007 -0.4675  0.7139  0.0391
   16MOL   C63913269   3.551   6.649   4.104  0.4174 -0.0588  0.6228
   16MOL   C64013270   3.568   6.505   4.161  0.0506 -0.3360 -0.3368
   16MOL   C64113271   3.459   6.442   4.249 -0.0332  0.1161 -0.6130
   16MOL   C64213272   3.508   6.308   4.311 -0.3402  0.4693 -0.6802
   16MOL   C64313273   3.395   6.221   4.360 -0.5603  0.0562  0.2708
   16MOL   C64413274   3.307   6.278   4.473 -0.0470  0.4820 -0.0633
   16MOL   C64513275   3.379   6.261   4.616  0.6540 -0.7040 -0.4343
   16MOL   H64613276   3.936   7.314   3.751 -0.4548 -0.5038  1.1871
   16MOL   H64713277   3.970   7.187   3.863  0.5648  0.3173  0.5666
   16MOL   H64813278   3.920   7.082   3.594 -1.3980 -1.4326  0.0004
   16MOL   H64913279   3.851   6.903   3.694 -0.8509  0.2080  0.4434
   16MOL   H65013280   4.011   6.942   3.764  0.3216 -1.1706 -0.0163
   16MOL   H65113281   3.735   6.947   3.892  0.1453 -0.0848  1.6122
   16MOL   H65213282   3.889   7.016   3.970  2.0355 -0.6254 -1.4501
   16MOL   H65313283   3.983   6.823   4.004 -0.6416  2.6295  0.5539
   16MOL   H65413284   3.929   6.738   3.877  4.4115  2.3276  1.1234
   16MOL   H65513285   3.836   6.648   4.099  1.9618  1.1881 -1.2692
   16MOL   H65613286   3.771   6.804   4.147  2.1167 -0.7766  1.8696
   16MOL   H65713287   3.609   6.787   3.960  0.1782  0.2771 -1.4219
   16MOL   H65813288   3.661   6.618   3.936 -1.3165  0.5814  0.0951
   16MOL   H65913289   3.454   6.657   4.054  0.2967 -0.6587  0.7557
   16MOL   H66013290   3.537   6.714   4.191  2.2767 -0.1309  0.9879
   16MOL   H66113291   3.654   6.527   4.223  1.0730 -1.6478 -1.2712
   16MOL   H66213292   3.608   6.434   4.089 -0.3923 -1.5531  0.6090
   16MOL   H66313293   3.425   6.511   4.326 -0.1150  1.5828 -1.9380
   16MOL   H66413294   3.381   6.422   4.175  0.0612 -0.7845 -0.4784
   16MOL   H66513295   3.550   6.258   4.224  0.5370  0.2694 -0.1446
   16MOL   H66613296   3.585   6.311   4.388 -0.5249  1.8382 -0.5515
   16MOL   H66713297   3.429   6.120   4.385 -3.1158 -0.8365  0.2443
   16MOL   H66813298   3.331   6.219   4.272 -0.3940  0.5412  0.1408
   16MOL   H66913299   3.204   6.244   4.465  0.6035 -2.1951  2.0339
   16MOL   H67013300   3.297   6.386   4.464  1.0586  0.4368 -2.2101
   16MOL   H67113301   3.325   6.307   4.699  2.4193 -1.8019  1.3646
   16MOL   H67213302   3.385   6.155   4.639 -1.7047 -1.0045 -1.0323
   16MOL   H67313303   3.481   6.300   4.619 -0.2901  1.9960 -1.9998
   16MOL   C67413304   3.732   7.160   3.688 -0.1906 -0.0448 -0.1324
   16MOL   C67513305   3.700   7.289   3.601 -0.1095  0.4589 -0.1397
   16MOL   C67613306   3.746   7.275   3.455 -0.3220 -0.3279 -0.0820
   16MOL   C67713307   3.740   7.403   3.382 -0.0566 -1.2088  0.7562
   16MOL   C67813308   3.837   7.401   3.259 -0.5356  0.0357 -0.0511
   16MOL   C67913309   3.813   7.502   3.153 -0.4074 -0.4762  0.1926
   16MOL   C68013310   3.687   7.478   3.071 -0.6596 -0.7198  0.7193
   16MOL   C68113311   3.668   7.579   2.957 -0.6286 -0.3374 -0.7564
   16MOL   C68213312   3.550   7.551   2.868 -0.1903  0.5639  0.6776
   16MOL   C68313313   3.510   7.679   2.795 -0.2378 -0.3766  0.5299
   16MOL   C68413314   3.401   7.649   2.696 -0.1356  0.0170 -0.1089
   16MOL   C68513315   3.367   0.082   2.626  0.5075  0.8792  0.5108
   16MOL   C68613316   3.273   0.056   2.502  0.3085 -0.1744  0.0825
   16MOL   C68713317   3.278   0.171   2.406  0.4823  0.3225 -0.4230
   16MOL   H68813318   3.703   7.180   3.791 -0.8767  1.3937 -0.5898
   16MOL   H68913319   3.671   7.083   3.640 -0.4830 -1.0831  1.8666
   16MOL   H69013320   3.760   7.367   3.649  0.6940  0.4807 -1.1480
   16MOL   H69113321   3.844   7.227   3.456 -0.8614 -1.4554  1.3784
   16MOL   H69213322   3.693   7.192   3.408  0.5537 -0.6412 -0.5356
   16MOL   H69313323   3.642   7.423   3.339 -0.4345 -1.5859  1.4344
   16MOL   H69413324   3.752   7.493   3.441 -2.2363 -1.1163  1.1023
   16MOL   H69513325   3.940   7.405   3.295 -1.0197  0.9942  1.2390
   16MOL   H69613326   3.828   7.300   3.219  2.3137 -0.6453  0.8467
   16MOL   H69713327   3.814   7.606   3.188  0.0189 -0.6055  0.5738
   16MOL   H69813328   3.907   7.502   3.098 -2.1512 -0.8909 -2.8846
   16MOL   H69913329   3.686   7.377   3.030 -0.5837 -0.3388 -0.2450
   16MOL   H70013330   3.595   7.485   3.130 -0.5072  0.8460  0.8043
   16MOL   H70113331   3.651   7.674   3.008  0.0891 -0.3151 -0.5520
   16MOL   H70213332   3.761   7.587   2.901  0.8843  2.4469  2.0294
   16MOL   H70313333   3.577   7.471   2.799  0.2154 -0.4341  1.9720
   16MOL   H70413334   3.464   7.519   2.928 -0.7690  1.1722  0.1787
   16MOL   H70513335   3.598   0.021   2.742 -0.8713 -2.7526 -2.3572
   16MOL   H70613336   3.477   0.046   2.878 -0.0934 -2.0018  1.8412
   16MOL   H70713337   3.321   7.590   2.740 -1.6532  1.1463 -1.2810
   16MOL   H70813338   3.444   7.579   2.625  0.0233  0.6333 -0.6308
   16MOL   H70913339   3.453   0.138   2.592 -0.5905  0.9101 -2.3185
   16MOL   H71013340   3.316   0.140   2.703  0.1138 -0.3533  1.1951
   16MOL   H71113341   3.307   7.673   2.434  0.3647 -1.0295  1.0846
   16MOL   H71213342   3.171   0.043   2.536  0.7446 -2.0126  0.7712
   16MOL   H71313343   3.286   0.265   2.460  1.0807  0.4735 -0.7659
   16MOL   H71413344   3.366   0.157   2.342  0.0509 -1.9422 -0.5594
   16MOL   H71513345   3.190   0.181   2.342  0.9093  0.7433 -0.9543
   16MOL   C71613346   3.551   7.327   3.611  0.1292  0.8521  0.3048
   16MOL   C71713347   3.503   7.409   3.729 -0.5509 -0.5539 -0.2762
   16MOL   C71813348   3.548   7.560   3.707 -0.5227 -0.4248  0.1218
   16MOL   C71913349   3.573   7.645   3.832 -0.1972  0.6869  0.2324
   16MOL   C72013350   3.671   7.595   3.938  0.5966  0.2035 -0.0379
   16MOL   C72113351   3.820   7.556   3.902  1.0095  0.0439 -0.2455
   16MOL   C72213352   3.900   7.493   4.016  0.2536  0.3962 -0.8222
   16MOL   C72313353   3.836   7.372   4.068 -0.0371  0.7158 -0.1234
   16MOL   C72413354   3.937   7.290   4.150  0.6589 -0.1206 -0.0816
   16MOL   C72513355   3.959   7.349   4.290  0.1337  0.2380 -0.1720
   16MOL   C72613356   4.072   7.274   4.362 -0.2511  0.3799 -0.1092
   16MOL   C72713357   4.091   7.319   4.509 -0.5363 -0.7020  0.1018
   16MOL   C72813358   3.991   7.277   4.610  0.2987  0.7213  0.3340
   16MOL   C72913359   3.973   7.125   4.624 -0.3302 -0.5673  0.2073
   16MOL   H73013360   3.512   7.378   3.524 -1.3176 -0.8361 -0.0517
   16MOL   H73113361   3.481   7.245   3.620 -0.7021  1.6371  1.1176
   16MOL   H73213362   3.560   7.377   3.817 -1.6770 -1.3885  0.1596
   16MOL   H73313363   3.482   7.609   3.636 -2.8228 -1.2243  1.6441
   16MOL   H73413364   3.645   7.557   3.657 -0.0553  1.5702  0.8582
   16MOL   H73513365   3.608   0.050   3.807 -0.1680  0.1404 -2.0207
   16MOL   H73613366   3.474   7.659   3.877 -0.9660 -2.7670 -0.2854
   16MOL   H73713367   3.684   7.673   4.013  2.8342 -0.1783 -0.0161
   16MOL   H73813368   3.626   7.512   3.993  3.3733 -1.8361 -0.7633
   16MOL   H73913369   3.816   7.488   3.817  0.5204  0.9259 -0.9281
   16MOL   H74013370   3.874   7.649   3.881 -1.0383  1.7815  1.8629
   16MOL   H74113371   3.996   7.465   3.974  0.9916  0.0875  1.0073
   16MOL   H74213372   3.920   7.566   4.095 -0.7575 -0.9335  0.6830
   16MOL   H74313373   3.807   7.303   3.988  0.3923 -1.2726  1.3773
   16MOL   H74413374   3.743   7.380   4.124  0.2788 -0.6139  0.6179
   16MOL   H74513375   3.912   7.184   4.155  1.5356 -0.2866  0.7867
   16MOL   H74613376   4.031   7.293   4.096  0.8920  2.5024  0.3936
   16MOL   H74713377   3.978   7.455   4.274  1.8360  0.1362  1.1049
   16MOL   H74813378   3.862   7.329   4.335 -0.9598  2.1197 -1.6254
   16MOL   H74913379   4.065   7.165   4.353 -1.6808  0.3386  1.2339
   16MOL   H75013380   4.168   7.291   4.314  0.2683 -2.6468 -0.2564
   16MOL   H75113381   4.190   7.284   4.535  0.3757  1.2436 -0.6151
   16MOL   H75213382   4.097   7.428   4.513 -1.6037 -0.6237 -0.1293
   16MOL   H75313383   3.896   7.319   4.576 -0.7455 -0.4548  1.6793
   16MOL   H75413384   4.002   7.318   4.710 -1.4122 -0.9251  1.2497
   16MOL   H75513385   3.926   7.091   4.532  1.4507 -0.8700 -0.6027
   16MOL   H75613386   3.916   7.094   4.712 -0.7777 -0.3678 -0.0098
   16MOL   H75713387   4.066   7.069   4.627  0.5317  0.8778  1.5219
   16MOL   C75813388   3.351   7.399   3.737  0.4269  0.2369 -0.1514
   16MOL   C75913389   3.283   7.290   3.825  0.3942  0.7149 -0.2738
   16MOL   C76013390   3.330   7.299   3.972  0.8739 -0.3284 -0.4070
   16MOL   C76113391   3.447   7.198   4.005  0.0832  0.3228 -0.1577
   16MOL   C76213392   3.489   7.170   4.159 -0.1783 -0.6694  0.3533
   16MOL   C76313393   3.618   7.079   4.165 -0.0873 -0.3462  0.1098
   16MOL   C76413394   3.676   7.071   4.317 -0.1519  0.0494  0.1516
   16MOL   C76513395   3.575   7.009   4.419 -0.0224  0.0649 -0.3257
   16MOL   C76613396   3.631   7.030   4.560  0.2359 -0.5609  0.0365
   16MOL   C76713397   3.522   6.999   4.662  0.0124 -0.4323 -0.6412
   16MOL   C76813398   3.552   7.054   4.795  0.5291 -0.6059  0.2668
   16MOL   C76913399   3.468   6.993   4.906  0.0377 -0.3461 -0.0634
   16MOL   C77013400   3.493   7.062   5.044  0.7676 -0.3740 -0.3182
   16MOL   C77113401   3.641   7.044   5.089  0.0277 -0.6674  0.5099
   16MOL   H77213402   3.306   7.490   3.775  0.6546 -0.4906  1.9184
   16MOL   H77313403   3.311   7.393   3.635 -0.6423  1.8322  0.1473
   16MOL   H77413404   3.317   7.190   3.797 -0.2408  0.9130 -1.7755
   16MOL   H77513405   3.344   7.401   4.006 -0.6619 -0.0546 -0.5272
   16MOL   H77613406   3.240   7.279   4.031  0.7310  2.1895  0.2856
   16MOL   H77713407   3.433   7.103   3.954  2.4275 -1.0622  1.6888
   16MOL   H77813408   3.532   7.248   3.958  0.0196  0.0830 -0.5253
   16MOL   H77913409   3.414   7.108   4.208  1.0965 -0.1955  3.0371
   16MOL   H78013410   3.496   7.267   4.210 -1.4144 -1.4253  2.0393
   16MOL   H78113411   3.697   7.125   4.105 -0.4777  0.5731  0.2910
   16MOL   H78213412   3.589   6.980   4.130 -0.3267 -0.5609  0.8953
   16MOL   H78313413   3.772   7.019   4.324 -1.3249 -1.8741  2.4727
   16MOL   H78413414   3.702   7.175   4.337 -1.3598  0.1469  1.2402
   16MOL   H78513415   3.552   6.903   4.405 -0.0668 -0.3171  2.2851
   16MOL   H78613416   3.481   7.064   4.410  0.1929  0.9842  2.5927
   16MOL   H78713417   3.663   7.132   4.578  1.1732 -1.2572  2.4983
   16MOL   H78813418   3.719   6.965   4.560  0.7980  0.1269  2.9899
   16MOL   H78913419   3.541   6.893   4.681 -0.0598  0.0872  2.5848
   16MOL   H79013420   3.418   7.016   4.633 -0.0137 -0.4779 -0.5741
   16MOL   H79113421   3.659   7.040   4.811  0.6405 -0.0842  0.0294
   16MOL   H79213422   3.531   7.160   4.780 -0.0693 -0.5573  1.4076
   16MOL   H79313423   3.365   6.994   4.870  0.4625 -2.5202 -1.3919
   16MOL   H79413424   3.504   6.891   4.901  1.0481 -0.0142  0.2863
   16MOL   H79513425   3.461   7.167   5.047  1.0923 -0.2604 -0.8346
   16MOL   H79613426   3.426   7.008   5.111 -1.6374  2.0449 -0.6680
   16MOL   H79713427   3.690   6.954   5.052 -0.8816 -0.4616 -1.2310
   16MOL   H79813428   3.711   7.118   5.048 -1.8563  0.8022 -0.1297
   16MOL   H79913429   3.648   7.047   5.198 -0.5074 -0.4153  0.5397
   16MOL   C80013430   3.130   7.289   3.810  0.1267  0.3198 -0.4303
   16MOL   C80113431   3.059   7.159   3.868 -0.4243 -0.5767  0.5013
   16MOL   C80213432   2.905   7.154   3.842  0.0979  0.1734  0.3248
   16MOL   C80313433   2.835   7.015   3.862  0.6295 -0.4696 -0.6730
   16MOL   C80413434   2.685   7.029   3.850 -0.7112 -1.0219  0.6756
   16MOL   C80513435   2.606   6.907   3.856  0.9317 -0.0606 -0.1338
   16MOL   C80613436   2.604   6.832   3.992  0.1406  0.1065 -0.1187
   16MOL   C80713437   2.479   6.752   4.025 -0.1243  0.3582 -0.1170
   16MOL   C80813438   2.478   6.698   4.167  0.7623 -0.0083  0.5256
   16MOL   C80913439   2.356   6.611   4.204 -0.7017 -0.5417  0.0468
   16MOL   C81013440   2.385   6.459   4.174  0.3972  0.0933 -0.0803
   16MOL   C81113441   2.307   6.364   4.272 -0.6719  0.4961 -0.2547
   16MOL   C81213442   2.371   6.360   4.415  0.1820 -0.0568  0.4569
   16MOL   C81313443   2.282   6.289   4.521 -0.1017 -0.5544 -0.2977
   16MOL   H81413444   3.110   7.294   3.703  0.5312  2.0652 -0.4446
   16MOL   H81513445   3.084   7.379   3.852 -0.4922 -1.3548  2.6611
   16MOL   H81613446   3.076   7.143   3.974 -0.7286  0.4479  0.7115
   16MOL   H81713447   2.886   7.189   3.741  1.4941 -0.8895 -0.3302
   16MOL   H81813448   2.867   7.233   3.907 -0.5123 -0.8988  1.2970
   16MOL   H81913449   2.861   6.986   3.964 -2.6821  1.6116  0.8501
   16MOL   H82013450   2.881   6.947   3.791 -1.1158 -1.3564 -0.9711
   16MOL   H82113451   2.645   7.108   3.914  0.1679 -0.0031 -0.0073
   16MOL   H82213452   2.667   7.079   3.755 -0.6678  0.4523  1.4376
   16MOL   H82313453   2.648   6.842   3.779  0.6791 -2.6550  1.8477
   16MOL   H82413454   2.505   6.927   3.820  0.9806  0.2780 -0.0909
   16MOL   H82513455   2.695   6.772   4.002 -1.9715 -3.4054 -1.0107
   16MOL   H82613456   2.611   6.899   4.078  0.5305  1.8357 -1.4811
   16MOL   H82713457   2.401   6.827   4.014  0.0749  0.8027  1.4374
   16MOL   H82813458   2.445   6.676   3.955  1.3041 -0.0041 -0.4360
   16MOL   H82913459   2.573   6.643   4.176 -0.5707 -2.0138  2.8040
   16MOL   H83013460   2.484   6.784   4.233  0.2364  0.4443 -0.0069
   16MOL   H83113461   2.265   6.648   4.158  0.0792  0.2425 -0.8884
   16MOL   H83213462   2.345   6.633   4.310  1.1405  0.2765  0.0815
   16MOL   H83313463   2.366   6.446   4.067  0.3071  0.8413 -0.1538
   16MOL   H83413464   2.492   6.443   4.182  0.5182  0.9080 -0.0446
   16MOL   H83513465   2.313   6.266   4.227 -1.8962  0.6340 -0.7264
   16MOL   H83613466   2.205   6.401   4.282 -0.6477  0.1829  1.3912
   16MOL   H83713467   2.464   6.304   4.415  0.2258 -0.0013 -1.1127
   16MOL   H83813468   2.393   6.464   4.441 -3.3262  1.3018 -1.6480
   16MOL   H83913469   2.260   6.182   4.513  1.0668 -0.8824  0.7023
   16MOL   H84013470   2.328   6.280   4.619  0.0179 -1.7053 -0.4450
   16MOL   H84113471   2.195   6.350   4.544  0.7232  0.6823 -0.4418
   16MOL   H84213472   3.094   7.078   3.804 -0.2518 -0.9430  1.0618
   17MOL     C113473   1.574   3.906   5.968  0.3502 -0.5115  0.1262
   17MOL     C213474   1.503   3.879   6.102 -0.4179  0.0117  0.3636
   17MOL     C313475   1.351   3.843   6.077  0.1961  0.4811 -0.6325
   17MOL     C413476   1.252   3.955   6.037 -0.1198  0.7178  0.1472
   17MOL     C513477   1.107   3.912   6.025 -0.1038  0.3325  0.3486
   17MOL     C613478   1.011   4.023   5.981 -0.6025  0.5150 -0.6875
   17MOL     C713479   0.868   3.964   5.955 -0.5863  0.0453 -0.2498
   17MOL     C813480   0.774   4.071   5.895  0.4559  0.3176 -0.0679
   17MOL     C913481   0.627   4.026   5.904 -0.3191  0.9379  0.3409
   17MOL    C1013482   0.536   4.121   5.828  0.1568 -0.6536  0.8428
   17MOL    C1113483   0.399   4.061   5.812  0.2158  0.0164  0.1091
   17MOL    C1213484   0.392   3.943   5.716 -0.1683 -0.6291 -0.0127
   17MOL    C1313485   0.353   3.982   5.568 -0.0302  0.8222 -0.1253
   17MOL    C1413486   0.372   3.881   5.460 -0.4564  0.1666 -0.1198
   17MOL    H1513487   1.517   3.977   5.907 -0.0873 -3.4454 -3.0686
   17MOL    H1613488   1.583   3.816   5.907  0.5266 -0.3517 -0.0846
   17MOL    H1713489   1.501   3.964   6.170 -3.4800  0.3750 -0.0882
   17MOL    H1813490   1.352   3.752   6.017  3.5015 -0.9244  1.3834
   17MOL    H1913491   1.306   3.804   6.168  0.3167 -1.4860 -1.3972
   17MOL    H2013492   1.277   4.005   5.944 -0.7083  0.7206 -0.0097
   17MOL    H2113493   1.254   4.033   6.114 -0.8553  0.6162  0.2732
   17MOL    H2213494   1.068   3.868   6.117  2.0712  0.9887  1.5908
   17MOL    H2313495   1.102   3.832   5.950 -1.3479  0.5359  0.1938
   17MOL    H2413496   1.048   4.071   5.891  0.7087 -0.1076 -0.4972
   17MOL    H2513497   1.002   4.100   6.057 -0.9188  0.5723 -0.7802
   17MOL    H2613498   0.877   3.885   5.881  1.8733  0.5536 -0.5476
   17MOL    H2713499   0.826   3.923   6.047  2.3007 -1.4738  0.4486
   17MOL    H2813500   0.811   4.083   5.794 -1.7779 -1.7435 -1.1855
   17MOL    H2913501   0.772   4.169   5.944 -1.8055  1.3758 -2.1549
   17MOL    H3013502   0.625   3.924   5.866  0.7384  1.4121 -1.0510
   17MOL    H3113503   0.605   4.016   6.010 -1.2239 -0.2690  0.0470
   17MOL    H3213504   0.529   4.210   5.889 -1.1282 -0.4926  0.4626
   17MOL    H3313505   0.565   4.154   5.729  1.5036 -0.7278  1.1988
   17MOL    H3413506   0.358   4.034   5.910  0.3858 -3.8741 -0.7977
   17MOL    H3513507   0.330   4.142   5.792  0.4118  0.1847  0.1179
   17MOL    H3613508   0.309   3.880   5.747 -1.8102  1.7648  0.5866
   17MOL    H3713509   0.485   3.886   5.708  0.3468  0.2979 -0.6822
   17MOL    H3813510   0.255   4.030   5.567  0.1869  1.2677 -0.3413
   17MOL    H3913511   0.417   4.069   5.558 -0.1633  0.7184 -2.1847
   17MOL    H4013512   0.340   3.935   5.372 -1.4087 -2.5731 -1.5262
   17MOL    H4113513   0.472   3.838   5.453 -1.8212 -3.0904 -0.6534
   17MOL    H4213514   0.308   3.792   5.461 -1.4185  0.8461  2.6890
   17MOL    H4313515   1.674   3.941   5.992 -0.2108  0.1716  1.4857
   17MOL    C4413516   1.579   3.763   6.172 -0.3431  0.3815  0.3652
   17MOL    C4513517   1.716   3.789   6.240  0.3710  0.0024  0.3072
   17MOL    C4613518   1.786   3.649   6.259  0.0832  0.2904  0.3382
   17MOL    C4713519   1.930   3.653   6.309  0.3044 -0.0412  0.3926
   17MOL    C4813520   1.996   3.507   6.296 -0.9554  0.5089  0.1046
   17MOL    C4913521   2.151   3.485   6.320 -0.0372  0.4118  0.5516
   17MOL    C5013522   2.198   3.347   6.262 -0.6973 -0.2403  0.1974
   17MOL    C5113523   2.348   3.335   6.268  0.4084 -0.5006 -0.0447
   17MOL    C5213524   2.408   3.348   6.411 -0.6191  0.8347  0.4398
   17MOL    C5313525   2.559   3.363   6.390 -1.1286  0.0473  0.5367
   17MOL    C5413526   2.640   3.336   6.512  0.0620  0.6635 -0.2021
   17MOL    C5513527   2.793   3.352   6.490 -0.5218 -1.0285  0.1668
   17MOL    C5613528   2.880   3.294   6.605 -0.6908  0.2167 -0.1157
   17MOL    C5713529   2.918   3.148   6.607 -0.4288  0.6700 -0.1192
   17MOL    H5813530   1.504   3.724   6.242  0.3041  0.4356  1.0954
   17MOL    H5913531   1.593   3.677   6.107 -1.6749 -0.2143  0.8526
   17MOL    H6013532   1.788   3.849   6.183  0.3108  0.6661  0.9287
   17MOL    H6113533   1.725   3.587   6.324 -1.2100 -0.0270 -1.1456
   17MOL    H6213534   1.785   3.600   6.161 -1.6383  0.2176  0.3747
   17MOL    H6313535   1.940   3.689   6.411  3.5403  1.5625 -0.4518
   17MOL    H6413536   1.983   3.728   6.250 -3.0081  1.8385 -0.3615
   17MOL    H6513537   1.982   3.490   6.189 -1.0779  0.0378  0.1989
   17MOL    H6613538   1.949   3.426   6.352  3.3869 -1.5648  0.9744
   17MOL    H6713539   2.217   3.564   6.285  0.7522  0.4830  2.1583
   17MOL    H6813540   2.155   3.490   6.429 -0.1365 -1.0358  0.6346
   17MOL    H6913541   2.144   3.270   6.318  2.6482 -2.2043  0.8327
   17MOL    H7013542   2.161   3.332   6.160  2.3273  3.5740 -1.5780
   17MOL    H7113543   2.393   3.402   6.195  0.1031  0.6419  0.7952
   17MOL    H7213544   2.373   3.236   6.232  1.9587  0.2605 -1.1075
   17MOL    H7313545   2.366   3.438   6.457 -2.3511  0.5505 -0.5291
   17MOL    H7413546   2.381   3.263   6.473 -0.5440  0.8870  0.5440
   17MOL    H7513547   2.585   3.461   6.351 -2.9645  0.1566 -0.4804
   17MOL    H7613548   2.596   3.291   6.317 -0.5933  0.6473  0.2175
   17MOL    H7713549   2.623   3.233   6.544  1.4751  0.3253 -0.5003
   17MOL    H7813550   2.609   3.392   6.600 -1.3697  0.2466 -0.4244
   17MOL    H7913551   2.817   3.310   6.393  0.4150 -1.2397  0.4897
   17MOL    H8013552   2.814   3.459   6.484 -1.9186 -0.7365  0.3055
   17MOL    H8113553   2.836   3.318   6.701 -1.7789 -1.4936 -0.1657
   17MOL    H8213554   2.977   3.344   6.600 -0.1748 -0.6042  1.4577
   17MOL    H8313555   2.840   3.082   6.645  0.1995 -0.2956 -0.5168
   17MOL    H8413556   3.002   3.139   6.676  0.7215 -2.4660 -1.8375
   17MOL    H8513557   2.968   3.116   6.516 -0.3827 -2.7206  1.0538
   17MOL    C8613558   1.687   3.869   6.369 -0.1070  0.4447 -0.1274
   17MOL    C8713559   1.703   4.021   6.362 -0.3409  0.1601  0.5014
   17MOL    C8813560   1.846   4.066   6.317  0.1017 -0.2488 -0.5306
   17MOL    C8913561   1.971   4.017   6.400  0.4873 -0.0808  0.0611
   17MOL    C9013562   2.108   4.032   6.319  0.2457 -0.3872  0.4340
   17MOL    C9113563   2.228   3.984   6.393  0.5232 -0.5017  0.3963
   17MOL    C9213564   2.295   4.099   6.464  0.1800 -0.1989 -0.2102
   17MOL    C9313565   2.413   4.052   6.546 -1.0539  0.0058 -0.1243
   17MOL    C9413566   2.465   4.160   6.643  0.2221 -0.6472  0.6591
   17MOL    C9513567   2.603   4.138   6.712  0.1368  0.4278 -1.1595
   17MOL    C9613568   2.577   4.048   6.837 -0.9164 -0.0584  0.1750
   17MOL    C9713569   2.718   4.012   6.910 -0.6209 -0.4784  0.6307
   17MOL    C9813570   2.699   3.980   7.056 -0.9595  0.0207  0.1808
   17MOL    C9913571   2.647   4.094   7.138  0.0540  0.6161 -0.1154
   17MOL   H10013572   1.591   3.846   6.414  0.9981 -2.4881  0.8600
   17MOL   H10113573   1.751   3.827   6.447 -0.9884 -1.2395 -0.3071
   17MOL   H10213574   1.635   4.068   6.290 -1.4698 -0.1195  1.3757
   17MOL   H10313575   1.871   4.046   6.212  2.3616  2.0619 -0.4877
   17MOL   H10413576   1.840   4.174   6.326 -1.7317 -0.2116 -1.8585
   17MOL   H10513577   1.977   4.082   6.488 -1.1368  0.3526 -0.1319
   17MOL   H10613578   1.969   3.911   6.424 -0.4310 -0.6107 -2.2889
   17MOL   H10713579   2.114   4.140   6.307 -0.6751 -0.3728  0.0816
   17MOL   H10813580   2.108   3.997   6.216 -0.7750 -0.5636  0.4917
   17MOL   H10913581   2.297   3.951   6.315  1.5644 -1.1781  1.5839
   17MOL   H11013582   2.206   3.900   6.459 -2.0225  0.0689  0.3423
   17MOL   H11113583   2.325   4.176   6.393 -1.1488  0.4591 -0.0808
   17MOL   H11213584   2.223   4.139   6.535  0.8486  1.7257 -0.5823
   17MOL   H11313585   2.487   4.007   6.479  0.2134  0.3612  0.9947
   17MOL   H11413586   2.399   3.969   6.616  1.5729 -0.9037 -0.5944
   17MOL   H11513587   2.474   4.249   6.582 -1.1690 -1.7501 -1.2351
   17MOL   H11613588   2.391   4.183   6.720 -1.5106  0.3661 -1.2758
   17MOL   H11713589   2.653   4.227   6.750 -1.0033  0.7664 -0.4067
   17MOL   H11813590   2.683   4.094   6.653 -0.2252  1.7975 -2.6906
   17MOL   H11913591   2.502   4.083   6.908 -0.9626  3.0037 -1.2920
   17MOL   H12013592   2.539   3.953   6.799  0.7889 -0.9016  0.5280
   17MOL   H12113593   2.775   3.936   6.856  0.1485 -0.8866  1.9841
   17MOL   H12213594   2.780   4.101   6.895 -0.3038 -0.6688  0.8064
   17MOL   H12313595   2.800   3.959   7.091 -1.1442 -0.4989  0.4055
   17MOL   H12413596   2.652   3.883   7.073 -2.0578  0.3412 -0.9590
   17MOL   H12513597   2.541   4.110   7.120 -0.6564 -2.5938  0.9045
   17MOL   H12613598   2.659   4.082   7.246  0.5344 -0.3776 -0.2675
   17MOL   H12713599   2.697   4.185   7.103  0.2238  0.3927 -0.4571
   17MOL   C12813600   1.656   4.080   6.494 -0.1988 -0.5365 -0.0125
   17MOL   C12913601   1.600   4.232   6.482  0.0968  0.3909  0.5757
   17MOL   C13013602   1.450   4.239   6.500 -0.2311 -0.3985 -0.0140
   17MOL   C13113603   1.361   4.157   6.405 -0.6293 -0.0427  0.2343
   17MOL   C13213604   1.216   4.142   6.461 -0.2263  1.1334  0.6402
   17MOL   C13313605   1.129   4.035   6.391 -0.4859 -0.6095  0.5564
   17MOL   C13413606   1.033   3.970   6.482 -0.1104  0.3864 -0.6003
   17MOL   C13513607   0.935   4.073   6.550  0.1827  0.2374  0.5205
   17MOL   C13613608   0.827   3.998   6.631  0.0977 -0.0825 -1.0661
   17MOL   C13713609   0.873   3.957   6.774 -0.3037 -0.2929  0.4804
   17MOL   C13813610   0.759   3.899   6.869  0.0230  0.1343  0.0884
   17MOL   C13913611   0.669   4.011   6.925 -0.1749  0.5542  0.0614
   17MOL   C14013612   0.553   3.962   7.004 -0.5674  0.1807  0.5414
   17MOL   C14113613   0.571   3.916   7.147  0.0082  0.6694  0.0225
   17MOL   H14213614   1.577   4.024   6.545 -0.7046  0.8179  0.7311
   17MOL   H14313615   1.734   4.088   6.571 -0.3542 -0.9309  0.1828
   17MOL   H14413616   1.638   4.272   6.388 -1.1618  0.9255  0.2834
   17MOL   H14513617   1.422   4.208   6.601 -1.2255  0.8492  0.1127
   17MOL   H14613618   1.420   4.343   6.493 -0.7920 -0.5753 -0.2596
   17MOL   H14713619   1.363   4.206   6.308  0.5455 -0.8706 -0.1717
   17MOL   H14813620   1.406   4.058   6.399  0.0946  0.4403 -2.7142
   17MOL   H14913621   1.229   4.113   6.565 -0.4345  0.2964  0.4425
   17MOL   H15013622   1.169   4.240   6.466  0.0087  1.2687  0.2446
   17MOL   H15113623   1.071   4.083   6.312  0.7133  0.6811  0.4370
   17MOL   H15213624   1.196   3.957   6.355  1.6736  0.5337  1.9841
   17MOL   H15313625   0.982   3.892   6.425  1.5044 -2.0096  1.1449
   17MOL   H15413626   1.079   3.916   6.565 -0.4328 -0.7358 -1.1304
   17MOL   H15513627   0.988   4.148   6.609  1.8334 -1.1347  0.8167
   17MOL   H15613628   0.886   4.140   6.479  0.4902  0.1311  0.2060
   17MOL   H15713629   0.742   4.066   6.634 -0.9453 -1.4148  0.4871
   17MOL   H15813630   0.777   3.911   6.589 -1.8625 -2.1736  5.0478
   17MOL   H15913631   0.925   4.041   6.820 -1.8302  0.4144  0.9699
   17MOL   H16013632   0.945   3.876   6.776 -0.0386 -0.0624  0.2620
   17MOL   H16113633   0.706   3.818   6.818  1.7089 -0.6334 -0.4712
   17MOL   H16213634   0.817   3.858   6.952  1.2102  0.3458 -0.6220
   17MOL   H16313635   0.720   4.086   6.986 -0.1086  0.6559 -0.1202
   17MOL   H16413636   0.634   4.069   6.840 -3.3516  0.8735  1.5088
   17MOL   H16513637   0.482   4.044   6.995 -0.1679  0.5334  0.6083
   17MOL   H16613638   0.503   3.876   6.959 -1.6244  1.0450  0.0379
   17MOL   H16713639   0.480   3.877   7.194 -0.4896 -0.5179 -1.8658
   17MOL   H16813640   0.635   3.829   7.160 -1.9077 -0.6580  0.8110
   17MOL   H16913641   0.616   3.999   7.202 -0.2872 -0.0223  1.3349
   17MOL   C17013642   1.665   4.330   6.579 -0.3371  0.4933 -0.3114
   17MOL   C17113643   1.819   4.358   6.569 -0.0734 -0.5691  0.0410
   17MOL   C17213644   1.865   4.429   6.438  0.6548 -0.6124 -0.1774
   17MOL   C17313645   2.016   4.430   6.418 -0.6484 -0.9882  0.1274
   17MOL   C17413646   2.055   4.512   6.294  0.5993 -0.5642  0.0199
   17MOL   C17513647   2.023   4.659   6.301 -0.3809 -0.7642  0.3404
   17MOL   C17613648   2.084   4.735   6.171  0.5558 -0.0682  0.3895
   17MOL   C17713649   2.043   4.884   6.162 -0.7836 -0.2657 -0.7237
   17MOL   C17813650   2.123   4.964   6.056 -0.1022 -0.3794 -0.4790
   17MOL   C17913651   2.052   5.090   6.026  0.0308  0.4030  0.1003
   17MOL   C18013652   2.089   5.156   5.891  0.7113  0.5897 -0.0625
   17MOL   C18113653   2.020   5.287   5.853  0.1579  0.6541  0.5297
   17MOL   C18213654   2.059   5.332   5.713  0.0605  0.5672  0.2021
   17MOL   C18313655   1.978   5.451   5.655  0.5437 -0.0082 -0.7965
   17MOL   H18413656   1.648   4.281   6.674  0.7269 -0.7308 -0.7391
   17MOL   H18513657   1.612   4.425   6.585  1.4863  1.4008  2.0975
   17MOL   H18613658   1.881   4.268   6.572 -0.8275 -1.1698 -1.3848
   17MOL   H18713659   1.812   4.378   6.358 -1.0154  0.3514  0.2860
   17MOL   H18813660   1.829   4.532   6.425  0.7192 -0.5258  0.3197
   17MOL   H18913661   2.072   4.484   6.495 -0.0572  0.5673 -1.3598
   17MOL   H19013662   2.051   4.327   6.414  2.2667 -0.1136  1.2601
   17MOL   H19113663   2.162   4.498   6.278 -0.0819 -3.4514 -2.4822
   17MOL   H19213664   2.011   4.471   6.203  1.3445 -0.6052 -0.3260
   17MOL   H19313665   2.064   4.699   6.394 -3.2459  1.7136  0.6112
   17MOL   H19413666   1.915   4.671   6.300 -0.2624  0.3204  0.1910
   17MOL   H19513667   2.060   4.671   6.087 -1.7881  0.9632  0.2210
   17MOL   H19613668   2.192   4.728   6.187  0.6009 -0.1176  0.0605
   17MOL   H19713669   2.052   4.940   6.254 -0.6260 -0.1800 -0.7902
   17MOL   H19813670   1.936   4.880   6.141 -1.2434  1.2039  1.2296
   17MOL   H19913671   2.131   4.913   5.960 -0.9149 -0.1549 -0.6687
   17MOL   H20013672   2.224   4.981   6.093 -0.8293 -0.9999  1.8794
   17MOL   H20113673   2.064   5.162   6.107  0.4797 -0.3042  0.6685
   17MOL   H20213674   1.945   5.071   6.019 -0.2506  2.2486 -1.1569
   17MOL   H20313675   2.080   5.083   5.812  0.2431 -1.2000  1.6171
   17MOL   H20413676   2.197   5.172   5.896  0.7579  0.3947 -0.4382
   17MOL   H20513677   1.912   5.274   5.859  0.0286 -0.0498 -2.5930
   17MOL   H20613678   2.032   5.364   5.930 -0.5227  1.4577 -0.1447
   17MOL   H20713679   2.166   5.355   5.718  0.3640 -1.0406  1.2986
   17MOL   H20813680   2.058   5.255   5.636  1.3845  1.2880 -0.5709
   17MOL   H20913681   1.870   5.438   5.648  0.6003 -0.1720 -1.3975
   17MOL   H21013682   2.008   5.485   5.556 -3.5976 -1.0434 -2.4988
   17MOL   H21113683   1.982   5.538   5.722 -0.6742 -1.0304  0.6301
   17MOL   C21213684   1.868   4.431   6.690 -0.4936  0.1651 -0.0685
   17MOL   C21313685   1.893   4.327   6.814 -0.1018  0.2053 -0.2851
   17MOL   C21413686   2.024   4.245   6.790  0.3634 -0.6505  0.9401
   17MOL   C21513687   2.026   4.100   6.853 -0.2975 -0.0594  0.1534
   17MOL   C21613688   2.153   4.080   6.934  0.1783  0.1364 -0.2123
   17MOL   C21713689   2.207   3.935   6.970 -0.3098 -0.4649  1.1006
   17MOL   C21813690   2.115   3.855   7.068 -1.0719 -0.3330 -0.6649
   17MOL   C21913691   2.074   3.932   7.189 -0.1863 -0.1748 -0.0855
   17MOL   C22013692   2.180   3.934   7.305  0.2521  0.6538  0.6286
   17MOL   C22113693   2.119   3.993   7.431  0.1245  0.3768 -0.2014
   17MOL   C22213694   2.216   4.012   7.550  0.6022  0.4619 -0.0334
   17MOL   C22313695   2.142   4.092   7.656 -0.1436  0.1288 -0.3114
   17MOL   C22413696   2.236   4.132   0.076 -0.2101 -0.3301  0.6407
   17MOL   C22513697   2.346   4.235   0.055  0.8668  0.2323 -0.3813
   17MOL   H22613698   1.799   4.513   6.710 -1.4252 -0.3951 -0.9334
   17MOL   H22713699   1.962   4.484   6.678 -0.9325  0.7204 -1.0593
   17MOL   H22813700   1.817   4.250   6.821  0.4850 -0.4573 -1.1068
   17MOL   H22913701   2.036   4.229   6.683 -1.2650  0.2721  0.6020
   17MOL   H23013702   2.112   4.302   6.820 -0.3138  1.2256 -0.5493
   17MOL   H23113703   2.010   4.038   6.764  1.4481  2.0818 -1.7206
   17MOL   H23213704   1.943   4.079   6.920  0.5482 -0.2634  1.1444
   17MOL   H23313705   2.133   4.134   7.027 -0.1290 -0.9837  0.3917
   17MOL   H23413706   2.241   4.126   6.891 -0.1766  0.5641 -0.4783
   17MOL   H23513707   2.304   3.935   7.021 -0.2802 -0.6513  1.0454
   17MOL   H23613708   2.233   3.884   6.878 -1.4536  0.1267  0.4405
   17MOL   H23713709   2.025   3.823   7.016 -0.8068 -0.5971 -0.9608
   17MOL   H23813710   2.162   3.756   7.073  0.7180  0.5327  0.2072
   17MOL   H23913711   2.021   4.026   7.171 -0.6571 -0.3177  0.5281
   17MOL   H24013712   1.995   3.870   7.232 -0.7547 -0.8001 -1.9871
   17MOL   H24113713   2.275   3.982   7.281 -0.0003  0.5137 -0.6816
   17MOL   H24213714   2.206   3.830   7.321 -0.9527  0.4390  1.2431
   17MOL   H24313715   2.083   4.089   7.394  1.6960  2.4838  3.5011
   17MOL   H24413716   2.045   3.921   7.465  2.9112 -2.5694 -0.0877
   17MOL   H24513717   2.305   4.053   7.503 -0.0363 -0.0267 -1.6777
   17MOL   H24613718   2.245   3.916   7.593 -1.6925  0.4175  1.4777
   17MOL   H24713719   2.057   4.033   7.690  0.4744 -0.7019 -0.2063
   17MOL   H24813720   2.097   4.181   7.611 -0.4359  0.0224 -0.2313
   17MOL   H24913721   2.277   4.038   0.113 -0.0899 -0.0245  1.2949
   17MOL   H25013722   2.170   4.160   0.157 -0.7557  1.4664 -0.3931
   17MOL   H25113723   2.316   4.337   0.031  0.2463 -0.1837 -1.4092
   17MOL   H25213724   2.419   4.241   0.136  1.7649 -1.6425 -1.0226
   17MOL   H25313725   2.404   4.203   7.664 -0.2228  0.5320 -1.2333
   17MOL   C25413726   1.899   4.401   6.955  0.5991  0.2913  0.0901
   17MOL   C25513727   1.758   4.461   7.000  0.4430 -0.7082  0.0180
   17MOL   C25613728   1.656   4.353   7.033 -0.2837  0.3731  0.2336
   17MOL   C25713729   1.516   4.402   7.034 -0.4054  0.0400  0.1641
   17MOL   C25813730   1.415   4.300   7.078  0.0477 -0.3666  0.6462
   17MOL   C25913731   1.396   4.182   6.974 -0.5498 -0.3267 -0.7047
   17MOL   C26013732   1.302   4.070   7.029  0.1476 -0.6816  0.0466
   17MOL   C26113733   1.239   3.969   6.927 -0.3837  0.0349 -0.6196
   17MOL   C26213734   1.164   3.851   6.985  1.0047 -0.1778  0.2660
   17MOL   C26313735   1.248   3.766   7.089 -0.2047  0.1484  0.2312
   17MOL   C26413736   1.184   3.632   7.146  0.0646 -0.6564 -0.6030
   17MOL   C26513737   1.266   3.582   7.259 -0.0016 -0.5641  0.4026
   17MOL   C26613738   1.234   3.434   7.293 -0.7745 -0.0388 -0.4532
   17MOL   C26713739   1.320   3.385   7.405 -0.6935  0.1417  0.2557
   17MOL   H26813740   1.972   4.483   6.956  1.8033 -0.7736  0.5867
   17MOL   H26913741   1.936   4.323   7.021  0.8832 -0.1179 -0.5484
   17MOL   H27013742   1.726   4.514   6.911 -1.1314 -2.5600 -0.5390
   17MOL   H27113743   1.679   4.311   7.131  0.0536 -0.0617 -0.0281
   17MOL   H27213744   1.663   4.279   6.953 -1.3367 -0.5019  0.9436
   17MOL   H27313745   1.499   4.427   6.929 -2.9554  0.5068  0.6498
   17MOL   H27413746   1.487   4.493   7.088 -3.4108 -0.3679 -0.6631
   17MOL   H27513747   1.316   4.339   7.100  1.2801  2.4840  1.2859
   17MOL   H27613748   1.463   4.257   7.166  0.1859  0.5584  1.0238
   17MOL   H27713749   1.489   4.137   6.941  0.4609  1.1577  0.0801
   17MOL   H27813750   1.358   4.228   6.882 -0.0435  2.1560  0.2792
   17MOL   H27913751   1.353   4.018   7.110  1.3562  1.7220  0.8579
   17MOL   H28013752   1.214   4.107   7.079  0.5884 -0.0377  0.3448
   17MOL   H28113753   1.326   3.949   6.865 -0.5180  2.1239 -1.5351
   17MOL   H28213754   1.162   4.017   6.866 -1.6559 -0.0972  0.8548
   17MOL   H28313755   1.078   3.888   7.041 -0.3628 -1.7199 -0.7590
   17MOL   H28413756   1.111   3.783   6.918 -0.5510  1.6622 -0.3928
   17MOL   H28513757   1.254   3.830   7.177 -1.2698 -1.8404  1.7861
   17MOL   H28613758   1.351   3.750   7.056 -0.2326 -1.1280  0.7649
   17MOL   H28713759   1.185   3.548   7.077  0.8113 -1.2458  0.1146
   17MOL   H28813760   1.078   3.637   7.172  0.5921 -1.4682  1.8690
   17MOL   H28913761   1.371   3.576   7.228  0.5860  1.4267  1.9158
   17MOL   H29013762   1.269   3.646   7.347 -0.2879 -0.4202  0.3071
   17MOL   H29113763   1.133   3.423   7.330 -0.4037 -0.7330  0.3675
   17MOL   H29213764   1.252   3.365   7.210  0.9595 -0.5560  0.3238
   17MOL   H29313765   1.423   3.378   7.371 -0.8996 -0.3514 -0.2773
   17MOL   H29413766   1.294   3.282   7.430 -0.0916  0.0988  0.7285
   17MOL   H29513767   1.317   3.447   7.494 -1.5790  1.3687 -0.6213
   17MOL   C29613768   1.781   4.569   7.103 -0.0640  0.0832 -0.1595
   17MOL   C29713769   1.772   4.539   7.253  0.0536  0.3702  0.0907
   17MOL   C29813770   1.874   4.429   7.297 -0.7286  0.0237 -0.0694
   17MOL   C29913771   2.026   4.465   7.292  0.0566 -0.5478 -0.0166
   17MOL   C30013772   2.118   4.348   7.317 -0.8705  0.2157  0.1076
   17MOL   C30113773   2.265   4.389   7.302 -1.6642  0.0510  1.0517
   17MOL   C30213774   2.313   4.378   7.160  0.2168  0.3619 -0.9046
   17MOL   C30313775   2.435   4.470   7.138 -0.5482  0.3998  0.0441
   17MOL   C30413776   2.505   4.464   7.006  0.4402 -0.5436  0.1645
   17MOL   C30513777   2.621   4.553   6.993  0.5993 -0.0776 -0.0140
   17MOL   C30613778   2.715   4.496   6.892 -0.0687 -0.3645 -1.2902
   17MOL   C30713779   2.837   4.593   6.880  0.4272  0.0471  0.4235
   17MOL   C30813780   2.941   4.559   6.778  0.2996 -0.7035  0.5304
   17MOL   C30913781   3.018   4.433   6.822  0.7408 -0.0898  0.4165
   17MOL   H31013782   1.705   4.642   7.074  1.7205  1.7334 -0.7963
   17MOL   H31113783   1.870   4.630   7.085  1.1190 -0.7934  2.5047
   17MOL   H31213784   1.674   4.494   7.269  0.7045 -0.7777  0.9214
   17MOL   H31313785   1.853   4.343   7.233 -1.4956  1.8502 -2.3284
   17MOL   H31413786   1.860   4.410   7.404  0.2455 -1.2224 -0.1435
   17MOL   H31513787   2.046   4.544   7.364  1.3114 -0.6190 -0.2642
   17MOL   H31613788   2.053   4.507   7.195 -1.4447  1.1956  0.2893
   17MOL   H31713789   2.104   4.315   7.420 -2.1777  0.5191  0.0346
   17MOL   H31813790   2.078   4.272   7.249 -0.6546 -0.0102  0.2364
   17MOL   H31913791   2.324   4.331   7.373  2.2793  0.4465 -1.7146
   17MOL   H32013792   2.282   4.492   7.333  2.7665 -0.5725  0.9726
   17MOL   H32113793   2.333   4.276   7.128  0.4979 -0.5751  2.0809
   17MOL   H32213794   2.239   4.421   7.093  0.2428  2.2816  0.2579
   17MOL   H32313795   2.493   4.452   7.228 -1.0703 -1.0341  0.1132
   17MOL   H32413796   2.395   4.568   7.166 -1.5601 -0.3223  1.1789
   17MOL   H32513797   2.525   4.358   6.993 -0.3648 -0.6001 -0.5667
   17MOL   H32613798   2.433   4.477   6.926 -0.4595 -2.3701  0.6659
   17MOL   H32713799   2.668   4.558   7.091 -1.0338 -0.2550  0.7945
   17MOL   H32813800   2.592   4.655   6.965 -1.7436 -1.0688 -1.3827
   17MOL   H32913801   2.663   4.481   6.797 -0.4798 -2.1741 -0.7997
   17MOL   H33013802   2.749   4.395   6.917  0.7182  0.8945  3.0032
   17MOL   H33113803   2.882   4.612   6.977  0.4992 -0.8943  0.5851
   17MOL   H33213804   2.802   4.687   6.838  0.8284 -0.7542 -1.7811
   17MOL   H33313805   3.012   4.641   6.769 -0.5672 -0.2137 -2.3711
   17MOL   H33413806   2.899   4.545   6.679 -1.6066 -0.4308  1.2832
   17MOL   H33513807   3.064   4.443   6.921 -0.8179  1.5384  1.0159
   17MOL   H33613808   2.957   4.343   6.816 -1.7303  1.4159  1.8120
   17MOL   H33713809   3.114   4.414   6.775 -0.4931 -1.8768 -1.4344
   17MOL   C33813810   1.782   4.659   7.347 -0.0960 -0.0110  0.5456
   17MOL   C33913811   1.669   4.766   7.321 -0.1705 -0.0974  0.1076
   17MOL   C34013812   1.520   4.714   7.320  0.5369  0.1988  0.2501
   17MOL   C34113813   1.487   4.628   7.445  0.8116 -0.2487 -0.1670
   17MOL   C34213814   1.344   4.578   7.470 -0.6229 -0.6029  0.0131
   17MOL   C34313815   1.324   4.487   7.587  0.8161 -0.7751 -0.0452
   17MOL   C34413816   1.334   4.339   7.565  0.3620 -0.7846 -1.3847
   17MOL   C34513817   1.300   4.267   7.695  0.0014 -0.7891 -0.9805
   17MOL   C34613818   1.297   4.118   7.662 -1.1730  0.3160 -0.7374
   17MOL   C34713819   1.307   4.017   0.083  0.0032 -0.8427 -0.2158
   17MOL   C34813820   1.174   3.998   0.153  0.1339  0.2111  0.6341
   17MOL   C34913821   1.175   3.889   0.262  0.2151  0.0065  0.5365
   17MOL   C35013822   1.183   3.743   0.206 -0.8384 -0.3340 -0.3355
   17MOL   C35113823   1.091   3.654   0.280  0.2455  0.5918  0.5052
   17MOL   H35213824   1.764   4.607   7.441  0.8925 -1.0759  0.1624
   17MOL   H35313825   1.884   4.696   7.345 -0.4221  0.9729  1.6629
   17MOL   H35413826   1.682   4.812   7.222 -0.7723  0.7154  0.4026
   17MOL   H35513827   1.458   4.800   7.296 -1.8281 -1.2429  1.0181
   17MOL   H35613828   1.508   4.657   7.227  0.9232 -0.1224  0.3923
   17MOL   H35713829   1.515   4.676   7.539 -2.3696  0.6244  0.3978
   17MOL   H35813830   1.542   4.534   7.447 -0.9643 -1.3036 -0.0318
   17MOL   H35913831   1.310   4.534   7.376 -0.5129 -3.1040  1.1213
   17MOL   H36013832   1.271   4.658   7.488  1.0181  1.0292 -0.4650
   17MOL   H36113833   1.395   4.506   7.668  1.3858 -1.5574 -0.3597
   17MOL   H36213834   1.223   4.502   7.627  0.1597 -1.2771 -1.4751
   17MOL   H36313835   1.266   4.307   7.486 -0.0133 -0.6305 -1.1286
   17MOL   H36413836   1.435   4.315   7.533  0.4301  0.0258 -1.7856
   17MOL   H36513837   1.375   4.280   0.078 -0.4886 -2.2900 -0.2537
   17MOL   H36613838   1.205   4.301   0.040  0.0822 -1.1603 -0.4820
   17MOL   H36713839   1.218   4.094   7.591 -0.7785 -1.0171 -0.7372
   17MOL   H36813840   1.393   4.098   7.613 -1.7657  1.2034 -2.3313
   17MOL   H36913841   1.345   3.921   0.048  0.3590 -1.0687  0.7639
   17MOL   H37013842   1.379   4.046   0.159 -0.3229 -0.5596 -0.0140
   17MOL   H37113843   1.097   3.978   0.078 -0.0794  2.0823  0.3282
   17MOL   H37213844   1.144   4.094   0.195  1.7968  0.0098  2.3753
   17MOL   H37313845   1.085   3.903   0.322  1.0589  1.2029  1.5538
   17MOL   H37413846   1.257   3.899   0.334  0.7107  0.7699 -0.1304
   17MOL   H37513847   1.144   3.742   0.104 -1.4749  1.1539 -0.1194
   17MOL   H37613848   1.283   3.701   0.194 -1.6489 -1.4640 -3.8262
   17MOL   H37713849   0.988   3.684   0.261  0.4184  0.1955 -1.1365
   17MOL   H37813850   1.106   3.549   0.256 -1.3919  0.1857  1.2136
   17MOL   H37913851   1.109   3.674   0.386  0.2212  0.3539  0.5535
   17MOL   C38013852   1.683   4.886   7.418 -0.6851 -0.5339 -0.2720
   17MOL   C38113853   1.828   4.932   7.467 -0.4501  0.4072  0.7617
   17MOL   C38213854   1.898   4.994   7.340 -0.2863  0.6088  0.8058
   17MOL   C38313855   2.052   5.004   7.334  0.5073 -0.4159  0.3229
   17MOL   C38413856   2.117   4.886   7.273 -0.3772  0.5058  0.8594
   17MOL   C38513857   2.108   4.890   7.114 -0.2429  0.0693 -0.0163
   17MOL   C38613858   2.163   4.764   7.037 -1.1213 -0.4838  0.2014
   17MOL   C38713859   2.198   4.817   6.895 -0.4313 -0.5469 -0.4127
   17MOL   C38813860   2.290   4.728   6.819  0.0115 -0.5914 -0.1557
   17MOL   C38913861   2.307   4.758   6.668 -0.4620 -0.0697 -0.8896
   17MOL   C39013862   2.417   4.666   6.595  0.0191 -0.1653  0.1012
   17MOL   C39113863   2.423   4.687   6.439  0.0129  0.4792 -0.2548
   17MOL   C39213864   2.471   4.562   6.358  0.2424 -0.3863 -0.0263
   17MOL   C39313865   2.483   4.568   6.209  1.1098 -0.4292 -0.5286
   17MOL   H39413866   1.637   4.864   7.514 -0.3960  0.8955  0.2149
   17MOL   H39513867   1.637   4.979   7.385 -1.8291 -0.5315  1.2882
   17MOL   H39613868   1.893   4.849   7.496 -2.0898 -0.5726  1.7398
   17MOL   H39713869   1.861   5.094   7.315 -1.0961  0.1740  0.2371
   17MOL   H39813870   1.868   4.944   7.248  3.9314 -2.0719  0.7538
   17MOL   H39913871   2.076   4.993   7.440 -0.1924 -0.0923  0.5166
   17MOL   H40013872   2.082   5.095   7.283 -0.4794  0.1410  0.7287
   17MOL   H40113873   2.061   4.798   7.304  0.0110  0.0650  0.3208
   17MOL   H40213874   2.218   4.870   7.311 -0.4399 -1.8049  0.1443
   17MOL   H40313875   2.159   4.983   7.090  0.0131  0.2471  1.1718
   17MOL   H40413876   2.004   4.898   7.083 -0.2333 -4.2033 -1.5048
   17MOL   H40513877   2.253   4.721   7.079 -0.4623  1.2434  0.5882
   17MOL   H40613878   2.086   4.688   7.052 -2.3710  0.4546 -1.2993
   17MOL   H40713879   2.109   4.836   6.834  1.4626  1.8126 -2.5277
   17MOL   H40813880   2.250   4.912   6.901  0.6236 -0.9381 -2.8742
   17MOL   H40913881   2.388   4.736   6.866 -0.3908 -1.0456  0.7592
   17MOL   H41013882   2.258   4.624   6.822  1.3922 -1.0315 -0.5316
   17MOL   H41113883   2.347   4.859   6.672 -0.5683 -0.0864  0.7084
   17MOL   H41213884   2.210   4.752   6.618 -0.2815 -0.4176 -1.1990
   17MOL   H41313885   2.517   4.679   6.637  1.3228 -0.5592 -2.7960
   17MOL   H41413886   2.396   4.561   6.619  0.8037 -0.3306  0.0855
   17MOL   H41513887   2.486   4.774   6.419 -1.0700  1.0783 -1.1411
   17MOL   H41613888   2.323   4.720   6.411  0.4363  2.1941  0.1999
   17MOL   H41713889   2.569   4.536   6.400  1.3384  3.6453  0.1526
   17MOL   H41813890   2.404   4.490   6.406  0.2502  0.3468  1.1125
   17MOL   H41913891   2.552   4.647   6.179  0.4044  1.4874  2.6215
   17MOL   H42013892   2.393   4.598   6.155  0.1774 -0.0758  1.1792
   17MOL   H42113893   2.511   4.469   6.172  1.7339 -0.4272 -0.0602
   17MOL   C42213894   1.817   5.031   7.582 -0.4638 -0.0190  0.0447
   17MOL   C42313895   1.791   4.968   0.027 -0.8201 -0.0106 -0.0704
   17MOL   C42413896   1.925   4.937   0.103 -0.2593 -0.2589  0.1857
   17MOL   C42513897   1.913   4.831   0.213 -0.1513 -0.0556  0.4998
   17MOL   C42613898   2.021   4.840   0.324  0.3830 -0.1328 -0.2741
   17MOL   C42713899   2.007   4.724   0.424 -0.3258 -0.0598  0.2434
   17MOL   C42813900   1.873   4.722   0.499 -0.5460  0.1699 -0.4667
   17MOL   C42913901   1.854   4.829   0.609  0.2084  0.3248 -0.3240
   17MOL   C43013902   1.753   4.938   0.562 -0.5867 -0.0482  0.0867
   17MOL   C43113903   1.752   5.053   0.668  0.1126 -0.7316  0.2633
   17MOL   C43213904   1.648   5.163   0.637 -0.1453 -0.4760  0.0337
   17MOL   C43313905   1.665   5.284   0.732  0.8775  0.6992  0.1277
   17MOL   C43413906   1.597   5.413   0.684  0.0970  0.0888  0.5051
   17MOL   C43513907   1.671   5.483   0.570  0.2634 -0.0848 -0.0493
   17MOL   H43613908   1.734   5.100   7.562 -0.4889  0.3251  1.3012
   17MOL   H43713909   1.906   5.092   7.596  0.0958 -0.4740 -1.4707
   17MOL   H43813910   1.746   4.871   0.006  0.1147 -0.5177  0.2216
   17MOL   H43913911   1.964   5.030   0.145  1.3939 -1.1677  0.7024
   17MOL   H44013912   2.006   4.906   0.038 -0.4890 -0.5678  0.0447
   17MOL   H44113913   1.812   4.847   0.252 -0.0076 -1.1714  1.3155
   17MOL   H44213914   1.920   4.731   0.171 -0.2051 -0.7486  2.1267
   17MOL   H44313915   2.030   4.932   0.382  3.4262 -1.1881  1.0308
   17MOL   H44413916   2.120   4.821   0.284  0.5232  0.0257 -0.0032
   17MOL   H44513917   2.094   4.729   0.490 -0.4156  0.5816  0.3199
   17MOL   H44613918   1.993   4.630   0.371  1.0674 -0.6376  0.8694
   17MOL   H44713919   1.782   4.712   0.440 -0.4626 -2.8079 -0.1947
   17MOL   H44813920   1.884   4.632   0.560  1.9210  0.7280 -0.0714
   17MOL   H44913921   1.824   4.778   0.701  1.9677 -0.2142 -0.0258
   17MOL   H45013922   1.947   4.879   0.637 -0.8623  1.3803  1.4177
   17MOL   H45113923   1.796   4.968   0.466  2.1989 -0.2274  1.2089
   17MOL   H45213924   1.658   4.886   0.550 -1.3049  1.1962  0.3214
   17MOL   H45313925   1.746   5.019   0.772 -0.7184 -2.8850 -0.4522
   17MOL   H45413926   1.854   5.092   0.670  0.2401 -1.0792  0.7705
   17MOL   H45513927   1.669   5.184   0.533 -1.8801  0.4873 -0.1272
   17MOL   H45613928   1.552   5.112   0.637  0.7628 -2.2327 -1.6493
   17MOL   H45713929   1.772   5.301   0.744  0.7460  0.3357  1.9392
   17MOL   H45813930   1.617   5.264   0.828  0.8538  1.1402  0.2093
   17MOL   H45913931   1.495   5.390   0.654  1.3788 -1.6491 -2.7000
   17MOL   H46013932   1.586   5.482   0.768  0.3470  2.6455 -1.4734
   17MOL   H46113933   1.626   5.574   0.533 -0.1339 -0.1964  0.1639
   17MOL   H46213934   1.663   5.415   0.485  2.2321  0.5876 -0.7970
   17MOL   H46313935   1.778   5.490   0.593  0.1479  1.1834  0.1167
   17MOL   C46413936   1.702   5.059   0.117  0.0483 -0.3645  0.9624
   17MOL   C46513937   1.552   5.062   0.069  0.0396 -0.5220  0.2229
   17MOL   C46613938   1.476   4.930   0.080 -0.2392 -0.0744  0.2073
   17MOL   C46713939   1.455   4.866   0.215 -0.0450  0.8586  0.8104
   17MOL   C46813940   1.443   4.718   0.202 -0.8108 -0.1739 -0.2808
   17MOL   C46913941   1.417   4.634   0.333  0.2875  0.0266  0.2851
   17MOL   C47013942   1.386   4.482   0.309  0.2331 -0.6004  0.8402
   17MOL   C47113943   1.375   4.404   0.440 -0.4648 -0.1941 -0.2479
   17MOL   C47213944   1.384   4.252   0.429  0.0942 -0.4399  0.4840
   17MOL   C47313945   1.332   4.163   0.541 -0.3045  0.4681 -0.2186
   17MOL   C47413946   1.428   4.154   0.664  0.2571 -0.1579  0.0827
   17MOL   C47513947   1.368   4.049   0.767  0.1052  0.8427 -0.0948
   17MOL   C47613948   1.479   3.990   0.860 -0.0770  0.0171  0.0913
   17MOL   C47713949   1.525   4.090   0.963  0.1504 -0.9207 -0.7897
   17MOL   H47813950   1.749   5.158   0.113  1.1874 -0.9169  0.1838
   17MOL   H47913951   1.712   5.036   0.223 -1.3868  0.1968  1.2200
   17MOL   H48013952   1.545   5.093   7.661 -0.5286 -2.5475 -0.3764
   17MOL   H48113953   1.381   4.943   0.027 -0.6632  1.8209  1.3714
   17MOL   H48213954   1.524   4.861   0.010  0.4213 -0.8883  1.4497
   17MOL   H48313955   1.366   4.906   0.264  0.0698  3.5642 -1.1107
   17MOL   H48413956   1.532   4.891   0.288  0.0560 -1.1664  1.4308
   17MOL   H48513957   1.537   4.681   0.161 -0.9852  0.0196 -0.8533
   17MOL   H48613958   1.369   4.693   0.127 -1.5319 -0.1205  0.4054
   17MOL   H48713959   1.509   4.637   0.392  0.5086  2.8027 -0.1188
   17MOL   H48813960   1.338   4.676   0.395 -2.5624 -2.2413 -1.7114
   17MOL   H48913961   1.292   4.481   0.254  0.4371 -0.7813  0.4861
   17MOL   H49013962   1.460   4.440   0.241  0.3497 -0.8511  1.1237
   17MOL   H49113963   1.450   4.448   0.506  1.2064 -2.1323 -0.8208
   17MOL   H49213964   1.275   4.433   0.472 -0.3155 -0.0143  0.0629
   17MOL   H49313965   1.354   4.213   0.332  2.4163  0.7142 -0.7652
   17MOL   H49413966   1.492   4.233   0.427  0.0613 -0.5826 -0.0756
   17MOL   H49513967   1.239   4.214   0.566  0.0544  0.7931  0.4592
   17MOL   H49613968   1.311   4.069   0.491  1.3245 -1.0257  1.7853
   17MOL   H49713969   1.522   4.113   0.630 -1.1952 -3.6839  0.1785
   17MOL   H49813970   1.450   4.246   0.718  2.0233 -0.1756 -0.5872
   17MOL   H49913971   1.322   3.967   0.711 -0.0227  0.0928  1.0867
   17MOL   H50013972   1.289   4.089   0.830  1.3661  3.3666 -0.0665
   17MOL   H50113973   1.441   3.898   0.905 -1.6269  0.5568 -0.0876
   17MOL   H50213974   1.569   3.950   0.813  0.0151 -0.8589  0.9792
   17MOL   H50313975   1.570   4.029   1.041  2.1928  0.7479 -0.6245
   17MOL   H50413976   1.592   4.166   0.921  0.1246 -1.0721 -1.1063
   17MOL   H50513977   1.451   4.150   1.015 -0.4465 -1.5705 -0.8828
   17MOL   C50613978   1.470   5.172   0.136 -0.2629  0.1116  0.2524
   17MOL   C50713979   1.496   5.312   0.085  0.9091  0.3105  0.3442
   17MOL   C50813980   1.384   5.367   7.679  0.0412  0.2575  0.6021
   17MOL   C50913981   1.354   5.282   7.551 -0.3103  0.5035  0.0119
   17MOL   C51013982   1.469   5.298   7.442  0.3439 -0.3293  0.0438
   17MOL   C51113983   1.438   5.242   7.306  0.4230  0.3605  0.1581
   17MOL   C51213984   1.561   5.251   7.208 -0.2344  0.6705  0.2764
   17MOL   C51313985   1.527   5.167   7.084  0.0938 -0.3342  0.7307
   17MOL   C51413986   1.643   5.146   6.994 -0.9077  0.4830  0.8462
   17MOL   C51513987   1.620   5.096   6.852  0.1158 -0.2326 -0.4355
   17MOL   C51613988   1.736   5.086   6.749 -0.1769 -0.2896  0.3782
   17MOL   C51713989   1.850   4.989   6.757 -0.8587  0.0947  0.2420
   17MOL   C51813990   1.808   4.835   6.732  0.6085  0.1357  0.0469
   17MOL   C51913991   1.774   4.789   6.582 -0.2683 -0.0089  0.4897
   17MOL   H52013992   1.495   5.173   0.242 -1.1363  0.8288  0.4589
   17MOL   H52113993   1.361   5.168   0.134 -0.1827 -1.9776 -0.5924
   17MOL   H52213994   1.592   5.316   0.033  0.7704  0.6279  0.1164
   17MOL   H52313995   1.291   5.376   0.040  0.4255  2.3406  0.9667
   17MOL   H52413996   1.406   5.471   7.655  2.4715  0.1958  2.3636
   17MOL   H52513997   1.347   5.175   7.569 -0.4122 -0.0443 -3.0008
   17MOL   H52613998   1.257   5.312   7.511  0.0444 -0.2188 -1.4395
   17MOL   H52713999   1.567   5.266   7.479  1.9514  2.9246 -1.2136
   17MOL   H52814000   1.493   5.403   7.425 -0.4343 -0.0587  0.5706
   17MOL   H52914001   1.358   5.301   7.260  0.9277  0.0555 -1.1546
   17MOL   H53014002   1.411   5.137   7.314  1.6867 -0.1603 -1.8997
   17MOL   H53114003   1.584   5.354   7.180 -1.1126  0.9137  0.4200
   17MOL   H53214004   1.654   5.217   7.255 -1.6935  2.1768  4.5421
   17MOL   H53314005   1.443   5.210   7.030 -0.0406  3.6993  3.8449
   17MOL   H53414006   1.497   5.069   7.120  2.2734 -1.9743 -1.7518
   17MOL   H53514007   1.717   5.080   7.041  1.4733 -0.4395 -3.9268
   17MOL   H53614008   1.688   5.245   6.996 -0.5218  0.3181  0.5308
   17MOL   H53714009   1.582   4.994   6.860  1.4698 -0.6535  0.8557
   17MOL   H53814010   1.545   5.162   6.809 -1.6190 -2.2121 -0.5399
   17MOL   H53914011   1.672   5.066   6.663 -3.5184  5.2101  1.3059
   17MOL   H54014012   1.780   5.185   6.739 -0.8070 -0.0935 -0.4477
   17MOL   H54114013   1.880   4.995   6.862  1.3665  1.1613 -0.4077
   17MOL   H54214014   1.940   5.005   6.697  0.6971  0.8075  2.6793
   17MOL   H54314015   1.727   4.794   6.791  1.1861 -2.3108 -0.8016
   17MOL   H54414016   1.900   4.781   6.754  1.0565  1.3758  1.2716
   17MOL   H54514017   1.850   4.821   6.511 -3.6306 -0.5702 -3.5031
   17MOL   H54614018   1.764   4.680   6.579 -0.5176  0.0139  0.4533
   17MOL   H54714019   1.677   4.833   6.557 -0.8361 -1.2641  0.4549
   17MOL   C54814020   1.521   5.409   0.199 -0.1478  0.0227 -0.7346
   17MOL   C54914021   1.544   5.559   0.178  0.4313  0.2358 -0.3245
   17MOL   C55014022   1.451   5.647   0.260  0.8479 -0.1847  0.0785
   17MOL   C55114023   1.449   5.799   0.219 -0.2413  0.4166  0.4980
   17MOL   C55214024   1.459   5.825   0.066  0.5616 -0.2490  0.1740
   17MOL   C55314025   1.342   5.759   7.675  0.0796  0.0303  0.3136
   17MOL   C55414026   1.383   5.738   7.530  0.2533  0.6717  0.0157
   17MOL   C55514027   1.261   5.682   7.437 -0.2354 -0.2729 -0.4979
   17MOL   C55614028   1.312   5.683   7.290 -0.7161  0.5948 -0.6634
   17MOL   C55714029   1.204   5.609   7.200 -0.3890  0.1199  0.0536
   17MOL   C55814030   1.277   5.564   7.068  0.2703 -0.2148  0.5782
   17MOL   C55914031   1.186   5.463   6.986 -0.5958  0.0120 -0.1550
   17MOL   C56014032   1.249   5.429   6.852  0.0333 -0.2082  0.3700
   17MOL   C56114033   1.176   5.307   6.792  0.1485  0.2300 -0.6444
   17MOL   H56214034   1.434   5.403   0.263  0.9707 -0.1225  0.7941
   17MOL   H56314035   1.600   5.370   0.263 -2.1910 -2.9097  0.0763
   17MOL   H56414036   1.518   5.589   0.077 -0.2661 -2.8410 -1.1285
   17MOL   H56514037   1.349   5.610   0.250 -0.2109  1.9064  2.6149
   17MOL   H56614038   1.476   5.646   0.366  0.6961  0.4091  0.1206
   17MOL   H56714039   1.528   5.851   0.273  0.3534 -0.2092  0.2364
   17MOL   H56814040   1.356   5.846   0.252 -1.4495 -1.1101 -0.6488
   17MOL   H56914041   1.457   5.933   0.050 -0.9012 -0.3473 -0.3258
   17MOL   H57014042   1.554   5.787   0.028  0.4864  1.2139 -1.5598
   17MOL   H57114043   1.250   5.819   7.677  1.3328  1.9815  3.0226
   17MOL   H57214044   1.317   5.662   0.021  0.7121 -1.2821 -2.3130
   17MOL   H57314045   1.410   5.841   7.508  2.1771  0.1757 -0.0026
   17MOL   H57414046   1.475   5.681   7.519 -0.1674  0.2085 -1.2162
   17MOL   H57514047   1.164   5.730   7.448  0.6477  1.5771 -0.4662
   17MOL   H57614048   1.240   5.578   7.461  2.4559 -1.3173 -2.3323
   17MOL   H57714049   1.406   5.630   7.279 -1.4287 -0.2390 -3.0550
   17MOL   H57814050   1.340   5.787   7.272  1.1058  0.2000 -0.1601
   17MOL   H57914051   1.165   5.523   7.256 -0.3917 -0.1895 -0.4229
   17MOL   H58014052   1.119   5.664   7.159  0.9537  0.3592 -2.4897
   17MOL   H58114053   1.367   5.508   7.091  0.3057  0.3808  1.9188
   17MOL   H58214054   1.300   5.654   7.011 -0.6489 -1.6078 -2.0896
   17MOL   H58314055   1.175   5.371   7.045 -0.9913 -0.6269 -1.2195
   17MOL   H58414056   1.094   5.519   6.971 -0.0744  1.6600  2.5443
   17MOL   H58514057   1.262   5.523   6.798 -1.7684 -1.0540 -1.5924
   17MOL   H58614058   1.350   5.394   6.871  0.4808  0.9276  0.1562
   17MOL   H58714059   1.076   5.339   6.763 -0.3150  0.1342  0.8071
   17MOL   H58814060   1.224   5.264   6.704  0.8283  0.6856 -0.5050
   17MOL   H58914061   1.171   5.235   6.873 -0.4675  2.0865  1.0185
   17MOL   C59014062   1.700   5.595   0.198 -0.3004 -1.0721  0.6326
   17MOL   C59114063   1.803   5.508   0.116 -0.1597 -0.4474  0.0046
   17MOL   C59214064   1.780   5.525   7.658 -0.5980 -0.9142 -0.8374
   17MOL   C59314065   1.857   5.426   7.571 -0.0229 -0.9952  0.5933
   17MOL   C59414066   1.835   5.471   7.424  0.1675 -0.0772  0.4048
   17MOL   C59514067   1.932   5.395   7.334  0.1851 -0.5570  0.0761
   17MOL   C59614068   1.915   5.420   7.188 -0.8720 -0.8326  0.3510
   17MOL   C59714069   2.019   5.345   7.100  0.2865  0.1667 -0.5660
   17MOL   C59814070   2.002   5.351   6.949  0.4291 -0.0101 -0.0082
   17MOL   C59914071   2.102   5.254   6.876 -0.0402  0.0108  0.2581
   17MOL   C60014072   2.104   5.269   6.727 -0.2729 -0.1348 -0.7286
   17MOL   C60114073   2.194   5.162   6.661  0.7922 -0.2059  0.8323
   17MOL   C60214074   2.180   5.160   6.509 -0.5924 -0.1091 -0.1892
   17MOL   C60314075   2.274   5.057   6.451  0.2721  0.4406  0.1505
   17MOL   H60414076   1.725   5.598   0.304  3.4259  1.9045 -0.2044
   17MOL   H60514077   1.717   5.701   0.175 -2.3351 -0.7544  0.5660
   17MOL   H60614078   1.792   5.402   0.136 -1.7891 -0.0890  1.1853
   17MOL   H60714079   1.795   5.627   7.624 -0.8693 -1.0190 -1.2698
   17MOL   H60814080   1.674   5.503   7.646 -0.1473 -2.8601 -1.3947
   17MOL   H60914081   1.834   5.320   7.578 -2.0697 -0.5060  1.5732
   17MOL   H61014082   1.964   5.432   7.592  0.3894 -1.6393 -1.2235
   17MOL   H61114083   1.842   5.578   7.402 -0.1755  0.0038  0.6774
   17MOL   H61214084   1.739   5.436   7.385  0.1955  0.5705 -0.2684
   17MOL   H61314085   1.921   5.288   7.351  3.0192 -0.4985  2.6552
   17MOL   H61414086   2.037   5.402   7.361  0.8702 -3.2427 -1.6385
   17MOL   H61514087   1.812   5.391   7.167 -0.9534  0.4117 -0.9974
   17MOL   H61614088   1.920   5.526   7.166 -0.2401 -0.5674  1.7338
   17MOL   H61714089   2.124   5.360   7.123  0.2031  0.4588 -0.3682
   17MOL   H61814090   1.990   5.243   7.125 -1.8861  0.9034 -0.0105
   17MOL   H61914091   1.896   5.335   6.928  0.2286  2.4381 -1.0257
   17MOL   H62014092   2.027   5.449   6.908 -1.5474  0.1429 -0.8991
   17MOL   H62114093   2.197   5.287   6.916 -0.5509  0.9259  0.7328
   17MOL   H62214094   2.080   5.151   6.905  0.8495 -0.1460  0.3950
   17MOL   H62314095   2.124   5.374   6.708 -1.7470  0.7344  2.2894
   17MOL   H62414096   2.000   5.254   6.698 -0.7445 -1.3517  1.5014
   17MOL   H62514097   2.166   5.065   6.703  1.4593  0.2600  2.3975
   17MOL   H62614098   2.293   5.193   6.696  1.1551 -0.4909  0.0665
   17MOL   H62714099   2.080   5.126   6.482 -0.6701  0.1713 -0.2605
   17MOL   H62814100   2.198   5.257   6.464 -0.4515 -0.9655 -2.0347
   17MOL   H62914101   2.249   4.952   6.467 -2.3930  0.8802 -0.9516
   17MOL   H63014102   2.375   5.062   6.493  0.5583  0.5343 -0.5263
   17MOL   H63114103   2.284   5.074   6.343  0.6149 -0.9956 -0.0631
   17MOL   C63214104   1.950   5.556   0.149 -0.6343 -0.2063 -0.1405
   17MOL   C63314105   2.012   5.534   0.288 -0.1748  0.2000 -0.1664
   17MOL   C63414106   2.039   5.377   0.300 -0.6028  0.2560 -0.4341
   17MOL   C63514107   2.096   5.328   0.438 -0.4493  0.0962  0.3553
   17MOL   C63614108   2.192   5.210   0.417 -0.3015  0.1577  0.2038
   17MOL   C63714109   2.203   5.111   0.534  0.5643 -0.1696  0.7690
   17MOL   C63814110   2.308   4.996   0.508  0.1002 -0.0307  0.1912
   17MOL   C63914111   2.362   4.920   0.624  0.3167 -0.1716  0.6755
   17MOL   C64014112   2.464   4.815   0.582  0.2555  0.3955  0.3002
   17MOL   C64114113   2.488   4.711   0.694 -0.4351 -0.2866  0.1973
   17MOL   C64214114   2.585   4.602   0.657  0.0631 -0.1905 -0.2558
   17MOL   C64314115   2.643   4.510   0.769 -0.0026 -0.5622 -0.4763
   17MOL   C64414116   2.707   4.582   0.885  0.1254 -0.2933 -0.1809
   17MOL   C64514117   2.726   4.504   1.013 -0.4003 -0.1650  0.3413
   17MOL   H64614118   1.943   5.665   0.136 -1.1483 -0.0496  1.3213
   17MOL   H64714119   2.016   5.508   0.077 -1.2176 -0.7764 -0.3008
   17MOL   H64814120   1.944   5.557   0.369 -2.5948 -0.0841 -2.0655
   17MOL   H64914121   1.946   5.321   0.295 -0.1781 -0.4087 -0.9388
   17MOL   H65014122   2.114   5.340   0.230 -1.2772 -0.3368 -0.8545
   17MOL   H65114123   2.013   5.313   0.507  0.0614  1.7281  1.3313
   17MOL   H65214124   2.157   5.400   0.492 -0.4986  0.3531  0.0688
   17MOL   H65314125   2.291   5.246   0.393 -0.0013 -0.5359  0.3914
   17MOL   H65414126   2.155   5.158   0.328 -0.5101  2.1356 -0.8890
   17MOL   H65514127   2.238   5.169   0.618 -1.3657 -1.8056  2.7761
   17MOL   H65614128   2.110   5.062   0.565  0.7220 -1.2300 -0.3946
   17MOL   H65714129   2.250   4.929   0.445 -0.8806  0.4173  0.6078
   17MOL   H65814130   2.389   5.041   0.451 -1.8983  1.9661 -1.1623
   17MOL   H65914131   2.284   4.881   0.689 -0.6842 -0.5510 -0.7159
   17MOL   H66014132   2.409   4.991   0.692  0.0740  2.0312 -1.3795
   17MOL   H66114133   2.568   4.844   0.563  0.4182 -1.5307 -2.0010
   17MOL   H66214134   2.424   4.765   0.494 -0.9477  0.7046  0.6702
   17MOL   H66314135   2.520   4.771   0.780 -1.2823 -0.1923  0.4527
   17MOL   H66414136   2.399   4.659   0.729  0.8110 -0.3386  3.4810
   17MOL   H66514137   2.547   4.533   0.581 -1.1682 -0.9517  1.0390
   17MOL   H66614138   2.672   4.658   0.623  0.0676 -0.4033 -0.6034
   17MOL   H66714139   2.711   4.435   0.728 -1.2382 -1.6099 -0.6587
   17MOL   H66814140   2.559   4.459   0.817  1.6389  0.3439  3.5435
   17MOL   H66914141   2.651   4.671   0.912  2.1390  0.7612  0.5786
   17MOL   H67014142   2.800   4.625   0.847 -0.1691  0.9808  0.5035
   17MOL   H67114143   2.630   4.496   1.064 -0.2705  0.2342  0.6523
   17MOL   H67214144   2.767   4.406   0.993  3.3556  1.3308  0.3770
   17MOL   H67314145   2.790   4.572   1.069 -1.2105  2.2981 -1.5846
   17MOL   C67414146   2.141   5.623   0.312  0.4004 -1.0898 -0.2597
   17MOL   C67514147   2.120   5.754   0.401  0.2527 -0.1727  0.5084
   17MOL   C67614148   2.007   5.836   0.344  0.0526  0.7297  0.5186
   17MOL   C67714149   2.004   5.978   0.389 -0.4243  0.4661 -0.9211
   17MOL   C67814150   1.899   6.063   0.313  0.1701  0.8355  0.3148
   17MOL   C67914151   1.751   6.029   0.341  0.2899 -0.0504  0.0749
   17MOL   C68014152   1.645   6.126   0.289 -0.1192 -0.3041 -0.1501
   17MOL   C68114153   1.664   6.150   0.139  0.2145  0.2448  0.6183
   17MOL   C68214154   1.549   6.230   0.075 -0.3507  0.2354 -0.3367
   17MOL   C68314155   1.527   6.203   7.615 -0.4854  0.3770  0.1698
   17MOL   C68414156   1.413   6.288   7.552  0.4781  0.2732  0.2605
   17MOL   C68514157   1.470   6.418   7.499  0.3564 -0.1446  0.4972
   17MOL   C68614158   1.363   6.526   7.490 -0.4367  0.1536 -0.3423
   17MOL   C68714159   1.416   6.672   7.487 -0.2336  0.1022  0.0439
   17MOL   H68814160   2.178   5.676   0.224  1.1210 -0.8541  0.1847
   17MOL   H68914161   2.227   5.566   0.349  1.7462  1.9550  1.5167
   17MOL   H69014162   2.217   5.804   0.389  1.1400 -2.1731 -0.9606
   17MOL   H69114163   2.012   5.838   0.235 -2.6854  1.1430  0.3724
   17MOL   H69214164   1.911   5.789   0.366  0.5596 -0.7945 -0.3841
   17MOL   H69314165   1.982   5.979   0.495  1.2759 -2.4543 -0.4566
   17MOL   H69414166   2.095   6.038   0.382  0.9149 -1.2681  1.0252
   17MOL   H69514167   1.903   6.166   0.348  1.3010  0.5980  0.8983
   17MOL   H69614168   1.909   6.054   0.205 -1.5164  0.3672  0.1843
   17MOL   H69714169   1.730   5.928   0.307  0.6546  0.3827 -1.4853
   17MOL   H69814170   1.731   6.043   0.447 -0.2099 -1.1677  0.1343
   17MOL   H69914171   1.550   6.075   0.309 -0.1240  0.2653  1.3196
   17MOL   H70014172   1.637   6.217   0.348 -1.3930  0.2512 -1.1333
   17MOL   H70114173   1.758   6.201   0.120 -0.5311  0.8071 -1.8574
   17MOL   H70214174   1.675   6.058   0.080 -0.0903  0.3387  0.4114
   17MOL   H70314175   1.455   6.207   0.125  0.2463  0.9402  1.1508
   17MOL   H70414176   1.567   6.335   0.098 -1.1524  0.5809 -1.2641
   17MOL   H70514177   1.503   6.098   7.600 -1.3560  0.5578  0.3032
   17MOL   H70614178   1.621   6.210   7.559 -0.8229 -1.6810 -0.7005
   17MOL   H70714179   1.338   6.308   7.629 -1.1413  0.9134 -1.4551
   17MOL   H70814180   1.363   6.223   7.481 -1.7196 -0.1479  2.1349
   17MOL   H70914181   1.519   6.414   7.402  0.9394 -0.5619  0.8035
   17MOL   H71014182   1.543   6.457   7.570 -0.3576 -1.5945  2.0793
   17MOL   H71114183   1.299   6.507   7.404  0.4393 -2.5450 -0.4377
   17MOL   H71214184   1.299   6.509   7.577  0.7346  2.1146  0.9621
   17MOL   H71314185   1.474   6.692   7.397  0.3864 -1.5137  0.0731
   17MOL   H71414186   1.330   6.739   7.488 -0.0070  0.3945  2.1686
   17MOL   H71514187   1.476   6.697   7.575  1.0378  0.8515 -1.0126
   17MOL   C71614188   2.101   5.723   0.555  0.4501 -0.5043  0.1734
   17MOL   C71714189   2.231   5.677   0.635  0.0261 -0.5760 -0.1477
   17MOL   C71814190   2.347   5.778   0.623  0.3626  0.2015 -0.7434
   17MOL   C71914191   2.315   5.926   0.663  0.6800  0.0720  0.2584
   17MOL   C72014192   2.443   6.010   0.679  0.3106  0.6004  0.2012
   17MOL   C72114193   2.406   6.145   0.728  1.4867  0.4379 -0.0125
   17MOL   C72214194   2.369   6.239   0.611  0.0107 -0.0577 -0.1168
   17MOL   C72314195   2.344   6.388   0.658  0.1548  0.2629  0.1016
   17MOL   C72414196   2.310   6.480   0.544 -0.4660 -0.2337 -0.6422
   17MOL   C72514197   2.292   6.627   0.586 -0.1944  0.3272  0.0075
   17MOL   C72614198   2.315   6.725   0.469 -0.0770  0.2364 -0.1633
   17MOL   C72714199   2.336   6.866   0.519 -0.2926 -0.5557  0.3471
   17MOL   C72814200   2.449   6.900   0.617  0.0898  0.1101  0.5103
   17MOL   C72914201   2.589   6.840   0.589 -0.0326  0.0025  0.3112
   17MOL   H73014202   2.063   5.811   0.607  2.1111  0.2722  0.0879
   17MOL   H73114203   2.013   5.659   0.566 -0.0581  0.2421  0.4368
   17MOL   H73214204   2.272   5.589   0.587 -0.6124 -0.8780 -0.1488
   17MOL   H73314205   2.387   5.771   0.522 -0.3296  0.0452 -1.0083
   17MOL   H73414206   2.436   5.763   0.684 -0.2720  1.6019  0.5726
   17MOL   H73514207   2.251   5.972   0.587  1.2029 -1.8796 -1.3976
   17MOL   H73614208   2.260   5.928   0.758 -0.9527  1.2215 -0.6727
   17MOL   H73714209   2.499   5.954   0.754  1.0907 -0.8191 -1.3778
   17MOL   H73814210   2.504   6.012   0.588 -1.1724  0.9189 -0.7950
   17MOL   H73914211   2.331   6.146   0.807  0.3803 -0.4044 -1.0422
   17MOL   H74014212   2.501   6.172   0.774  2.1256 -2.8470  0.6716
   17MOL   H74114213   2.454   6.247   0.543  1.8073  1.1195  2.2174
   17MOL   H74214214   2.278   6.200   0.565 -0.5814  2.5743 -1.2588
   17MOL   H74314215   2.426   6.421   0.723  0.9385 -1.4559  0.0130
   17MOL   H74414216   2.258   6.379   0.723 -0.6054 -2.1374 -1.1909
   17MOL   H74514217   2.375   6.480   0.457 -1.2959  0.2083 -1.2730
   17MOL   H74614218   2.221   6.442   0.494 -0.9206  0.2746 -0.2178
   17MOL   H74714219   2.186   6.640   0.612 -0.6854 -4.2129  0.6134
   17MOL   H74814220   2.351   6.646   0.676  0.3512 -1.5506  0.0717
   17MOL   H74914221   2.404   6.707   0.409 -1.0253  1.9452 -2.1743
   17MOL   H75014222   2.233   6.718   0.397 -1.2955 -0.7698  1.2900
   17MOL   H75114223   2.354   6.922   0.427 -3.7763  1.0209  0.5290
   17MOL   H75214224   2.243   6.904   0.561 -1.0719 -0.6867 -1.1989
   17MOL   H75314225   2.412   6.872   0.716 -1.1241 -2.6929 -0.6693
   17MOL   H75414226   2.457   7.008   0.623  1.8698 -0.0696  1.8472
   17MOL   H75514227   2.633   6.855   0.491 -1.8846  0.0274 -0.5294
   17MOL   H75614228   2.581   6.733   0.610  0.0083  0.1972  1.3706
   17MOL   H75714229   2.658   6.884   0.662 -1.4948  2.1935  0.4022
   17MOL   C75814230   2.206   5.646   0.787 -0.3408  0.3437  0.7350
   17MOL   C75914231   2.114   5.516   0.795 -0.7740  0.5094 -0.1048
   17MOL   C76014232   2.176   5.398   0.868  0.2086 -0.3418 -0.7877
   17MOL   C76114233   2.094   5.266   0.862 -0.3674  0.3822  0.0064
   17MOL   C76214234   2.195   5.151   0.909 -0.1474 -0.6306  0.1643
   17MOL   C76314235   2.129   5.016   0.917 -1.0659  0.2192 -0.2917
   17MOL   C76414236   2.036   4.989   1.037 -0.5139 -0.1177 -0.1663
   17MOL   C76514237   1.985   4.840   1.049  0.9641 -0.0401 -0.2336
   17MOL   C76614238   1.869   4.822   1.152  0.3974 -0.0752 -0.3891
   17MOL   C76714239   1.912   4.849   1.303  0.2206  0.0273  0.3998
   17MOL   C76814240   1.819   4.785   1.412  0.2185 -0.1495  0.2148
   17MOL   C76914241   1.862   4.811   1.557  0.1376 -0.1589  0.0275
   17MOL   C77014242   1.791   4.943   1.617 -0.6012  0.2740 -0.1369
   17MOL   C77114243   1.846   4.968   1.749  0.2179  0.2251 -0.5955
   17MOL   H77214244   2.299   5.614   0.834  1.6147  1.5341 -2.1833
   17MOL   H77314245   2.171   5.729   0.850  0.6109 -0.6343  2.6090
   17MOL   H77414246   2.084   5.485   0.695 -2.7455 -0.7953  0.8408
   17MOL   H77514247   2.273   5.380   0.821 -0.4340 -1.9416 -1.5241
   17MOL   H77614248   2.199   5.420   0.972 -0.5847  0.8567 -0.8511
   17MOL   H77714249   2.007   5.267   0.928 -0.0198 -1.8529  0.5534
   17MOL   H77814250   2.055   5.246   0.762  0.2334  0.9585 -0.3423
   17MOL   H77914251   2.251   5.175   1.000 -1.1336  1.2994  0.2923
   17MOL   H78014252   2.270   5.158   0.830 -0.8692  0.9806 -0.4010
   17MOL   H78114253   2.205   4.938   0.927  1.6537  2.7881 -0.0393
   17MOL   H78214254   2.074   4.999   0.825  0.5949 -1.9268 -0.9292
   17MOL   H78314255   2.101   5.006   1.123  3.2111 -2.7427 -2.2993
   17MOL   H78414256   1.952   5.058   1.030 -0.8718 -0.6588 -1.2605
   17MOL   H78514257   2.057   4.763   1.080  0.9871 -0.3039 -0.9305
   17MOL   H78614258   1.942   4.810   0.953  0.4982 -1.9212  0.5424
   17MOL   H78714259   1.839   4.717   1.144  1.4840 -0.7759  3.5810
   17MOL   H78814260   1.782   4.883   1.127  0.5932 -0.6022 -2.4638
   17MOL   H78914261   1.921   4.955   1.328  1.2645 -0.3048  1.4934
   17MOL   H79014262   2.012   4.808   1.321  0.2038  0.3292  1.2231
   17MOL   H79114263   1.716   4.818   1.403  0.9539  1.4569 -2.9282
   17MOL   H79214264   1.815   4.677   1.392  1.2595 -0.3624  1.1489
   17MOL   H79314265   1.840   4.719   1.611  2.9396 -1.5940 -1.1395
   17MOL   H79414266   1.970   4.821   1.565  0.1706 -0.0177 -0.5788
   17MOL   H79514267   1.828   5.027   1.559 -0.9132  0.5961  0.1310
   17MOL   H79614268   1.682   4.932   1.614 -0.8462  2.6963 -2.0112
   17MOL   H79714269   1.821   5.064   1.794  0.0103  0.2607 -0.7795
   17MOL   H79814270   1.800   4.897   1.818  0.5559  0.3985 -0.1914
   17MOL   H79914271   1.953   4.962   1.763  0.3327  3.8325  0.7168
   17MOL   C80014272   1.976   5.557   0.846 -0.1408 -0.1047 -0.2292
   17MOL   C80114273   1.947   5.583   0.994  0.2398 -0.4811  0.0361
   17MOL   C80214274   1.811   5.541   1.052 -0.4922 -0.4803 -0.2494
   17MOL   C80314275   1.799   5.406   1.119 -0.6823  0.4943 -0.3055
   17MOL   C80414276   1.663   5.373   1.168  0.1471 -0.2234 -0.1028
   17MOL   C80514277   1.645   5.225   1.203 -0.5580 -0.2308  0.0986
   17MOL   C80614278   1.496   5.196   1.252  0.4105  0.7239  0.6423
   17MOL   C80714279   1.468   5.045   1.288 -0.6966 -0.1549 -0.1148
   17MOL   C80814280   1.322   5.008   1.319 -0.3645 -0.1816 -0.6208
   17MOL   C80914281   1.263   5.105   1.420 -0.2036 -0.0974 -0.6957
   17MOL   C81014282   1.123   5.062   1.455 -0.1070  0.2682 -0.1226
   17MOL   C81114283   1.060   5.136   1.573 -0.0210  0.7104  0.1050
   17MOL   C81214284   0.918   5.091   1.597  0.6044 -0.0018  0.1496
   17MOL   C81314285   0.820   5.128   1.484 -0.8384  0.1434  0.0073
   17MOL   H81414286   1.911   5.474   0.818  1.4596 -1.8794  1.1414
   17MOL   H81514287   1.931   5.643   0.796 -1.2176  0.7207  2.0808
   17MOL   H81614288   1.955   5.691   1.004  0.9499 -0.6636  1.6102
   17MOL   H81714289   1.740   5.552   0.970 -0.7318  0.5835  0.0981
   17MOL   H81814290   1.784   5.614   1.128  1.7191 -0.7206  0.8085
   17MOL   H81914291   1.873   5.393   1.199  0.0022  1.4594 -0.7703
   17MOL   H82014292   1.815   5.331   1.042 -2.1833  1.2393 -1.3648
   17MOL   H82114293   1.634   5.430   1.256 -0.6378 -1.2070  0.2987
   17MOL   H82214294   1.581   5.401   1.101  0.3420  2.5026  0.7404
   17MOL   H82314295   1.711   5.193   1.284  1.7619  2.7537 -0.4740
   17MOL   H82414296   1.653   5.171   1.109 -0.9282  0.0244 -0.0790
   17MOL   H82514297   1.465   5.263   1.332  1.9111 -0.4966  2.2542
   17MOL   H82614298   1.431   5.218   1.166  2.8875 -0.0208 -1.4920
   17MOL   H82714299   1.488   4.982   1.201  0.4782 -1.3565  0.9986
   17MOL   H82814300   1.534   5.011   1.368  0.8516 -0.4737 -1.4864
   17MOL   H82914301   1.264   4.987   1.229  0.4891 -1.6087 -0.8545
   17MOL   H83014302   1.325   4.907   1.360  2.1291 -0.4023 -1.2579
   17MOL   H83114303   1.273   5.199   1.367 -2.4909  0.4699 -0.1581
   17MOL   H83214304   1.329   5.115   1.506 -3.4948  1.2462  1.7637
   17MOL   H83314305   1.059   5.077   1.367 -2.2079 -1.6121  1.0370
   17MOL   H83414306   1.130   4.954   1.460  1.8387  0.3790 -0.0101
   17MOL   H83514307   1.066   5.243   1.552  0.6474  0.6051 -0.2459
   17MOL   H83614308   1.117   5.106   1.661  1.0395 -0.5972 -0.9938
   17MOL   H83714309   0.912   4.983   1.613 -0.5166  0.1863  1.0368
   17MOL   H83814310   0.874   5.131   1.688 -0.1760  1.7924 -0.9950
   17MOL   H83914311   0.837   5.061   1.399  2.3274  1.1160 -0.1718
   17MOL   H84014312   0.716   5.115   1.514 -0.0409 -2.0085  1.9419
   17MOL   H84114313   0.833   5.230   1.449 -1.1701 -0.3085 -1.4861
   17MOL   H84214314   2.032   5.542   1.049 -0.6962 -1.0754  1.0847
   18MOL     C114315   2.593   7.196   4.601  0.4003 -0.5609 -0.0905
   18MOL     C214316   2.677   7.305   4.669  0.5502 -0.1697 -0.0468
   18MOL     C314317   2.825   7.242   4.678 -0.4699  0.0457  0.3177
   18MOL     C414318   2.849   7.169   4.810  1.0217 -0.3463  0.4959
   18MOL     C514319   2.984   7.096   4.797 -0.1065  0.2937  0.6260
   18MOL     C614320   3.012   7.001   4.913  0.6791 -0.4160 -0.1601
   18MOL     C714321   3.030   7.072   5.049 -0.0406 -0.0484  0.1382
   18MOL     C814322   3.090   6.988   5.154 -0.1862 -0.0407 -0.4970
   18MOL     C914323   3.010   6.866   5.194 -0.1136 -0.1450 -0.3891
   18MOL    C1014324   3.091   6.783   5.291  0.8882 -0.1863 -0.4186
   18MOL    C1114325   3.028   6.646   5.315  0.0562  0.2013  0.3669
   18MOL    C1214326   3.124   6.543   5.367 -0.3842 -0.2524 -0.2110
   18MOL    C1314327   3.046   6.405   5.378 -0.7557 -0.5949  0.3367
   18MOL    C1414328   3.125   6.301   5.470  0.3171 -0.5229 -0.5435
   18MOL    H1514329   2.485   7.205   4.615  0.5406  1.9530 -0.3714
   18MOL    H1614330   2.613   7.096   4.640 -2.7759 -1.6999 -1.1643
   18MOL    H1714331   2.642   7.321   4.771  0.6856 -0.9829  0.1282
   18MOL    H1814332   2.829   7.180   4.588  0.9808 -2.5012  2.0661
   18MOL    H1914333   2.900   7.322   4.673  0.8351 -1.2040 -0.6252
   18MOL    H2014334   2.766   7.105   4.838  0.4384 -0.1986 -0.8476
   18MOL    H2114335   2.856   7.247   4.886  4.1499  1.3167 -1.3858
   18MOL    H2214336   3.072   7.156   4.773  0.9447 -1.1913  0.7556
   18MOL    H2314337   2.987   7.025   4.714 -1.1407 -0.8766  1.5844
   18MOL    H2414338   3.109   6.956   4.894  0.1542 -1.2835 -0.8097
   18MOL    H2514339   2.945   6.915   4.925 -0.0233  0.2008  0.4295
   18MOL    H2614340   3.095   7.160   5.053  1.2247 -1.0431  3.5062
   18MOL    H2714341   2.930   7.101   5.081  0.0959  1.4396 -0.7529
   18MOL    H2814342   3.098   7.044   5.247 -1.3300 -0.0178 -0.4140
   18MOL    H2914343   3.188   6.950   5.126 -0.8173 -0.2485 -2.4332
   18MOL    H3014344   2.913   6.903   5.226  0.9233  3.9265 -1.6448
   18MOL    H3114345   3.002   6.811   5.100  0.3539  1.2787 -1.2701
   18MOL    H3214346   3.191   6.770   5.249  0.8439 -0.4106 -0.4520
   18MOL    H3314347   3.115   6.842   5.380  0.9089  1.3875 -1.4419
   18MOL    H3414348   2.949   6.669   5.387 -0.9493  2.7560 -1.4884
   18MOL    H3514349   2.987   6.616   5.219 -1.7220 -0.1200  1.2092
   18MOL    H3614350   3.179   6.569   5.458 -1.8754  0.4547  0.5208
   18MOL    H3714351   3.213   6.531   5.305 -0.5956  1.7800 -0.9534
   18MOL    H3814352   2.945   6.421   5.417 -1.0743 -0.4193 -0.5232
   18MOL    H3914353   3.039   6.363   5.277 -2.0228 -4.3810  1.8912
   18MOL    H4014354   3.224   6.280   5.430  0.8625 -1.2544  1.1630
   18MOL    H4114355   3.145   6.339   5.570  0.3281 -2.0289  0.0340
   18MOL    H4214356   3.072   6.206   5.476 -1.3464  0.2914 -1.8874
   18MOL    H4314357   2.605   7.180   4.494  2.5905 -1.2055  0.2116
   18MOL    C4414358   2.665   7.434   4.580  0.2392 -0.3971 -0.2848
   18MOL    C4514359   2.654   7.566   4.669  0.1336  0.6661 -0.1537
   18MOL    C4614360   2.615   7.688   4.577 -0.1799  0.4172 -0.5787
   18MOL    C4714361   2.716   0.025   4.466 -0.0674 -0.1570 -0.3570
   18MOL    C4814362   2.671   0.123   4.362 -0.7530 -0.2172 -0.3394
   18MOL    C4914363   2.793   0.162   4.275 -0.0458 -0.2469  0.4820
   18MOL    C5014364   2.748   0.249   4.152 -0.3275  0.1326 -0.0911
   18MOL    C5114365   2.710   0.393   4.177 -0.4353 -0.7796 -0.0793
   18MOL    C5214366   2.818   0.486   4.241 -0.0092  0.5675 -0.0838
   18MOL    C5314367   2.759   0.632   4.247  0.3850  0.7561  1.2537
   18MOL    C5414368   2.861   0.734   4.301 -0.5425  0.0134 -0.3743
   18MOL    C5514369   2.965   0.770   4.197  0.0557  0.0892  0.2196
   18MOL    C5614370   3.019   0.910   4.207 -0.0500  0.4214 -0.1625
   18MOL    C5714371   3.128   0.937   4.105 -0.5922 -0.1578  0.4195
   18MOL    H5814372   2.750   7.432   4.512  2.0928 -1.3290  2.0092
   18MOL    H5914373   2.576   7.433   4.517 -0.6499 -1.4014  0.9533
   18MOL    H6014374   2.571   7.542   4.736 -0.7602  0.0654 -1.4530
   18MOL    H6114375   2.522   7.659   4.528 -2.6483  0.4873  3.7823
   18MOL    H6214376   2.589   0.076   4.641 -1.6481 -1.2885  1.1118
   18MOL    H6314377   2.743   7.625   4.421  0.7849  0.5142 -1.2942
   18MOL    H6414378   2.809   0.069   4.500 -0.2540 -0.3651  0.4450
   18MOL    H6514379   2.644   0.210   4.421 -1.8689 -0.9711  0.2724
   18MOL    H6614380   2.584   0.087   4.309 -1.1877  1.7734 -0.9991
   18MOL    H6714381   2.867   0.212   4.337 -0.1530  0.9169 -0.3110
   18MOL    H6814382   2.831   0.064   4.246 -0.4503 -0.5425  0.9381
   18MOL    H6914383   2.828   0.256   4.078  0.1469 -1.1046  0.2889
   18MOL    H7014384   2.669   0.196   4.100 -0.6821  0.4542  0.1176
   18MOL    H7114385   2.627   0.386   4.248 -1.0128 -0.3318 -0.7075
   18MOL    H7214386   2.659   0.446   4.097  1.4479 -0.6019 -1.1947
   18MOL    H7314387   2.851   0.462   4.342 -0.4339  3.0445  0.7017
   18MOL    H7414388   2.906   0.493   4.178  0.6667  0.7573  0.8700
   18MOL    H7514389   2.685   0.611   4.324  2.1329  1.5790  3.1855
   18MOL    H7614390   2.705   0.668   4.160  3.3646 -0.2982 -1.1160
   18MOL    H7714391   2.910   0.692   4.389 -0.7214 -2.5737 -1.4558
   18MOL    H7814392   2.810   0.823   4.339  0.3968  0.0583  0.8372
   18MOL    H7914393   3.039   0.691   4.184 -0.3259 -0.4153  1.0672
   18MOL    H8014394   2.910   0.778   4.102 -0.8228  2.6091  0.9087
   18MOL    H8114395   3.060   0.918   4.308 -0.0235 -1.1605 -0.0390
   18MOL    H8214396   2.945   0.991   4.199 -0.9663 -0.3243  0.6264
   18MOL    H8314397   3.154   1.043   4.111 -3.5081  0.4748  2.9170
   18MOL    H8414398   3.100   0.911   4.003 -0.6027 -1.7770  0.8195
   18MOL    H8514399   3.216   0.876   4.129 -0.4449  0.0774  0.4774
   18MOL    C8614400   2.784   7.597   4.747 -0.6859  0.0455 -0.2212
   18MOL    C8714401   2.788   0.034   4.827  0.3963  0.5019  0.3257
   18MOL    C8814402   2.925   0.053   4.898 -0.3241 -0.1445 -0.6634
   18MOL    C8914403   3.054   0.040   4.816  1.0526 -0.1432 -0.3970
   18MOL    C9014404   3.183   0.069   4.891 -0.2212  0.0087 -0.6852
   18MOL    C9114405   3.309   0.086   4.802  0.3003 -0.4210 -0.8753
   18MOL    C9214406   3.355   0.233   4.785 -0.7103 -0.8084 -0.0234
   18MOL    C9314407   3.262   0.311   4.693 -0.2443  0.3407  0.1546
   18MOL    C9414408   3.146   0.381   4.769 -0.5746 -0.5163 -0.2169
   18MOL    C9514409   3.038   0.463   4.689  0.0509 -0.2598  0.4680
   18MOL    C9614410   2.944   0.542   4.776  0.7097 -0.3205  0.1653
   18MOL    C9714411   2.844   0.623   4.697  0.2768 -0.2891 -0.0635
   18MOL    C9814412   2.780   0.731   4.784  0.1850 -0.2661  0.1669
   18MOL    C9914413   2.685   0.827   4.711 -0.0042  0.0296 -0.3462
   18MOL   H10014414   2.800   7.522   4.824 -1.5969 -1.4512 -1.4728
   18MOL   H10114415   2.867   7.594   4.676 -1.1641  1.1517 -0.8403
   18MOL   H10214416   2.778   0.120   4.761 -1.4982  1.5851  1.9749
   18MOL   H10314417   2.920   0.152   4.944 -1.1412  0.3229 -1.7073
   18MOL   H10414418   2.938   7.677   4.979 -0.9462 -0.4916 -0.8643
   18MOL   H10514419   3.068   7.637   4.773  1.1133  0.3597 -1.5726
   18MOL   H10614420   3.045   0.100   4.725 -0.4579  1.3358  0.7002
   18MOL   H10714421   3.194   7.673   4.948 -0.1997 -1.7143 -3.3347
   18MOL   H10814422   3.179   0.146   4.968  1.7534 -2.9394  2.4854
   18MOL   H10914423   3.300   0.037   4.705 -1.1581  0.3561 -1.1416
   18MOL   H11014424   3.383   0.034   4.863 -0.2405  0.4693  0.5919
   18MOL   H11114425   3.355   0.288   4.880 -0.2421  0.4159 -0.7271
   18MOL   H11214426   3.456   0.227   4.745 -0.0331  1.5364  1.2361
   18MOL   H11314427   3.219   0.240   4.623  1.1952  0.6098 -1.0292
   18MOL   H11414428   3.312   0.390   4.637  0.0935  0.5313  0.7178
   18MOL   H11514429   3.086   0.324   4.840  0.7644 -2.4683 -0.6086
   18MOL   H11614430   3.193   0.455   4.834 -0.1863 -2.0856  1.3071
   18MOL   H11714431   2.974   0.391   4.637 -0.0673 -0.5879  1.0738
   18MOL   H11814432   3.094   0.528   4.622  1.4598 -1.8865  0.0414
   18MOL   H11914433   2.897   0.472   4.845  1.5242 -0.7774  0.2627
   18MOL   H12014434   3.017   0.604   4.829  1.7195  1.0609 -2.7377
   18MOL   H12114435   2.890   0.683   4.619  0.7192  0.1283  0.5147
   18MOL   H12214436   2.757   0.575   4.651  0.3265  0.7590 -1.2757
   18MOL   H12314437   2.860   0.795   4.820 -1.4848  1.5555  0.6684
   18MOL   H12414438   2.734   0.686   4.872  0.5031  0.4827  0.7171
   18MOL   H12514439   2.763   0.879   4.656  0.5819  1.2361  1.5879
   18MOL   H12614440   2.625   0.792   4.627 -2.0318 -0.4331  1.2480
   18MOL   H12714441   2.632   0.886   4.786  0.4882 -0.6378  0.5259
   18MOL   C12814442   2.680   0.034   4.941  0.3832  0.2244  0.6207
   18MOL   C12914443   2.652   0.165   5.017  0.6386  0.5802 -0.9823
   18MOL   C13014444   2.640   0.297   4.930 -0.0969  0.8207  0.0135
   18MOL   C13114445   2.519   0.317   4.839 -0.0719 -0.5573  0.0496
   18MOL   C13214446   2.522   0.441   4.744  0.0039 -0.1346  0.4522
   18MOL   C13314447   2.390   0.519   4.712  0.2904 -0.9593  0.9416
   18MOL   C13414448   2.293   0.419   4.651  0.4985 -0.3645  0.5764
   18MOL   C13514449   2.354   0.346   4.529 -0.1982 -0.3731 -0.6929
   18MOL   C13614450   2.270   0.220   4.486 -0.8435 -0.9640  0.0806
   18MOL   C13714451   2.283   0.184   4.338 -0.3836 -0.5507 -1.0278
   18MOL   C13814452   2.220   0.049   4.308 -0.1887 -0.1400  0.1543
   18MOL   C13914453   2.211   0.004   4.163 -0.7196 -0.5623  0.2332
   18MOL   C14014454   2.146   7.561   4.157  0.3496 -0.4156 -0.3589
   18MOL   C14114455   2.128   7.517   4.013  0.0334  0.0791 -0.4956
   18MOL   H14214456   2.585   0.000   4.900  0.1883  1.7860 -0.2523
   18MOL   H14314457   2.714   7.658   5.017  0.5150 -0.8356 -0.4229
   18MOL   H14414458   2.741   0.194   5.073 -0.6788  1.5644  0.6600
   18MOL   H14514459   2.660   0.378   5.000 -0.1958  3.3303 -2.7934
   18MOL   H14614460   2.728   0.301   4.865 -0.1112  0.4594 -0.0311
   18MOL   H14714461   2.497   0.225   4.784 -1.0754 -0.8924  0.9688
   18MOL   H14814462   2.431   0.342   4.899 -1.1616 -0.5845 -1.5219
   18MOL   H14914463   2.579   0.524   4.786 -0.1335  0.2649 -0.1488
   18MOL   H15014464   2.578   0.423   4.652  1.2266  2.6655  0.6171
   18MOL   H15114465   2.356   0.581   4.795  0.7232  1.6090 -0.7518
   18MOL   H15214466   2.416   0.591   4.635  0.9712 -0.4839  1.6063
   18MOL   H15314467   2.256   0.340   4.717 -0.0753 -1.8992 -1.5192
   18MOL   H15414468   2.199   0.468   4.624  1.2838  0.2925 -1.0535
   18MOL   H15514469   2.382   0.413   4.448  0.9920 -0.1236 -0.0924
   18MOL   H15614470   2.445   0.296   4.562  0.1029 -0.5706 -1.8323
   18MOL   H15714471   2.280   0.140   4.560 -3.1876  0.4667  2.0426
   18MOL   H15814472   2.168   0.258   4.498 -0.8639 -1.5521  2.0538
   18MOL   H15914473   2.385   0.168   4.304  0.2466 -0.8234  0.8892
   18MOL   H16014474   2.244   0.266   4.278 -1.1911 -0.7277 -0.7544
   18MOL   H16114475   2.286   7.676   4.361  0.5234 -0.8593 -1.6112
   18MOL   H16214476   2.120   0.052   4.350  0.1820  2.2797  0.9837
   18MOL   H16314477   2.156   0.083   4.112 -0.1121  1.1362  2.1444
   18MOL   H16414478   2.310   0.008   4.118 -1.0659  0.6481 -0.4593
   18MOL   H16514479   2.189   7.487   4.224  0.0327  0.2854  0.6247
   18MOL   H16614480   2.047   7.558   4.201 -0.3693  0.7613 -1.8700
   18MOL   H16714481   2.129   7.409   4.002 -1.8828 -0.0292  0.2336
   18MOL   H16814482   2.036   7.560   3.972 -1.5856  0.0237  2.8811
   18MOL   H16914483   2.207   7.545   3.945 -0.2074  0.0948 -0.7690
   18MOL   C17014484   2.544   0.159   5.113  0.1170  0.4070  0.1838
   18MOL   C17114485   2.544   0.066   5.230 -0.0758 -0.0339  0.0884
   18MOL   C17214486   2.671   0.077   5.324  0.4602 -0.5910 -0.3072
   18MOL   C17314487   2.694   7.645   5.401 -0.0201 -0.1030 -0.1562
   18MOL   C17414488   2.787   7.665   5.516  0.0450 -0.7098 -0.1500
   18MOL   C17514489   2.835   7.540   5.582  0.2914  0.1092 -0.0041
   18MOL   C17614490   2.958   7.559   5.678 -0.3945 -0.2819  0.6208
   18MOL   C17714491   3.007   7.425   5.728  0.1940  0.1047 -0.5591
   18MOL   C17814492   3.129   7.434   5.822  0.2341  0.2569 -0.5376
   18MOL   C17914493   3.255   7.486   5.754 -0.0679 -0.6831 -0.2324
   18MOL   C18014494   3.382   7.488   5.847  0.1818  0.1990  0.2378
   18MOL   C18114495   3.508   7.506   5.767 -0.8375  0.1559  0.0820
   18MOL   C18214496   3.632   7.544   5.852  0.2153  0.1245  0.7085
   18MOL   C18314497   3.774   7.530   5.783  0.4804 -0.1830 -0.3537
   18MOL   H18414498   2.456   0.139   5.051 -1.8227  0.2375  2.8846
   18MOL   H18514499   2.515   0.256   5.154  3.0848  0.0150  3.4476
   18MOL   H18614500   2.555   7.665   5.180  0.3679 -0.0621  0.2475
   18MOL   H18714501   2.758   0.095   5.261 -0.2086 -1.5071 -1.4939
   18MOL   H18814502   2.661   0.159   5.394 -2.4745 -0.4492 -0.8619
   18MOL   H18914503   2.604   7.606   5.448 -0.5985  0.4824 -0.7826
   18MOL   H19014504   2.753   7.574   5.342  1.0675  2.2254 -1.9085
   18MOL   H19114505   2.875   0.025   5.484 -0.9345 -0.1075 -1.8489
   18MOL   H19214506   2.739   0.032   5.592 -0.8878  0.0149 -1.3070
   18MOL   H19314507   2.874   7.470   5.509 -0.4080 -1.0075  0.6740
   18MOL   H19414508   2.755   7.478   5.624  1.9252 -1.6018  0.6723
   18MOL   H19514509   2.936   7.638   5.750 -0.9911  2.6639 -2.6840
   18MOL   H19614510   3.045   7.596   5.624  0.8343 -3.5297  0.2189
   18MOL   H19714511   3.043   7.356   5.652 -1.1798 -1.7323  0.4037
   18MOL   H19814512   2.926   7.372   5.780  1.0560  0.4161  1.1400
   18MOL   H19914513   3.156   7.339   5.868  0.3907  0.6169  0.1343
   18MOL   H20014514   3.099   7.489   5.912  1.3239 -0.3339  0.1933
   18MOL   H20114515   3.243   7.584   5.708  1.2533 -0.5619 -0.3420
   18MOL   H20214516   3.265   7.423   5.665 -2.5379  0.1957 -1.1717
   18MOL   H20314517   3.387   7.391   5.896 -1.3687  0.7339  1.4962
   18MOL   H20414518   3.371   7.564   5.925 -0.2996 -1.2578  1.6222
   18MOL   H20514519   3.519   7.422   5.699  0.2879 -0.2358  0.7341
   18MOL   H20614520   3.504   7.584   5.690 -1.4034  1.1747  1.1238
   18MOL   H20714521   3.616   7.648   5.878  0.7495  0.1061  1.1204
   18MOL   H20814522   3.636   7.491   5.947  1.7085  0.7551  1.0190
   18MOL   H20914523   3.854   7.562   5.850 -1.2860 -1.7554  2.6646
   18MOL   H21014524   3.781   7.584   5.689  1.6356  0.8972  0.3470
   18MOL   H21114525   3.787   7.423   5.768  0.9650 -0.4321  1.6155
   18MOL   C21214526   2.410   0.057   5.304  0.2449 -0.0509  0.3895
   18MOL   C21314527   2.296   7.668   5.235 -0.2038 -0.2393  0.2026
   18MOL   C21414528   2.303   7.515   5.277  0.5413  0.1078 -0.4905
   18MOL   C21514529   2.218   7.430   5.175  0.3176 -0.2819  0.0019
   18MOL   C21614530   2.287   7.386   5.050  0.0889  0.0306 -0.0337
   18MOL   C21714531   2.193   7.321   4.951 -0.0336  0.4094 -0.3929
   18MOL   C21814532   2.262   7.269   4.824  0.0873 -0.7826 -0.1520
   18MOL   C21914533   2.179   7.256   4.697  0.0914  0.6025  0.7358
   18MOL   C22014534   2.059   7.164   4.700 -0.4135 -0.0250 -0.1344
   18MOL   C22114535   2.092   7.015   4.703 -0.2792  0.1327 -0.1698
   18MOL   C22214536   2.103   6.951   4.842 -0.8958  0.0395  0.5233
   18MOL   C22314537   2.098   6.799   4.843 -0.2962  0.5882  1.2548
   18MOL   C22414538   2.202   6.715   4.767  0.0682 -0.0237 -0.4312
   18MOL   C22514539   2.176   6.569   4.781 -0.4567  0.4441 -0.0385
   18MOL   H22614540   2.373   0.158   5.323  1.7050  1.0013 -2.0861
   18MOL   H22714541   2.412   0.025   5.408 -1.4130 -0.9798  0.1612
   18MOL   H22814542   2.310   7.675   5.127 -0.4440 -0.2902  0.1664
   18MOL   H22914543   2.400   7.467   5.284  0.2892 -0.1545  1.6290
   18MOL   H23014544   2.259   7.501   5.375 -2.7660 -0.8786 -2.0319
   18MOL   H23114545   2.131   7.492   5.151  0.2815  0.2621  1.5234
   18MOL   H23214546   2.192   7.334   5.219  3.4808 -1.5085 -0.6351
   18MOL   H23314547   2.362   7.311   5.074 -0.8049 -0.9545 -0.3173
   18MOL   H23414548   2.328   7.472   4.997 -2.1133 -0.7042 -3.0357
   18MOL   H23514549   2.116   7.394   4.925  0.9151  2.3963  2.1564
   18MOL   H23614550   2.141   7.237   4.997 -0.4078  1.0227  0.3221
   18MOL   H23714551   2.338   7.341   4.792 -2.3083  1.8831 -0.0656
   18MOL   H23814552   2.318   7.178   4.842 -1.7950 -1.8307  0.5325
   18MOL   H23914553   2.141   7.355   4.674 -0.1287  0.2521 -0.4804
   18MOL   H24014554   2.244   7.235   4.612 -0.2520 -0.0359  0.6218
   18MOL   H24114555   2.004   7.186   4.608  1.2168 -1.3978 -1.4647
   18MOL   H24214556   1.995   7.190   4.785 -1.6041 -0.4287 -0.8908
   18MOL   H24314557   2.008   6.968   4.652 -0.2854 -1.1405  0.9677
   18MOL   H24414558   2.186   6.993   4.652  0.2599 -0.6446  1.1326
   18MOL   H24514559   2.027   6.991   4.909 -0.1153  0.7536  0.9991
   18MOL   H24614560   2.195   6.990   4.886 -2.1090  1.4283  1.8991
   18MOL   H24714561   1.996   6.769   4.818  0.7052 -2.7131  0.9264
   18MOL   H24814562   2.110   6.761   4.944  0.3754  0.8599  1.2796
   18MOL   H24914563   2.302   6.748   4.796 -0.2141  0.1892  0.3054
   18MOL   H25014564   2.191   6.743   4.663 -2.3454 -0.5314 -0.3426
   18MOL   H25114565   2.077   6.547   4.739  0.2505  0.5629 -1.7796
   18MOL   H25214566   2.247   6.505   4.729 -1.5448 -1.1583  0.3975
   18MOL   H25314567   2.165   6.537   4.885  1.9275 -0.1801  0.0387
   18MOL   C25414568   2.162   0.032   5.265 -0.3280  0.2448 -0.0781
   18MOL   C25514569   2.136   0.166   5.191 -0.3236 -0.3975 -0.7069
   18MOL   C25614570   2.139   0.167   5.034 -0.0850 -0.1662 -0.5191
   18MOL   C25714571   2.032   0.081   4.976 -0.1262 -0.1772 -0.8137
   18MOL   C25814572   2.052   0.039   4.834  0.0223 -0.5015  0.0902
   18MOL   C25914573   1.953   7.625   4.791  0.2933  0.2343  0.2033
   18MOL   C26014574   1.978   7.597   4.639 -0.1114  0.2078 -0.1696
   18MOL   C26114575   1.893   7.480   4.584  0.1015 -0.4550  0.0323
   18MOL   C26214576   1.928   7.454   4.437 -0.3501  0.0272  0.9378
   18MOL   C26314577   1.838   7.342   4.388 -0.5091  0.2721 -0.6375
   18MOL   C26414578   1.860   7.315   4.239 -0.9004  0.1604  0.1326
   18MOL   C26514579   1.761   7.220   4.161 -0.2383 -0.4758 -0.1293
   18MOL   C26614580   1.823   7.180   4.033  0.2261  0.4104 -0.6550
   18MOL   C26714581   1.717   7.101   3.945 -0.2959 -0.4854 -1.0701
   18MOL   H26814582   2.165   0.058   5.371  1.5670  2.6358 -0.6806
   18MOL   H26914583   2.074   7.664   5.252 -1.5802  2.1546 -1.1013
   18MOL   H27014584   2.206   0.247   5.214 -0.8584  0.0439 -0.6358
   18MOL   H27114585   2.234   0.134   4.993  0.9490 -1.3772  2.7399
   18MOL   H27214586   2.118   0.268   4.999  2.2823  0.6433  0.3458
   18MOL   H27314587   1.937   0.133   4.986 -0.2795 -0.8899  1.9835
   18MOL   H27414588   2.012   7.690   5.040  0.2422  0.3394  0.0128
   18MOL   H27514589   2.143   7.676   4.821 -0.0097 -0.4654 -0.3156
   18MOL   H27614590   2.048   0.123   4.765 -0.0121 -0.2157  0.4431
   18MOL   H27714591   1.852   7.666   4.801  0.7025  1.1221  0.6812
   18MOL   H27814592   1.962   7.538   4.856 -0.6306  0.8899  1.2327
   18MOL   H27914593   1.965   7.689   4.583  0.8010  0.6256  0.3006
   18MOL   H28014594   2.082   7.573   4.619  0.4904  1.6394  1.1960
   18MOL   H28114595   1.792   7.508   4.614  0.6678  1.3432  0.3230
   18MOL   H28214596   1.898   7.387   4.641 -1.9082 -1.2767 -1.0732
   18MOL   H28314597   1.915   7.541   4.373 -1.5585  1.1834  2.7269
   18MOL   H28414598   2.029   7.413   4.429  0.7055  2.8771 -1.2275
   18MOL   H28514599   1.734   7.362   4.410 -0.6947 -0.4925 -0.8168
   18MOL   H28614600   1.857   7.249   4.442  0.9160  2.5901  3.0307
   18MOL   H28714601   1.959   7.275   4.218  0.0189  2.1916  0.4511
   18MOL   H28814602   1.868   7.404   4.176 -2.6066  0.2004 -0.0451
   18MOL   H28914603   1.738   7.127   4.214 -0.5454 -0.1303  0.3527
   18MOL   H29014604   1.661   7.262   4.147 -1.4067 -2.8798  0.6672
   18MOL   H29114605   1.876   7.259   3.979  3.1695 -0.8339  0.2706
   18MOL   H29214606   1.903   7.110   4.060 -0.2940 -0.5209 -1.5029
   18MOL   H29314607   1.774   7.078   3.855  1.1008  1.8197 -0.8085
   18MOL   H29414608   1.639   7.165   3.904  1.5754  1.5268 -1.6235
   18MOL   H29514609   1.683   7.012   3.998  1.7956 -1.5434 -1.4145
   18MOL   C29614610   2.002   0.228   5.242  0.4999 -0.9231  0.9010
   18MOL   C29714611   2.012   0.321   5.370 -0.1100  0.8136  0.8681
   18MOL   C29814612   2.067   0.459   5.356  0.6821  0.0482  1.1594
   18MOL   C29914613   2.083   0.541   5.485 -0.1815 -0.0595 -0.2499
   18MOL   C30014614   2.138   0.690   5.455 -0.2031  0.3592  0.0752
   18MOL   C30114615   2.129   0.792   5.579 -0.0896 -0.0024  0.5965
   18MOL   C30214616   2.219   0.910   5.560  0.3493  0.6354  0.1042
   18MOL   C30314617   2.200   0.976   5.424 -0.1628 -0.0496 -0.0142
   18MOL   C30414618   2.285   1.111   5.410  0.0499 -0.3099  0.2203
   18MOL   C30514619   2.290   1.160   5.259  0.6148 -0.2906 -0.3339
   18MOL   C30614620   2.388   1.094   5.170  0.4191  0.1539  0.3697
   18MOL   C30714621   2.537   1.126   5.209 -0.3342 -0.4412  0.2569
   18MOL   C30814622   2.641   1.085   5.105  0.7542  0.0183  0.7029
   18MOL   C30914623   2.785   1.121   5.127 -0.4194 -0.2706  0.3665
   18MOL   H31014624   1.941   0.142   5.267 -0.4687 -0.8107 -1.0092
   18MOL   H31114625   1.956   0.292   5.167 -0.8946 -2.9013  0.0179
   18MOL   H31214626   2.088   0.265   5.425 -1.1845 -0.1425  1.4194
   18MOL   H31314627   2.027   0.512   5.270  1.8737  2.2106  1.8865
   18MOL   H31414628   2.172   0.459   5.326  0.8417  2.7587  1.5430
   18MOL   H31514629   2.144   0.490   5.559  0.2215  0.3319 -0.3109
   18MOL   H31614630   1.984   0.545   5.530  0.2504 -0.1918  0.7116
   18MOL   H31714631   2.240   0.683   5.418  0.4969  0.7969  1.9128
   18MOL   H31814632   2.073   0.727   5.375 -0.9854  1.5188  1.2259
   18MOL   H31914633   2.157   0.746   5.674  1.5116  3.0116  1.6500
   18MOL   H32014634   2.025   0.820   5.591 -0.5928 -2.0851  1.5174
   18MOL   H32114635   2.203   0.986   5.636 -4.0293 -2.2362  2.2838
   18MOL   H32214636   2.323   0.884   5.578  0.1196  0.3519  1.0669
   18MOL   H32314637   2.098   1.009   5.407  0.6961  1.8502 -1.7236
   18MOL   H32414638   2.222   0.902   5.347  0.1053 -0.2102  0.2176
   18MOL   H32514639   2.231   1.192   5.461 -0.2036 -0.7315  0.6314
   18MOL   H32614640   2.382   1.104   5.458 -0.6782  1.3514  2.0260
   18MOL   H32714641   2.315   1.265   5.251  0.1368 -0.0874  0.6733
   18MOL   H32814642   2.189   1.142   5.222  0.3161 -0.4033  0.5218
   18MOL   H32914643   2.382   1.139   5.071  0.2713 -0.5728  0.0401
   18MOL   H33014644   2.373   0.986   5.173 -0.4909  0.0952 -3.2428
   18MOL   H33114645   2.552   1.089   5.311 -1.1476  0.0667  0.5691
   18MOL   H33214646   2.542   1.234   5.217  2.0444 -0.5695  0.6540
   18MOL   H33314647   2.602   1.115   5.008  0.6245 -0.6596  0.5421
   18MOL   H33414648   2.628   0.977   5.107 -0.5791  0.1557  0.0898
   18MOL   H33514649   2.855   1.081   5.054  0.3471  0.6947  0.5677
   18MOL   H33614650   2.803   1.229   5.125 -2.1705  0.0644  1.2055
   18MOL   H33714651   2.816   1.078   5.222  0.1271  0.2505  0.4243
   18MOL   C33814652   1.885   0.307   5.455  0.2430 -0.4045  0.1838
   18MOL   C33914653   1.750   0.352   5.401 -0.0791 -0.1739  0.3468
   18MOL   C34014654   1.641   0.294   5.496 -0.1487  0.2203  0.2430
   18MOL   C34114655   1.624   0.143   5.499 -0.4948 -0.9312  0.0859
   18MOL   C34214656   1.492   0.098   5.561  0.0961 -0.9052  0.2549
   18MOL   C34314657   1.479   7.642   5.570 -0.0214 -0.2730 -0.0387
   18MOL   C34414658   1.354   7.594   5.649 -0.5501 -0.4033  0.0629
   18MOL   C34514659   1.375   7.462   5.724 -0.5853  1.0178  0.1498
   18MOL   C34614660   1.259   7.426   5.820  0.0902 -0.3772  0.4452
   18MOL   C34714661   1.117   7.467   5.778 -0.7740 -0.3096 -0.5149
   18MOL   C34814662   1.056   7.401   5.651 -0.1460 -0.0632  0.1711
   18MOL   C34914663   0.911   7.439   5.640 -0.3346  1.0362  0.1155
   18MOL   C35014664   0.893   7.585   5.577  0.0602  0.1765  0.2263
   18MOL   C35114665   0.740   7.611   5.554  0.0090 -0.3851 -0.1627
   18MOL   H35214666   1.880   0.198   5.466 -1.6344 -0.5620 -1.7840
   18MOL   H35314667   1.899   0.348   5.555  0.1431 -0.7173  0.3286
   18MOL   H35414668   1.743   0.311   5.301 -0.6101 -0.0548  0.3339
   18MOL   H35514669   1.656   0.334   5.596 -1.2711  2.1986 -0.3578
   18MOL   H35614670   1.544   0.330   5.462 -0.8262 -0.1554  1.7621
   18MOL   H35714671   1.699   0.084   5.553 -1.0226 -2.3916 -0.7604
   18MOL   H35814672   1.628   0.097   5.401  0.2284  0.3170 -0.4927
   18MOL   H35914673   1.412   0.144   5.503  0.6456  0.8458  0.8555
   18MOL   H36014674   1.477   0.154   5.654 -0.1390  4.4622 -2.8060
   18MOL   H36114675   1.478   7.596   5.471 -0.3237 -0.0865 -0.1221
   18MOL   H36214676   1.561   7.593   5.624 -1.3858 -1.4444  1.0024
   18MOL   H36314677   1.325   7.673   5.719 -3.1837 -1.0485 -0.2273
   18MOL   H36414678   1.269   7.585   5.581 -0.5772  0.5199 -0.0333
   18MOL   H36514679   1.392   7.380   5.654 -2.4124  1.3951 -0.7764
   18MOL   H36614680   1.460   7.466   5.792 -0.7871  0.9101  0.4129
   18MOL   H36714681   1.273   7.323   5.853 -0.6534 -0.7967 -0.5172
   18MOL   H36814682   1.283   7.490   5.904  1.8403 -1.4120  0.7669
   18MOL   H36914683   1.052   7.444   5.863 -1.2293 -0.6550 -0.9581
   18MOL   H37014684   1.097   7.573   5.762 -0.5526 -0.4796 -1.9109
   18MOL   H37114685   1.087   7.296   5.659 -0.4088 -0.1289  0.3471
   18MOL   H37214686   1.115   7.434   5.566 -1.8544  1.7375 -0.3418
   18MOL   H37314687   0.877   7.447   5.744  0.1848 -0.1609  0.3831
   18MOL   H37414688   0.859   7.364   5.581  0.6513  1.4219 -1.2412
   18MOL   H37514689   0.931   7.659   5.647  0.2000 -0.9554  1.3715
   18MOL   H37614690   0.951   7.594   5.484 -1.2117 -2.0441 -0.8137
   18MOL   H37714691   0.687   7.591   5.648 -2.3736 -1.6357 -1.7187
   18MOL   H37814692   0.706   0.015   5.527 -2.0255 -0.8538  0.5629
   18MOL   H37914693   0.693   7.541   5.485 -0.4899 -1.7273  1.5072
   18MOL   C38014694   1.725   0.510   5.383 -0.1872  0.7416 -0.1896
   18MOL   C38114695   1.601   0.553   5.292 -0.2089 -0.0995 -0.0079
   18MOL   C38214696   1.533   0.678   5.353  0.0335  0.2882  0.2203
   18MOL   C38314697   1.611   0.807   5.347 -0.3379  0.6393  0.4217
   18MOL   C38414698   1.532   0.929   5.401  0.4938 -0.4844 -0.1289
   18MOL   C38514699   1.610   1.061   5.392 -0.0605  0.5440 -0.5000
   18MOL   C38614700   1.722   1.089   5.498 -0.4940 -0.1332  0.6364
   18MOL   C38714701   1.788   1.221   5.486  0.1737  0.0631 -0.7464
   18MOL   C38814702   1.839   1.252   5.340  0.1111  0.1697 -0.8437
   18MOL   C38914703   1.943   1.354   5.321  0.4650  0.2528  0.0459
   18MOL   C39014704   1.887   1.494   5.323  0.0045 -0.0184  0.0617
   18MOL   C39114705   1.984   1.606   5.261  0.1543  0.7876  0.1072
   18MOL   C39214706   1.933   1.745   5.300 -0.4637 -0.4499 -0.9231
   18MOL   C39314707   2.030   1.863   5.270 -0.3370 -0.0937 -0.4094
   18MOL   H39414708   1.813   0.561   5.344  0.1493 -0.6822 -1.3258
   18MOL   H39514709   1.716   0.541   5.487 -0.8550  0.0281 -0.0236
   18MOL   H39614710   1.527   0.473   5.286 -1.2294  0.9218 -1.0075
   18MOL   H39714711   1.517   0.675   5.460 -0.6189 -0.7809  0.0906
   18MOL   H39814712   1.438   0.701   5.305 -0.6650  0.0763  1.5002
   18MOL   H39914713   1.646   0.815   5.244 -3.2862  0.5963 -0.6151
   18MOL   H40014714   1.706   0.797   5.400 -0.3739  0.1058  0.3877
   18MOL   H40114715   1.496   0.917   5.503  0.5356 -0.1306 -0.0695
   18MOL   H40214716   1.445   0.932   5.335  1.0736 -1.4021 -0.9426
   18MOL   H40314717   1.528   1.131   5.380 -0.4637  0.1981  0.2230
   18MOL   H40414718   1.650   1.072   5.291 -0.2243  1.9944 -0.4184
   18MOL   H40514719   1.684   1.091   5.600  0.4461 -0.0247  0.9844
   18MOL   H40614720   1.802   1.015   5.493  1.0998  1.4366  2.1648
   18MOL   H40714721   1.730   1.304   5.526 -0.6020 -0.7519 -0.1389
   18MOL   H40814722   1.871   1.223   5.557 -0.5762  1.6990  0.1047
   18MOL   H40914723   1.887   1.155   5.328  0.6333  0.3536 -0.2728
   18MOL   H41014724   1.759   1.262   5.267 -1.4334 -1.1188  0.6303
   18MOL   H41114725   2.003   1.333   5.232  1.5022  0.0602  0.7892
   18MOL   H41214726   2.010   1.341   5.405  1.1990 -1.3188 -0.7752
   18MOL   H41314727   1.797   1.500   5.260 -1.2925 -0.2520  1.8453
   18MOL   H41414728   1.867   1.519   5.427  1.5651 -0.0915  0.3824
   18MOL   H41514729   1.989   1.588   5.153  1.0918  0.5950  0.1755
   18MOL   H41614730   2.086   1.587   5.296 -0.0844 -0.5643  0.0894
   18MOL   H41714731   1.841   1.760   5.243 -0.6528  1.4346 -0.1533
   18MOL   H41814732   1.918   1.750   5.407 -1.6087  1.0230 -1.1355
   18MOL   H41914733   1.985   1.950   5.317 -1.9173  0.1017 -2.2036
   18MOL   H42014734   2.036   1.880   5.163 -1.6569 -1.4533 -0.7214
   18MOL   H42114735   2.120   1.835   5.324 -0.3037  0.1822 -0.3248
   18MOL   C42214736   1.646   0.574   5.144 -0.7996  0.2142 -0.4710
   18MOL   C42314737   1.691   0.451   5.058  0.3399  0.2053  0.6510
   18MOL   C42414738   1.602   0.327   5.064 -0.0559 -0.1016  0.7355
   18MOL   C42514739   1.457   0.343   5.013 -0.1458  0.0894 -0.3936
   18MOL   C42614740   1.367   0.227   5.055 -0.3073 -0.1929 -0.6277
   18MOL   C42714741   1.218   0.241   5.022  0.1909  0.2243  0.1789
   18MOL   C42814742   1.141   0.131   5.105  0.3931  0.2298 -0.0788
   18MOL   C42914743   0.990   0.176   5.135 -0.0535  0.3853 -0.2034
   18MOL   C43014744   0.918   0.064   5.215 -0.0463  0.1138  0.2533
   18MOL   C43114745   0.771   0.104   5.255  0.0160 -0.2586  0.1292
   18MOL   C43214746   0.683   0.126   5.132  0.5269 -0.4772  0.3526
   18MOL   C43314747   0.648   7.690   5.057 -0.0855 -0.1085 -0.1714
   18MOL   C43414748   0.535   0.006   4.952  0.0259 -0.9316 -0.0250
   18MOL   C43514749   0.473   7.570   4.906 -0.5308  0.2507 -0.0900
   18MOL   H43614750   1.725   0.649   5.142 -0.3129 -0.2554  0.9914
   18MOL   H43714751   1.564   0.613   5.084  0.8817  2.1330 -1.5952
   18MOL   H43814752   1.784   0.429   5.110 -1.0090  0.2802  3.1690
   18MOL   H43914753   1.584   0.286   5.163 -0.1635  3.1210  2.1020
   18MOL   H44014754   1.644   0.246   5.005 -1.3460 -2.0811  2.4823
   18MOL   H44114755   1.408   0.434   5.047  0.3977  1.1428 -2.3574
   18MOL   H44214756   1.444   0.355   4.906  1.1780  0.5948 -0.5106
   18MOL   H44314757   1.381   0.217   5.163  1.3195  0.2426 -0.7789
   18MOL   H44414758   1.400   0.131   5.015 -0.7609 -0.2557 -0.8567
   18MOL   H44514759   1.205   0.241   4.914 -1.3246 -0.3390  0.3432
   18MOL   H44614760   1.180   0.338   5.054 -2.2172 -0.4325 -0.5768
   18MOL   H44714761   1.139   0.033   5.056  1.9320 -0.6128  1.4884
   18MOL   H44814762   1.192   0.121   5.201  2.5355  3.9409 -0.7620
   18MOL   H44914763   0.989   0.264   5.199 -0.1474 -0.3123  0.7669
   18MOL   H45014764   0.943   0.207   5.042  1.2982  2.3395 -0.2698
   18MOL   H45114765   0.927   7.676   5.146  5.0072  0.9623 -0.3221
   18MOL   H45214766   0.981   0.041   5.301  1.9236 -0.3888 -1.2883
   18MOL   H45314767   0.724   0.028   5.318  0.8122 -1.2745 -0.4950
   18MOL   H45414768   0.777   0.195   5.314  0.8019 -0.6634  0.6799
   18MOL   H45514769   0.585   0.168   5.158  0.0058 -0.9910 -0.7771
   18MOL   H45614770   0.730   0.199   5.067  2.1688 -2.3672 -0.6128
   18MOL   H45714771   0.610   7.618   5.130  2.8864 -2.1506 -0.5573
   18MOL   H45814772   0.743   7.647   5.025 -0.1034  0.1551 -0.5731
   18MOL   H45914773   0.457   0.081   4.970  0.1426 -0.6937 -0.4829
   18MOL   H46014774   0.580   0.050   4.863  0.8484 -2.1152 -0.1961
   18MOL   H46114775   0.544   7.502   4.859 -3.0850 -1.0402 -2.2443
   18MOL   H46214776   0.380   7.588   4.853 -0.5330  0.8682  0.1277
   18MOL   H46314777   0.442   7.518   4.996  1.7780 -0.9861  0.0497
   18MOL   C46414778   1.732   0.491   4.915  0.2036 -0.8937  0.4676
   18MOL   C46514779   1.841   0.602   4.897  0.4697 -0.0556 -0.3047
   18MOL   C46614780   1.975   0.558   4.963  0.2169  0.3889 -0.4488
   18MOL   C46714781   2.093   0.660   4.956 -0.2223  0.5684  0.7347
   18MOL   C46814782   2.224   0.616   5.037  1.0498 -0.6156  0.0305
   18MOL   C46914783   2.330   0.726   5.020  0.5641  0.2183 -0.2623
   18MOL   C47014784   2.476   0.674   5.040  0.4751  0.2489  0.3244
   18MOL   C47114785   2.507   0.659   5.188  0.6373 -0.1334  0.3712
   18MOL   C47214786   2.640   0.588   5.231 -0.3275  0.1707  1.2847
   18MOL   C47314787   2.769   0.645   5.169  0.7086  0.5513  0.1037
   18MOL   C47414788   2.878   0.639   5.275 -0.9272  0.4672 -0.2172
   18MOL   C47514789   3.022   0.647   5.218  0.0467 -0.5201 -1.3657
   18MOL   C47614790   3.080   0.782   5.173  0.6057 -0.0416  0.5505
   18MOL   C47714791   3.219   0.763   5.102  0.2918 -0.5250 -0.7881
   18MOL   H47814792   1.640   0.524   4.867  0.4144  0.9403  1.2652
   18MOL   H47914793   1.763   0.403   4.859 -1.6337 -0.7740 -0.7562
   18MOL   H48014794   1.814   0.690   4.955  0.0508 -0.3087 -0.1151
   18MOL   H48114795   1.954   0.525   5.065  0.7901 -1.0903 -0.7944
   18MOL   H48214796   2.010   0.476   4.900  0.8017  2.7069 -3.2170
   18MOL   H48314797   2.059   0.755   4.998  0.8176  0.8369  0.9858
   18MOL   H48414798   2.116   0.677   4.851  0.4184 -0.8808  0.6336
   18MOL   H48514799   2.242   0.513   5.006 -1.1651 -1.3206  1.0303
   18MOL   H48614800   2.193   0.617   5.142 -1.6009 -0.8355 -0.7287
   18MOL   H48714801   2.327   0.753   4.915  2.3757  2.5798  0.2396
   18MOL   H48814802   2.307   0.814   5.081 -0.0453  0.7049 -1.1825
   18MOL   H48914803   2.488   0.582   4.983  2.9587  2.1658 -2.4125
   18MOL   H49014804   2.548   0.748   5.002 -0.3767  0.5212 -0.8021
   18MOL   H49114805   2.504   0.761   5.228  0.6915  0.3223 -0.7662
   18MOL   H49214806   2.427   0.598   5.229 -1.3975  1.4593 -1.1043
   18MOL   H49314807   2.653   0.586   5.339  0.5070  1.8802  1.2339
   18MOL   H49414808   2.640   0.482   5.207 -0.6388  0.5898 -0.6430
   18MOL   H49514809   2.805   0.589   5.082 -1.3440  2.7500 -2.2350
   18MOL   H49614810   2.744   0.749   5.150  1.3211  1.1004  2.1939
   18MOL   H49714811   2.858   0.710   5.355 -1.0739  0.4471 -0.2344
   18MOL   H49814812   2.870   0.540   5.321  0.2642  1.0426  1.2568
   18MOL   H49914813   3.041   0.569   5.145 -0.5341 -0.2693 -1.7891
   18MOL   H50014814   3.085   0.618   5.303 -1.2635  2.5275  0.7471
   18MOL   H50114815   3.016   0.827   5.097  2.1369 -0.4410 -0.9989
   18MOL   H50214816   3.098   0.840   5.264  1.1327 -0.0038  0.4194
   18MOL   H50314817   3.251   0.858   5.057 -1.2445  0.5178  0.2854
   18MOL   H50414818   3.307   0.733   5.160  0.2983  1.6349  0.3795
   18MOL   H50514819   3.217   0.685   5.026  0.8149 -1.6011  0.2872
   18MOL   C50614820   1.866   0.651   4.749  0.5022 -0.6586  0.8510
   18MOL   C50714821   1.740   0.681   4.665  0.1221 -0.4068  0.2511
   18MOL   C50814822   1.672   0.812   4.713  0.3067  0.0262  0.2944
   18MOL   C50914823   1.523   0.811   4.675 -0.4950 -0.1671  0.0794
   18MOL   C51014824   1.426   0.762   4.788 -0.0024  0.4885 -0.1151
   18MOL   C51114825   1.425   0.841   4.923  0.1370  0.3058 -0.0113
   18MOL   C51214826   1.400   0.992   4.903  0.4915 -0.0016  0.1530
   18MOL   C51314827   1.389   1.071   5.040 -0.0069 -0.0338 -0.2397
   18MOL   C51414828   1.382   1.230   5.022  0.6713  0.1340  0.8162
   18MOL   C51514829   1.515   1.307   5.027  0.1186 -0.3737 -0.6092
   18MOL   C51614830   1.505   1.462   5.033 -0.3998 -0.3662 -0.1230
   18MOL   C51714831   1.633   1.536   5.011 -0.4900  0.6842  0.5257
   18MOL   C51814832   1.632   1.674   5.053 -0.4130  0.7459  0.3671
   18MOL   C51914833   1.738   1.767   4.991  0.4493  0.2018  0.4776
   18MOL   H52014834   1.914   0.577   4.686  0.0161 -1.2114  1.1214
   18MOL   H52114835   1.925   0.742   4.755  0.5087 -0.6060 -0.0322
   18MOL   H52214836   1.668   0.604   4.691  2.7367 -2.1493  2.6256
   18MOL   H52314837   1.685   0.826   4.821  0.9580  0.2362  0.1957
   18MOL   H52414838   1.720   0.899   4.669 -0.1224 -1.2587 -2.8543
   18MOL   H52514839   1.490   0.905   4.632  0.9715 -0.0863 -0.9154
   18MOL   H52614840   1.506   0.754   4.583  0.6434 -0.4629  0.0376
   18MOL   H52714841   1.432   0.653   4.793  0.4301  0.5627  1.0154
   18MOL   H52814842   1.330   0.777   4.738 -0.2158 -0.4249  0.0167
   18MOL   H52914843   1.523   0.838   4.971 -1.3137  3.1885  3.3604
   18MOL   H53014844   1.352   0.810   4.997  0.2100 -0.8192 -0.3938
   18MOL   H53114845   1.480   1.035   4.843  1.3282 -3.1864 -1.1321
   18MOL   H53214846   1.305   0.998   4.850  0.8276 -1.2460 -0.6031
   18MOL   H53314847   1.469   1.026   5.099  1.0176  1.9963 -0.0583
   18MOL   H53414848   1.302   1.041   5.098 -1.3799  2.7013 -0.8188
   18MOL   H53514849   1.318   1.281   5.095  2.2310  1.0246  1.6024
   18MOL   H53614850   1.322   1.261   4.937  1.1171 -2.1545 -0.3476
   18MOL   H53714851   1.578   1.260   5.103  1.1311  0.8249 -0.6964
   18MOL   H53814852   1.578   1.282   4.941  3.7906 -1.1612  2.1563
   18MOL   H53914853   1.444   1.505   4.953  0.1637  0.5245 -0.0852
   18MOL   H54014854   1.463   1.483   5.131  1.7628 -1.2026  1.0091
   18MOL   H54114855   1.667   1.540   4.907 -1.3502  1.0642  0.2578
   18MOL   H54214856   1.711   1.482   5.064  1.4265  2.6182 -0.2113
   18MOL   H54314857   1.629   1.685   5.161  2.4410 -0.2419  0.6002
   18MOL   H54414858   1.536   1.715   5.021  0.0042  0.4059 -1.3664
   18MOL   H54514859   1.747   1.758   4.883  0.1614 -1.6130  0.5907
   18MOL   H54614860   1.719   1.870   5.020 -0.4817 -0.3553  1.8894
   18MOL   H54714861   1.837   1.739   5.027  1.6793  3.4308 -0.1878
   18MOL   C54814862   1.768   0.693   4.513 -0.0617 -0.4169 -0.3984
   18MOL   C54914863   1.700   0.568   4.445 -0.1122  0.0971  0.5738
   18MOL   C55014864   1.676   0.599   4.300  0.4078 -0.2804  0.0996
   18MOL   C55114865   1.559   0.703   4.277  0.3731 -0.4433 -0.2780
   18MOL   C55214866   1.422   0.651   4.324  0.5254 -0.0744 -0.4328
   18MOL   C55314867   1.305   0.726   4.257 -0.0045  0.0425  0.0027
   18MOL   C55414868   1.171   0.697   4.306  0.4655 -0.1734 -0.1029
   18MOL   C55514869   1.056   0.775   4.241  1.0532 -0.3614 -0.1104
   18MOL   C55614870   0.926   0.759   4.341  0.9333 -0.5886  0.3771
   18MOL   C55714871   0.927   0.851   4.468  0.0083  0.0591  0.3056
   18MOL   C55814872   0.800   0.831   4.558  0.2260  0.0666 -0.0513
   18MOL   C55914873   0.666   0.885   4.500 -0.4289  0.4690 -0.0048
   18MOL   C56014874   0.541   0.832   4.575  0.2828 -0.3748 -0.1713
   18MOL   C56114875   0.538   0.880   4.722  0.2766  0.0720 -0.0772
   18MOL   H56214876   1.731   0.786   4.470 -0.4573  0.0082  0.8386
   18MOL   H56314877   1.872   0.710   4.485  0.0563 -0.4291  0.0346
   18MOL   H56414878   1.606   0.554   4.498 -0.5807  1.1231  0.0161
   18MOL   H56514879   1.768   0.632   4.251  0.5285 -0.3413  0.2847
   18MOL   H56614880   1.644   0.511   4.244 -0.4879  0.2902 -0.2894
   18MOL   H56714881   1.556   0.717   4.169 -0.4196  2.1294  0.0338
   18MOL   H56814882   1.578   0.800   4.322  1.8098 -0.6155 -0.4958
   18MOL   H56914883   1.408   0.546   4.297  2.0594 -0.4000 -0.0259
   18MOL   H57014884   1.409   0.665   4.431 -1.7796  0.5037 -0.7600
   18MOL   H57114885   1.306   0.710   4.150 -0.2246  0.9127 -0.1319
   18MOL   H57214886   1.327   0.832   4.271  0.6042  0.0005 -0.6251
   18MOL   H57314887   1.147   0.594   4.279  1.6169 -0.1131 -1.3814
   18MOL   H57414888   1.164   0.704   4.415 -2.3623 -0.3454 -0.2350
   18MOL   H57514889   1.030   0.748   4.138 -2.5802 -0.1158  0.6835
   18MOL   H57614890   1.066   0.883   4.239  2.2854 -0.4497  0.4394
   18MOL   H57714891   0.907   0.654   4.361 -1.0918 -0.6218 -1.6379
   18MOL   H57814892   0.839   0.786   4.282  0.7411 -0.5831  0.6599
   18MOL   H57914893   1.014   0.829   4.530  1.0651 -1.4677 -1.6844
   18MOL   H58014894   0.934   0.954   4.432 -1.7824  0.1385  0.1293
   18MOL   H58114895   0.824   0.895   4.643 -1.3650  0.6069  0.0073
   18MOL   H58214896   0.797   0.735   4.610 -0.2106  0.5576  0.8504
   18MOL   H58314897   0.663   0.994   4.491  0.8783  0.4772 -0.4276
   18MOL   H58414898   0.655   0.852   4.397  0.0640  0.9006 -0.1942
   18MOL   H58514899   0.457   0.872   4.519  0.8983  0.4163 -0.5452
   18MOL   H58614900   0.544   0.723   4.573 -1.3171 -0.4048 -1.6745
   18MOL   H58714901   0.440   0.847   4.756 -0.2788  0.3540 -1.3728
   18MOL   H58814902   0.617   0.834   4.782 -0.5169  2.5995  3.0719
   18MOL   H58914903   0.544   0.989   4.721  0.8583  0.0387 -0.7411
   18MOL   C59014904   1.783   0.432   4.456  0.5157  0.0572 -0.1570
   18MOL   C59114905   1.713   0.298   4.414 -0.0191 -0.6991  1.3921
   18MOL   C59214906   1.814   0.199   4.374  0.0712  0.2303  0.7176
   18MOL   C59314907   1.870   0.218   4.228  0.7874  0.2192  0.3330
   18MOL   C59414908   1.766   0.186   4.116 -1.1222 -0.6089  1.0070
   18MOL   C59514909   1.838   0.170   3.977 -0.4724 -0.1022 -0.0985
   18MOL   C59614910   1.734   0.184   3.864  0.0205  0.3245 -0.3587
   18MOL   C59714911   1.788   0.176   3.719  0.3677  0.2136 -0.1775
   18MOL   C59814912   1.694   0.154   3.605  0.0632  0.1672 -0.8533
   18MOL   C59914913   1.774   0.151   3.470 -0.2160 -0.1989  0.6106
   18MOL   C60014914   1.691   0.125   3.339 -0.1363  0.7227  0.1277
   18MOL   C60114915   1.754   0.197   3.220 -0.6526 -0.2810 -0.3017
   18MOL   C60214916   1.691   0.158   3.083 -0.4423 -0.3154 -0.4510
   18MOL   C60314917   1.762   0.209   2.960 -0.4477 -0.7797 -0.2793
   18MOL   H60414918   1.822   0.425   4.557  1.5487  1.3444 -0.4446
   18MOL   H60514919   1.872   0.446   4.394 -0.0397  1.0717 -0.7389
   18MOL   H60614920   1.648   0.323   4.330  0.8009 -2.0220  0.3435
   18MOL   H60714921   1.770   0.099   4.371  0.7402 -0.0581  0.4760
   18MOL   H60814922   1.890   0.197   4.452 -0.1434  0.5680  0.9368
   18MOL   H60914923   1.958   0.156   4.214  0.4023 -0.3219  0.2729
   18MOL   H61014924   1.908   0.320   4.215  3.1809 -0.6077  0.6893
   18MOL   H61114925   1.699   0.272   4.114 -0.1457  0.1383 -0.9885
   18MOL   H61214926   1.706   0.097   4.138 -0.5631 -0.5374  2.8779
   18MOL   H61314927   1.879   0.070   3.982  3.9730  1.6912  2.8671
   18MOL   H61414928   1.916   0.245   3.968 -2.1032  1.9064  1.7752
   18MOL   H61514929   1.659   0.105   3.869 -1.0647  1.4695  2.5827
   18MOL   H61614930   1.667   0.270   3.876 -2.4320 -1.6783  0.8396
   18MOL   H61714931   1.855   0.260   3.699  1.9800 -1.4796 -2.1533
   18MOL   H61814932   1.858   0.093   3.707  0.2575 -0.2456  2.0800
   18MOL   H61914933   1.634   0.063   3.614  1.5461 -0.7032  0.4886
   18MOL   H62014934   1.626   0.239   3.604  2.3457  2.0271 -2.0100
   18MOL   H62114935   1.820   0.248   3.454 -2.1423  0.6710  0.2024
   18MOL   H62214936   1.862   0.087   3.482 -1.8895 -2.8538 -0.8614
   18MOL   H62314937   1.592   0.167   3.356 -0.5637 -0.0614 -0.4030
   18MOL   H62414938   1.685   0.016   3.336  0.4289  0.6497  1.2943
   18MOL   H62514939   1.863   0.190   3.216 -0.5484  1.4545 -0.4866
   18MOL   H62614940   1.739   0.304   3.229 -0.7644 -0.3080 -0.1682
   18MOL   H62714941   1.670   0.051   3.079  0.2772 -0.4832  0.2328
   18MOL   H62814942   1.593   0.204   3.087 -0.6334 -0.8156  0.7330
   18MOL   H62914943   1.860   0.161   2.960  0.5658  1.1825  2.2564
   18MOL   H63014944   1.769   0.318   2.963 -0.6774 -0.7966  0.9034
   18MOL   H63114945   1.707   0.184   2.869  0.1544  2.3428 -1.5748
   18MOL   C63214946   1.611   0.264   4.527  0.1639 -0.3787 -0.3412
   18MOL   C63314947   1.502   0.152   4.499  0.4063  0.1657  0.3564
   18MOL   C63414948   1.437   0.101   4.633 -0.5082  0.8679  0.3473
   18MOL   C63514949   1.539   0.024   4.721 -0.8140  0.3623 -0.8517
   18MOL   C63614950   1.463   7.620   4.807 -0.1583  0.2493  0.3284
   18MOL   C63714951   1.563   7.545   4.887  0.0719 -0.0929  0.1822
   18MOL   C63814952   1.594   7.600   5.018 -0.1849 -0.1482 -0.4654
   18MOL   C63914953   1.697   7.518   5.094  0.0688 -0.5155 -0.4852
   18MOL   C64014954   1.729   7.561   5.236  0.3495  0.4413 -0.8923
   18MOL   C64114955   1.818   7.458   5.305  0.1846 -0.5832  0.1559
   18MOL   C64214956   1.817   7.461   5.461 -0.1652 -0.2990 -0.1394
   18MOL   C64314957   1.943   7.401   5.522 -0.0251 -0.3640  0.9237
   18MOL   C64414958   1.963   7.402   5.676  0.0621 -0.6790  0.3763
   18MOL   C64514959   2.095   7.346   5.723 -0.0815  0.7391 -0.8110
   18MOL   H64614960   1.556   0.352   4.560  0.2877 -0.5036  0.2103
   18MOL   H64714961   1.669   0.245   4.618  0.0046 -0.0511 -0.1722
   18MOL   H64814962   1.548   0.071   4.444  0.0165  0.5105 -0.4991
   18MOL   H64914963   1.397   0.186   4.688  0.8908  1.1799  0.9141
   18MOL   H65014964   1.357   0.033   4.604  0.4544 -1.4352  2.7995
   18MOL   H65114965   1.601   0.096   4.774  0.2564 -1.7466  0.8251
   18MOL   H65214966   1.609   7.666   4.656 -2.1391 -2.6640  0.1075
   18MOL   H65314967   1.407   7.551   4.745  0.5313 -2.1972  2.3852
   18MOL   H65414968   1.379   7.655   4.867 -0.0632 -0.1201  0.6768
   18MOL   H65514969   1.534   7.441   4.902  1.7942 -0.2193  3.0125
   18MOL   H65614970   1.658   7.532   4.836 -1.7400 -1.4470 -2.9714
   18MOL   H65714971   1.632   0.006   5.001  2.1444 -0.8834  0.1385
   18MOL   H65814972   1.509   7.614   5.085  0.5409 -2.0352  0.8974
   18MOL   H65914973   1.789   7.519   5.035  0.5580 -0.4909  0.2777
   18MOL   H66014974   1.679   7.411   5.096  1.1750 -0.6995  2.7887
   18MOL   H66114975   1.644   7.579   5.302 -0.8449 -1.9394 -1.7293
   18MOL   H66214976   1.782   7.656   5.227  1.9483 -0.2501  1.0397
   18MOL   H66314977   1.785   7.357   5.283 -0.1613 -0.1859 -1.1938
   18MOL   H66414978   1.914   7.464   5.253  0.1587  0.3237  0.2013
   18MOL   H66514979   1.808   7.560   5.506  0.9271 -0.7045  1.0040
   18MOL   H66614980   1.732   7.418   5.514  0.2411 -3.7951 -2.1692
   18MOL   H66714981   2.025   7.461   5.484 -2.1512  1.4912 -0.8849
   18MOL   H66814982   1.961   7.306   5.471 -0.8266  0.5962 -1.1828
   18MOL   H66914983   1.884   7.348   5.728  0.0089 -0.4666  0.5152
   18MOL   H67014984   1.944   7.505   5.706  1.2650 -0.4051  0.2206
   18MOL   H67114985   2.099   7.237   5.715 -0.2102  0.6374  0.3735
   18MOL   H67214986   2.181   7.381   5.666 -0.0645  2.1679  0.0756
   18MOL   H67314987   2.099   7.358   5.831 -0.8405 -3.2702 -0.2475
   18MOL   C67414988   1.393   0.210   4.410  0.5479 -0.5168  0.2964
   18MOL   C67514989   1.304   0.107   4.327 -0.2764 -0.2845 -0.7259
   18MOL   C67614990   1.177   0.196   4.278 -0.2129  0.4983 -0.4420
   18MOL   C67714991   1.056   0.121   4.233  0.3386 -0.0266  0.0728
   18MOL   C67814992   0.946   0.213   4.175 -1.0095  0.1821  0.3058
   18MOL   C67914993   0.983   0.281   4.036  0.3575  0.0916  0.4376
   18MOL   C68014994   0.875   0.372   3.979 -0.2092 -1.0730 -0.1755
   18MOL   C68114995   0.876   0.513   4.044  0.1830  0.0069 -0.7738
   18MOL   C68214996   0.766   0.613   3.998 -0.1849  0.3654 -0.0623
   18MOL   C68314997   0.791   0.642   3.851 -0.7116 -0.6786  0.1188
   18MOL   C68414998   0.676   0.734   3.805 -0.5811 -0.0400 -0.3623
   18MOL   C68514999   0.679   0.769   3.657  0.2758 -0.3237  0.6176
   18MOL   C68615000   0.588   0.878   3.601 -0.0740  0.0153 -0.7286
   18MOL   C68715001   0.566   0.886   3.451  0.5957  0.6593  0.0357
   18MOL   H68815002   1.440   0.268   4.331 -1.0399  0.2495 -0.1202
   18MOL   H68915003   1.332   0.283   4.465  1.5874 -0.0848  0.8984
   18MOL   H69015004   1.267   0.032   4.397  1.0027  0.3682  0.6735
   18MOL   H69115005   1.151   0.269   4.354  1.0856  0.5076  0.0106
   18MOL   H69215006   1.205   0.267   4.201  0.6468  0.9945  0.3259
   18MOL   H69315007   1.093   0.062   4.149  0.1730 -2.5837  1.7246
   18MOL   H69415008   1.011   0.060   4.312 -2.1267  1.7896  0.1342
   18MOL   H69515009   0.868   0.140   4.151  0.2378 -0.8176 -0.8100
   18MOL   H69615010   0.904   0.284   4.246 -0.9909  0.4536  0.0428
   18MOL   H69715011   1.071   0.339   4.059  0.9906 -1.0498  0.9416
   18MOL   H69815012   1.020   0.212   3.960  0.7696  0.6791  0.1077
   18MOL   H69915013   0.892   0.381   3.871  0.1247  0.5984 -0.0026
   18MOL   H70015014   0.776   0.329   3.993 -0.0923 -1.2899 -0.0144
   18MOL   H70115015   0.876   0.493   4.151 -1.2263  1.2552 -0.5292
   18MOL   H70215016   0.968   0.569   4.023  0.5320 -0.6096 -0.8888
   18MOL   H70315017   0.667   0.585   4.033 -1.1302  2.7687 -0.7329
   18MOL   H70415018   0.774   0.704   4.056 -1.8825 -0.9432  2.3094
   18MOL   H70515019   0.792   0.548   3.795 -0.1190 -0.2490 -0.6080
   18MOL   H70615020   0.885   0.692   3.829 -0.9328 -0.4223 -0.2626
   18MOL   H70715021   0.677   0.820   3.872  0.3662 -1.3334  1.3348
   18MOL   H70815022   0.579   0.693   3.832 -1.3708  1.3567 -1.0252
   18MOL   H70915023   0.661   0.675   3.606 -0.0284 -0.1854  0.4696
   18MOL   H71015024   0.779   0.796   3.622 -0.2934  2.7351  1.2195
   18MOL   H71115025   0.486   0.870   3.640  0.0035 -1.4856 -0.8070
   18MOL   H71215026   0.618   0.977   3.636 -4.3569  0.6696  1.4707
   18MOL   H71315027   0.494   0.809   3.424 -1.3110  2.5545 -0.3648
   18MOL   H71415028   0.535   0.982   3.409 -0.7901 -0.2580 -1.0982
   18MOL   H71515029   0.655   0.848   3.400  0.3413 -0.7913  0.6486
   18MOL   C71615030   1.384   0.049   4.212  0.0484 -0.3325  0.4710
   18MOL   C71715031   1.342   7.607   4.166  0.2835  0.2449  0.2721
   18MOL   C71815032   1.367   7.586   4.017 -0.0987 -0.5783 -0.2047
   18MOL   C71915033   1.515   7.564   3.978  0.1585 -0.1656  0.9713
   18MOL   C72015034   1.534   7.523   3.835  0.5673  0.0287  0.0463
   18MOL   C72115035   1.679   7.489   3.803 -0.1806 -0.0080 -0.3617
   18MOL   C72215036   1.689   7.438   3.657 -0.0454  0.1116  1.1892
   18MOL   C72315037   1.819   7.361   3.635 -0.6556  0.2502  0.4150
   18MOL   C72415038   1.950   7.445   3.648 -0.1862  0.5262 -0.0259
   18MOL   C72515039   2.081   7.367   3.640  0.1903 -0.1668 -0.1480
   18MOL   C72615040   2.206   7.448   3.588  0.2749  0.1697  0.6488
   18MOL   C72715041   2.337   7.367   3.585  0.2018 -0.6313  0.1151
   18MOL   C72815042   2.449   7.454   3.521  0.2773  0.1519 -0.4517
   18MOL   C72915043   2.579   7.384   3.534  0.8707 -0.0999  0.1443
   18MOL   H73015044   1.389   0.115   4.126  0.7127 -0.2202  0.5977
   18MOL   H73115045   1.491   0.044   4.233 -0.1992 -1.1334  1.6179
   18MOL   H73215046   1.235   7.607   4.185 -0.6035  2.0292 -3.9411
   18MOL   H73315047   1.331   7.672   3.960  1.8796  1.5293  1.6246
   18MOL   H73415048   1.306   7.502   3.983  0.0101 -0.8077  0.1679
   18MOL   H73515049   1.580   7.648   4.002  1.4413 -0.4174 -1.4895
   18MOL   H73615050   1.557   7.486   4.041 -0.4923 -3.0940 -2.0756
   18MOL   H73715051   1.466   7.439   3.822 -0.5310  0.6622  1.5579
   18MOL   H73815052   1.484   7.596   3.772 -0.5186 -0.2615  0.5578
   18MOL   H73915053   1.741   7.577   3.824 -0.4559  0.4952 -1.6228
   18MOL   H74015054   1.721   7.418   3.874  0.9363  1.8698  0.9147
   18MOL   H74115055   1.602   7.378   3.632 -0.3472  0.9951  0.0638
   18MOL   H74215056   1.690   7.517   3.581 -0.2858 -0.0841  0.9801
   18MOL   H74315057   1.821   7.322   3.533  1.5156 -2.7645  1.5442
   18MOL   H74415058   1.816   7.270   3.696  1.0071 -0.4623 -0.5530
   18MOL   H74515059   1.950   7.518   3.567 -0.8512  1.0836  0.4631
   18MOL   H74615060   1.953   7.508   3.737  2.1504  2.0678 -1.1430
   18MOL   H74715061   2.103   7.338   3.743  0.0079 -1.9006 -0.5912
   18MOL   H74815062   2.085   7.277   3.580 -0.2517 -1.5096  1.7983
   18MOL   H74915063   2.176   7.487   3.491  0.1392  2.3059  1.5108
   18MOL   H75015064   2.206   7.532   3.658 -2.3147 -0.5310  1.5158
   18MOL   H75115065   2.366   7.341   3.687  1.1466  0.8519  0.2469
   18MOL   H75215066   2.336   7.272   3.531  2.5734 -2.4114  3.0108
   18MOL   H75315067   2.456   7.550   3.572  2.3695 -0.1393 -0.1607
   18MOL   H75415068   2.427   7.465   3.415 -0.0662  1.5253 -0.2487
   18MOL   H75515069   2.579   7.277   3.509 -0.4354 -0.0150 -0.2317
   18MOL   H75615070   2.618   7.378   3.635  1.5494 -1.2456 -0.1764
   18MOL   H75715071   2.646   7.434   3.464  0.5963 -2.3095 -1.7932
   18MOL   C75815072   1.409   7.491   4.257  0.1804 -0.4265 -0.2093
   18MOL   C75915073   1.331   7.358   4.259  0.2450 -0.0827  0.1542
   18MOL   C76015074   1.415   7.250   4.334  0.3095 -0.4630 -0.0401
   18MOL   C76115075   1.436   7.286   4.483 -0.6203  0.3900  0.1516
   18MOL   C76215076   1.522   7.187   4.573 -0.5349  0.1953  0.2326
   18MOL   C76315077   1.541   7.223   4.718 -0.4422 -0.4815 -0.3023
   18MOL   C76415078   1.619   7.113   4.792 -0.5472 -0.3209 -0.3736
   18MOL   C76515079   1.644   7.135   4.941 -0.0561 -0.8231  0.5291
   18MOL   C76615080   1.726   7.014   5.004  0.2070  0.0251 -0.1584
   18MOL   C76715081   1.758   7.039   5.153 -0.6368 -0.9766  0.0064
   18MOL   C76815082   1.883   6.954   5.198 -0.7232 -0.1338 -1.0848
   18MOL   C76915083   1.943   6.987   5.334  0.0243  0.1809 -0.5822
   18MOL   C77015084   2.091   6.953   5.347  0.1315 -0.1294  0.0362
   18MOL   C77115085   2.158   7.031   5.462  0.1370  0.4577  0.0395
   18MOL   H77215086   1.517   7.480   4.246  0.0368 -1.0960 -1.0512
   18MOL   H77315087   1.403   7.539   4.354  1.0220 -2.0530  0.6570
   18MOL   H77415088   1.315   7.334   4.153 -1.1791  2.2831 -0.1957
   18MOL   H77515089   1.363   7.156   4.318  0.9507 -0.7462 -0.4832
   18MOL   H77615090   1.514   7.247   4.289  0.6385  1.2074  0.5245
   18MOL   H77715091   1.494   7.378   4.492  1.0592 -0.1880 -3.6358
   18MOL   H77815092   1.340   7.307   4.528 -0.3513  0.3323  0.7550
   18MOL   H77915093   1.614   7.173   4.517  1.0352  0.7350  2.6107
   18MOL   H78015094   1.464   7.097   4.553 -0.8519  0.2637  0.8530
   18MOL   H78115095   1.443   7.228   4.765  0.0043 -0.0141  0.6006
   18MOL   H78215096   1.591   7.320   4.719  0.7070 -1.0423 -1.5852
   18MOL   H78315097   1.558   7.025   4.769  2.0400 -2.2182 -0.1370
   18MOL   H78415098   1.713   7.080   4.749 -0.7858 -0.1785 -1.0090
   18MOL   H78515099   1.545   7.135   4.986 -0.4986  0.6224 -0.3856
   18MOL   H78615100   1.687   7.234   4.954 -1.3981  0.1454 -1.9285
   18MOL   H78715101   1.816   6.993   4.947 -0.0799 -0.5822 -0.3936
   18MOL   H78815102   1.678   6.917   4.989 -0.2016  0.2021 -0.0066
   18MOL   H78915103   1.672   7.021   5.218  1.3671 -3.7308  1.9965
   18MOL   H79015104   1.786   7.144   5.157 -1.0106 -0.9478  2.3287
   18MOL   H79115105   1.866   6.847   5.193 -0.2122 -0.2484 -0.4302
   18MOL   H79215106   1.961   6.979   5.126 -0.2963  0.1204 -0.5352
   18MOL   H79315107   1.923   7.092   5.359  0.7584  0.3386 -0.6559
   18MOL   H79415108   1.898   6.927   5.413  0.7303  0.5222  0.0894
   18MOL   H79515109   2.112   6.848   5.364 -0.0882 -0.0157  1.0405
   18MOL   H79615110   2.144   6.976   5.255 -0.0613  0.4669  0.0719
   18MOL   H79715111   2.242   6.976   5.503  0.1359 -0.0451 -0.6202
   18MOL   H79815112   2.181   7.127   5.416  0.6264 -0.4306 -1.6190
   18MOL   H79915113   2.102   7.040   5.555 -0.2877 -0.4211 -0.1295
   18MOL   C80015114   1.190   7.376   4.321 -0.1153  0.0636  0.0660
   18MOL   C80115115   1.067   7.355   4.221  0.0292 -0.1020  0.4019
   18MOL   C80215116   0.936   7.382   4.290 -0.7331 -0.4181  0.4739
   18MOL   C80315117   0.815   7.327   4.218 -0.2532 -0.1184  0.1059
   18MOL   C80415118   0.791   7.403   4.083  0.1550 -0.0536  0.0957
   18MOL   C80515119   0.672   7.362   3.997  0.4014  0.1384  0.4768
   18MOL   C80615120   0.644   7.454   3.875 -0.0506 -0.1153  0.0445
   18MOL   C80715121   0.537   7.387   3.790  0.0532 -0.2151 -0.1055
   18MOL   C80815122   0.505   7.487   3.674  0.3334 -0.0414 -0.5651
   18MOL   C80915123   0.409   7.433   3.564 -0.4375 -0.7639 -0.4610
   18MOL   C81015124   0.416   7.517   3.433  0.3218 -0.3813 -0.3263
   18MOL   C81115125   0.304   7.482   3.340  1.0040  0.0754  0.3838
   18MOL   C81215126   0.313   7.546   3.202  0.1242 -0.1737 -0.1291
   18MOL   C81315127   0.206   7.498   3.102  0.2614  0.0416 -0.0113
   18MOL   H81415128   1.175   7.474   4.366 -0.8725  0.8309 -1.7634
   18MOL   H81515129   1.181   7.306   4.404  3.1585 -0.3844  0.1223
   18MOL   H81615130   1.073   7.252   4.187 -2.4059 -0.3832  0.7086
   18MOL   H81715131   0.932   7.490   4.298  3.3821  0.2604 -4.4469
   18MOL   H81815132   0.944   7.349   4.394  1.7848  0.3834  0.5710
   18MOL   H81915133   0.722   7.333   4.275  0.8416 -1.4982  2.1172
   18MOL   H82015134   0.830   7.219   4.210 -0.1361 -0.1273  0.4317
   18MOL   H82115135   0.770   7.508   4.103  0.2117 -0.1828  0.8444
   18MOL   H82215136   0.884   7.413   4.027 -0.5972  1.0433 -0.9648
   18MOL   H82315137   0.582   7.335   4.053  0.3961 -0.4540  0.1846
   18MOL   H82415138   0.707   7.265   3.963  1.4407 -0.4741  3.1589
   18MOL   H82515139   0.624   7.557   3.904  0.9516 -0.1822  1.0159
   18MOL   H82615140   0.739   7.450   3.822 -1.3193 -0.2787 -2.2398
   18MOL   H82715141   0.559   7.282   3.770  0.8690 -0.2019  0.6768
   18MOL   H82815142   0.444   7.383   3.847  1.9809 -0.7024  3.1668
   18MOL   H82915143   0.461   7.575   3.721 -0.8728 -0.4297 -0.9327
   18MOL   H83015144   0.596   7.524   3.627  0.2477 -0.3453 -0.9756
   18MOL   H83115145   0.307   7.440   3.603 -0.2888 -0.4132 -0.1321
   18MOL   H83215146   0.428   7.329   3.539 -0.3960 -0.5311 -1.3999
   18MOL   H83315147   0.409   7.622   3.461 -0.3493 -0.0090 -1.7924
   18MOL   H83415148   0.506   7.513   3.371  0.3996 -2.4602 -0.1168
   18MOL   H83515149   0.207   7.486   3.389  0.3295  2.3373 -1.0832
   18MOL   H83615150   0.321   7.376   3.318  1.8342  0.0642  1.0480
   18MOL   H83715151   0.312   7.654   3.218  2.0358  0.2165 -2.3191
   18MOL   H83815152   0.409   7.529   3.152 -1.3371 -1.8254 -2.4708
   18MOL   H83915153   0.230   7.550   3.009  2.2942 -2.9581 -1.2255
   18MOL   H84015154   0.210   7.391   3.081 -0.5827 -0.2746  1.3517
   18MOL   H84115155   0.106   7.527   3.134  0.7413  0.2985  1.2681
   18MOL   H84215156   1.079   7.423   4.137  0.5638 -0.3875  0.2448
   19MOL     C115157   1.579   7.311   7.404  0.8019 -0.6368  1.0279
   19MOL     C215158   1.558   7.344   7.260  0.0902  0.1608  0.0821
   19MOL     C315159   1.565   7.233   7.157  0.4916  0.2659  0.0071
   19MOL     C415160   1.704   7.166   7.167  1.3409 -0.0496  0.1922
   19MOL     C515161   1.714   7.048   7.067  1.2566  0.3651 -0.4823
   19MOL     C615162   1.605   6.948   7.080  0.5775 -0.0605 -0.0700
   19MOL     C715163   1.626   6.821   7.000 -0.9212 -0.4118 -1.0898
   19MOL     C815164   1.554   6.706   7.076 -0.5853  1.1992  0.2338
   19MOL     C915165   1.512   6.585   6.992 -0.4962 -0.3103  0.1566
   19MOL    C1015166   1.440   6.468   7.064  0.1400 -0.3927  0.1145
   19MOL    C1115167   1.459   6.336   7.004 -0.5353  0.0969 -0.5814
   19MOL    C1215168   1.358   6.232   7.059  0.1421  0.0649  0.6109
   19MOL    C1315169   1.405   6.178   7.193 -0.6954 -0.4209 -0.0108
   19MOL    C1415170   1.508   6.059   7.177  0.4227 -0.0069 -0.4221
   19MOL    H1515171   1.602   7.402   7.458 -1.2452  2.3090 -2.7954
   19MOL    H1615172   1.673   7.257   7.416  1.6547  0.8233  1.0016
   19MOL    H1715173   1.638   7.412   7.231  1.0017 -0.2485  1.5659
   19MOL    H1815174   1.482   7.163   7.160  0.6673  0.0533 -0.2063
   19MOL    H1915175   1.559   7.275   7.057 -0.8758 -1.9485 -0.8698
   19MOL    H2015176   1.725   7.121   7.264  0.0742 -1.3113 -0.1050
   19MOL    H2115177   1.783   7.241   7.164  1.2460  0.0230 -0.5043
   19MOL    H2215178   1.811   6.998   7.063  1.4979  0.7329  0.5888
   19MOL    H2315179   1.690   7.088   6.969  0.1126 -0.4785 -0.5629
   19MOL    H2415180   1.505   6.983   7.057 -0.0654 -1.6886  0.1610
   19MOL    H2515181   1.606   6.911   7.183 -0.2363  0.1358  0.0086
   19MOL    H2615182   1.588   6.836   6.899 -1.6164 -0.6332 -0.8658
   19MOL    H2715183   1.731   6.791   6.998 -1.4084 -2.1398 -1.3228
   19MOL    H2815184   1.464   6.751   7.119 -1.0038  1.1093 -0.5431
   19MOL    H2915185   1.624   6.682   7.156  0.0269  1.3206 -0.2626
   19MOL    H3015186   1.451   6.617   6.907  1.5393  0.1798 -1.1669
   19MOL    H3115187   1.601   6.540   6.948 -0.6944 -1.6128  1.0849
   19MOL    H3215188   1.462   6.471   7.171 -1.8002 -0.1500  0.5351
   19MOL    H3315189   1.334   6.492   7.051 -0.0598 -1.9289 -1.1923
   19MOL    H3415190   1.442   6.348   6.897 -0.1210 -1.8643 -0.8831
   19MOL    H3515191   1.560   6.295   7.004 -1.1431 -1.4086  0.5611
   19MOL    H3615192   1.344   6.152   6.987  3.2051 -0.7338  0.8387
   19MOL    H3715193   1.258   6.275   7.068 -0.0584 -0.5165  1.1935
   19MOL    H3815194   1.456   6.256   7.251 -1.4374 -1.2777  1.8411
   19MOL    H3915195   1.318   6.156   7.255  1.9939 -1.7381  3.4699
   19MOL    H4015196   1.474   5.982   7.108 -2.0737 -0.2413  1.0434
   19MOL    H4115197   1.602   6.106   7.147 -0.8350  1.0160 -2.9821
   19MOL    H4215198   1.536   6.002   7.265  0.1504  0.0330 -0.3105
   19MOL    H4315199   1.504   7.247   7.451  0.0662  0.6389  1.5947
   19MOL    C4415200   1.418   7.417   7.249 -0.0903  0.1536  0.2482
   19MOL    C4515201   1.384   7.496   7.116  0.5198  0.2072 -0.5493
   19MOL    C4615202   1.505   7.587   7.074 -0.4454  0.9762  0.1084
   19MOL    C4715203   1.540   0.015   7.169  0.0422 -0.6218  0.3938
   19MOL    C4815204   1.693   0.042   7.169  0.6752  0.1524  0.0842
   19MOL    C4915205   1.736   0.165   7.255 -0.7642  0.1351 -0.2215
   19MOL    C5015206   1.874   0.219   7.218  0.4145 -0.1535 -0.5622
   19MOL    C5115207   1.915   0.355   7.268  0.4259  0.0155 -0.3857
   19MOL    C5215208   2.060   0.410   7.239 -0.7945 -0.1028 -0.0422
   19MOL    C5315209   2.096   0.547   7.291  0.1366  0.3790  0.4916
   19MOL    C5415210   2.238   0.591   7.256 -0.1909 -0.5367  0.2680
   19MOL    C5515211   2.353   0.528   7.344  0.2352 -0.4429 -0.1329
   19MOL    C5615212   2.494   0.583   7.308 -0.1119 -0.5125  0.0324
   19MOL    C5715213   2.606   0.521   7.391 -0.3125 -0.5699 -0.2505
   19MOL    H5815214   1.338   7.344   7.263  0.6667 -1.0731 -1.6736
   19MOL    H5915215   1.418   7.487   7.333 -1.4536  0.7764 -0.2442
   19MOL    H6015216   1.376   7.421   7.036  0.2377  0.0325 -0.3583
   19MOL    H6115217   1.598   7.530   7.063  0.7232  2.6962  0.8677
   19MOL    H6215218   1.496   7.621   6.971  2.9249  1.9294  0.0616
   19MOL    H6315219   1.509   7.695   7.272  0.0586  1.3853  0.7152
   19MOL    H6415220   1.491   0.105   7.132  2.3883 -0.1447 -1.6350
   19MOL    H6515221   1.725   0.074   7.070  2.4349 -2.2444 -0.1882
   19MOL    H6615222   1.748   7.651   7.207  0.6182 -0.2955 -0.8518
   19MOL    H6715223   1.659   0.242   7.248  0.0207  1.0802  1.2918
   19MOL    H6815224   1.750   0.124   7.355  0.6706 -0.4769 -0.6549
   19MOL    H6915225   1.958   0.150   7.224  1.2925  1.0280  0.8455
   19MOL    H7015226   1.859   0.239   7.111  1.8374  0.8697 -0.5815
   19MOL    H7115227   1.895   0.356   7.375  0.0768 -0.6144 -0.4437
   19MOL    H7215228   1.845   0.429   7.229 -2.1750 -1.2416  1.7077
   19MOL    H7315229   2.132   0.343   7.286  1.3294  1.5792 -0.8373
   19MOL    H7415230   2.084   0.405   7.133 -0.8607 -0.9327 -0.0231
   19MOL    H7515231   2.072   0.541   7.397 -0.0428 -1.5320  0.3607
   19MOL    H7615232   2.025   0.620   7.250  2.2911  2.1360 -0.2154
   19MOL    H7715233   2.252   0.698   7.271  0.9240 -0.4121 -1.5487
   19MOL    H7815234   2.260   0.566   7.152 -0.0701  0.2326  0.1028
   19MOL    H7915235   2.318   0.565   7.440 -3.5994 -0.5980 -1.4094
   19MOL    H8015236   2.343   0.420   7.338  2.8801 -0.7145 -0.1316
   19MOL    H8115237   2.487   0.691   7.322 -1.9847 -0.5827 -0.1249
   19MOL    H8215238   2.515   0.565   7.202  0.0410  0.3799 -0.0923
   19MOL    H8315239   2.698   0.575   7.374 -0.1574 -1.3818 -2.1022
   19MOL    H8415240   2.625   0.414   7.382  1.7368 -0.2411 -0.0687
   19MOL    H8515241   2.567   0.538   7.491  3.3290  0.2787  1.0717
   19MOL    C8615242   1.250   7.573   7.124  0.5718 -0.1925  0.1730
   19MOL    C8715243   1.183   7.595   6.987 -0.3222 -0.0718 -0.1100
   19MOL    C8815244   1.144   0.046   6.966 -0.0707  0.5760  0.1201
   19MOL    C8915245   1.027   0.092   7.053  0.0697 -0.2667 -0.1648
   19MOL    C9015246   0.986   0.238   7.020  0.6940  0.2241 -0.4304
   19MOL    C9115247   0.855   0.271   7.100 -0.0128  0.0392 -0.1488
   19MOL    C9215248   0.792   0.400   7.050 -0.5296  0.4212  0.7442
   19MOL    C9315249   0.682   0.444   7.146  0.5827 -0.1235  0.7210
   19MOL    C9415250   0.633   0.581   7.113 -0.2689 -0.0060 -0.5615
   19MOL    C9515251   0.486   0.604   7.160 -0.2151 -0.2827 -0.5075
   19MOL    C9615252   0.461   0.588   7.308 -0.9359 -0.6768  0.4587
   19MOL    C9715253   0.307   0.606   7.340 -0.2655 -0.5819  0.8206
   19MOL    C9815254   0.266   0.596   7.488 -0.4028  0.4626 -0.3714
   19MOL    C9915255   0.121   0.596   7.502  0.7403 -0.2201 -0.2739
   19MOL   H10015256   1.178   7.528   7.192 -0.7389  0.9412 -0.4401
   19MOL   H10115257   1.266   7.664   7.181  1.2821 -0.7856  0.9430
   19MOL   H10215258   1.258   7.575   6.909 -0.7241 -0.3523 -0.4296
   19MOL   H10315259   1.230   0.108   6.990 -0.5095  0.5559  1.7913
   19MOL   H10415260   1.134   0.069   6.859  0.2746  1.7968  0.3423
   19MOL   H10515261   0.942   0.027   7.034 -0.6804  1.5322 -3.4719
   19MOL   H10615262   1.049   0.067   7.156  2.5603  2.5643  0.0594
   19MOL   H10715263   0.976   0.264   6.915  0.8643  0.7291 -0.3226
   19MOL   H10815264   1.066   0.304   7.056  0.2689  0.1283  0.7148
   19MOL   H10915265   0.877   0.279   7.206 -0.6113 -1.3393  0.0921
   19MOL   H11015266   0.781   0.191   7.097 -0.9269  0.9041 -0.9955
   19MOL   H11115267   0.869   0.477   7.045 -0.7904  0.7645  1.9225
   19MOL   H11215268   0.760   0.385   6.947  0.1179  0.8837  0.4758
   19MOL   H11315269   0.712   0.440   7.250  0.2428 -0.8633  0.7951
   19MOL   H11415270   0.599   0.373   7.148  0.2377  0.3048  2.7556
   19MOL   H11515271   0.708   0.652   7.148 -0.9222  1.0343 -1.2426
   19MOL   H11615272   0.641   0.589   7.005  1.2186 -0.0309 -0.4626
   19MOL   H11715273   0.416   0.546   7.099  0.7239 -0.4557 -1.4221
   19MOL   H11815274   0.459   0.707   7.136  0.9455 -0.0412 -0.7680
   19MOL   H11915275   0.494   0.494   7.352 -0.9510 -0.1477  1.6181
   19MOL   H12015276   0.515   0.667   7.362 -2.3491 -0.2418  1.2629
   19MOL   H12115277   0.269   0.700   7.300 -1.3215 -1.0345  0.7389
   19MOL   H12215278   0.258   0.530   7.280  0.1447 -1.3186  1.4056
   19MOL   H12315279   0.314   0.679   7.540  1.9168 -0.3575 -1.1436
   19MOL   H12415280   0.309   0.507   7.534 -0.1290  0.0241 -1.4798
   19MOL   H12515281   0.093   0.593   7.608  0.4698  0.9393 -0.3082
   19MOL   H12615282   0.073   0.686   7.465 -1.5723 -0.9372  0.8549
   19MOL   H12715283   0.057   0.519   7.458  0.0656 -0.2065  0.6712
   19MOL   C12815284   1.066   7.490   6.965 -0.2876 -0.7234  0.3638
   19MOL   C12915285   1.006   7.484   6.820 -0.9547 -0.3325 -0.1330
   19MOL   C13015286   1.096   7.415   6.721 -0.5451  0.8589 -0.7643
   19MOL   C13115287   1.054   7.423   6.573 -0.2709 -0.3419  0.2128
   19MOL   C13215288   1.172   7.360   6.484 -0.2073 -0.4476  1.2569
   19MOL   C13315289   1.143   7.359   6.333 -0.2795 -0.0297 -0.0971
   19MOL   C13415290   1.253   7.293   6.246 -0.6442  0.9655 -0.0576
   19MOL   C13515291   1.369   7.381   6.226 -0.1877 -0.2594 -0.1462
   19MOL   C13615292   1.473   7.311   6.137 -0.1176 -0.3953 -0.0471
   19MOL   C13715293   1.603   7.398   6.137 -0.2253 -0.2758 -0.2530
   19MOL   C13815294   1.727   7.322   6.079 -0.8959 -0.0497 -0.7277
   19MOL   C13915295   1.872   7.371   6.129  0.2207  0.0774  0.0561
   19MOL   C14015296   1.905   7.502   6.072  0.1577 -0.2599  0.0836
   19MOL   C14115297   2.052   7.547   6.076  0.0903 -0.0037 -0.3546
   19MOL   H14215298   1.111   7.393   6.985  1.7203  0.5287  2.2468
   19MOL   H14315299   0.989   7.506   7.041 -0.5064 -1.3872  0.2873
   19MOL   H14415300   0.998   7.587   6.784 -0.9732  0.2379  1.4566
   19MOL   H14515301   1.201   7.440   6.736  0.3185 -2.9640  0.2575
   19MOL   H14615302   1.104   7.309   6.746  1.9002  1.3929  0.8683
   19MOL   H14715303   0.960   7.370   6.560  0.6546 -1.7392 -1.0437
   19MOL   H14815304   1.029   7.523   6.539  0.0162 -0.0041  0.9800
   19MOL   H14915305   1.265   7.411   6.505 -0.2050 -0.2876  0.8689
   19MOL   H15015306   1.197   7.261   6.521  1.1912 -1.1289 -1.4035
   19MOL   H15115307   1.044   7.320   6.308 -0.2952  0.3244 -0.6047
   19MOL   H15215308   1.129   7.464   6.308 -0.1034 -0.4119 -1.8782
   19MOL   H15315309   1.285   7.198   6.288  1.3280  0.8428 -1.7384
   19MOL   H15415310   1.216   7.264   6.148  1.1482 -0.8023 -0.2560
   19MOL   H15515311   1.339   7.472   6.175  1.3336  0.3509  0.0203
   19MOL   H15615312   1.410   7.411   6.322 -1.1451 -0.5013  0.3409
   19MOL   H15715313   1.491   7.217   6.188 -0.4575 -0.2273  0.3863
   19MOL   H15815314   1.443   7.285   6.035 -0.4173  2.0542 -0.6252
   19MOL   H15915315   1.631   7.421   6.240 -0.0837 -0.4903 -0.2451
   19MOL   H16015316   1.597   7.495   6.088 -0.3906  0.3809  1.0488
   19MOL   H16115317   1.721   7.223   6.125  0.6198  0.7035  1.1299
   19MOL   H16215318   1.720   7.301   5.972 -2.8232 -1.8453 -0.2879
   19MOL   H16315319   1.874   7.373   6.238 -1.5973 -3.9056  0.2736
   19MOL   H16415320   1.948   7.297   6.105  0.5775 -0.2656  2.1170
   19MOL   H16515321   1.878   7.497   5.967  0.5130  0.3995 -0.0403
   19MOL   H16615322   1.843   7.582   6.115  0.1656 -0.2452  0.0682
   19MOL   H16715323   2.060   7.632   6.009  1.8000  0.5129  0.4800
   19MOL   H16815324   2.055   7.591   6.176  3.2281 -0.4846 -0.1877
   19MOL   H16915325   2.136   7.480   6.057 -0.0762 -0.5042  0.6615
   19MOL   C17015326   0.855   7.423   6.816  0.4811 -0.7418 -0.6063
   19MOL   C17115327   0.750   7.519   6.882 -0.3496  0.1359  0.2333
   19MOL   C17215328   0.739   7.654   6.805  0.1401 -0.3520  0.9192
   19MOL   C17315329   0.630   0.065   6.857  0.2133  0.2093  0.1525
   19MOL   C17415330   0.627   0.194   6.770  0.0043  0.9699  0.6610
   19MOL   C17515331   0.518   0.288   6.806  0.1485 -0.2109  0.1982
   19MOL   C17615332   0.530   0.413   6.724  0.0749 -0.6360 -0.5004
   19MOL   C17715333   0.428   0.523   6.775 -0.0959  0.0000 -0.3248
   19MOL   C17815334   0.445   0.662   6.703  0.9643 -0.1743 -0.3649
   19MOL   C17915335   0.351   0.766   6.758  0.1140 -0.1647  0.2518
   19MOL   C18015336   0.376   0.914   6.708 -0.4213  0.0943 -0.3006
   19MOL   C18115337   0.311   0.932   6.568 -0.4523 -0.2569  0.1034
   19MOL   C18215338   0.313   1.080   6.528  0.0384 -0.0044  0.0588
   19MOL   C18315339   0.292   1.099   6.380  0.3170  0.4814 -0.2019
   19MOL   H18415340   0.853   7.331   6.874 -0.7213  0.3857  1.1822
   19MOL   H18515341   0.812   7.401   6.718 -1.9685  1.0687  0.0242
   19MOL   H18615342   0.777   7.539   6.986  1.9901 -1.5936 -0.0025
   19MOL   H18715343   0.836   0.009   6.802 -0.7814  1.5397  2.0373
   19MOL   H18815344   0.721   7.622   6.702  0.5704 -0.1456  0.7782
   19MOL   H18915345   0.530   0.023   6.845  0.8010 -1.0296 -0.6070
   19MOL   H19015346   0.638   0.099   6.960 -1.4706 -0.5514  0.5622
   19MOL   H19115347   0.731   0.225   6.769  0.3474 -0.0690 -1.9398
   19MOL   H19215348   0.623   0.175   6.663  2.6365 -1.3140  0.8967
   19MOL   H19315349   0.533   0.326   6.907  2.1238 -1.1576  0.3014
   19MOL   H19415350   0.422   0.238   6.804 -0.0739  0.2365 -0.2085
   19MOL   H19515351   0.506   0.392   6.620 -0.1536  3.0120 -1.2566
   19MOL   H19615352   0.635   0.442   6.727  0.1911 -1.0703 -0.2406
   19MOL   H19715353   0.449   0.540   6.881 -0.5626 -0.3251 -0.1778
   19MOL   H19815354   0.331   0.474   6.768  0.3672 -0.9366 -0.2895
   19MOL   H19915355   0.437   0.656   6.595  4.4162  3.7207 -0.9805
   19MOL   H20015356   0.545   0.703   6.719  0.4544  0.5558  1.0123
   19MOL   H20115357   0.357   0.771   6.867 -1.0473  0.6835  0.2929
   19MOL   H20215358   0.249   0.731   6.741 -0.0193  0.6390 -0.6108
   19MOL   H20315359   0.479   0.950   6.710 -0.3640 -0.0848 -0.0499
   19MOL   H20415360   0.317   0.983   6.769 -4.5738 -1.9751 -1.7892
   19MOL   H20515361   0.358   0.873   6.489  1.2394  2.2092 -0.7710
   19MOL   H20615362   0.207   0.899   6.566 -0.6905  0.4880 -1.3583
   19MOL   H20715363   0.240   1.136   6.586  1.1119  1.3491  0.1209
   19MOL   H20815364   0.411   1.115   6.560  0.2485  0.4294 -1.0234
   19MOL   H20915365   0.370   1.041   6.332  0.3950  1.4813 -1.2971
   19MOL   H21015366   0.298   1.206   6.359 -1.8401  0.5440 -0.6918
   19MOL   H21115367   0.196   1.052   6.356  0.2815  0.3813  0.1361
   19MOL   C21215368   0.607   7.448   6.891 -0.0025 -0.8992 -0.2349
   19MOL   C21315369   0.570   7.388   7.032 -0.3511  0.3348 -0.9466
   19MOL   C21415370   0.661   7.277   7.082 -0.1743 -0.2552 -0.3504
   19MOL   C21515371   0.652   7.143   7.002 -0.4069 -0.2907 -0.2708
   19MOL   C21615372   0.749   7.026   7.036  0.5969  0.0487 -0.5694
   19MOL   C21715373   0.720   6.892   6.959  0.2498  0.0230  0.7992
   19MOL   C21815374   0.775   6.896   6.806 -0.4004  0.4813 -0.1612
   19MOL   C21915375   0.726   6.769   6.724  0.1462 -0.0467  0.3743
   19MOL   C22015376   0.767   6.777   6.577  0.3952  0.2392 -0.1110
   19MOL   C22115377   0.729   6.659   6.483  0.0068  0.4916  0.3864
   19MOL   C22215378   0.589   6.655   6.420 -0.2690 -0.3601  0.4791
   19MOL   C22315379   0.549   6.525   6.336 -0.3392  0.5560 -0.3152
   19MOL   C22415380   0.395   6.509   6.310  0.3269  0.3129 -0.4192
   19MOL   C22515381   0.335   6.602   6.209 -0.5918  0.4484  0.0526
   19MOL   H22615382   0.587   7.374   6.813 -2.9690  1.2233 -1.5991
   19MOL   H22715383   0.529   7.515   6.855  0.0592 -0.0762  1.1424
   19MOL   H22815384   0.470   7.345   7.020 -0.7445  0.4288  1.8636
   19MOL   H22915385   0.760   7.324   7.082 -1.1103  1.9538 -3.6093
   19MOL   H23015386   0.632   7.245   7.181 -0.1491  1.0139  0.0781
   19MOL   H23115387   0.668   7.176   6.899  1.0654  0.7353  0.2666
   19MOL   H23215388   0.551   7.103   6.996 -0.7602  0.6618 -0.8515
   19MOL   H23315389   0.745   6.992   7.140  1.4179 -0.3442 -0.6626
   19MOL   H23415390   0.853   7.057   7.029  0.5463  0.1012 -1.0476
   19MOL   H23515391   0.617   6.860   6.967 -0.0426  1.3678  2.4604
   19MOL   H23615392   0.782   6.827   7.021  0.9023  0.6668  0.8292
   19MOL   H23715393   0.742   6.989   6.760  0.9078  1.2148  0.3541
   19MOL   H23815394   0.883   6.896   6.818 -0.4760 -0.8531  0.6041
   19MOL   H23915395   0.782   6.693   6.778 -1.3881 -1.1857  0.4196
   19MOL   H24015396   0.619   6.748   6.732 -0.1493  1.8089  1.6786
   19MOL   H24115397   0.876   6.786   6.574  0.5189 -1.5841 -2.0849
   19MOL   H24215398   0.730   6.874   6.545 -0.6578 -0.0507  0.2034
   19MOL   H24315399   0.804   6.651   6.404  2.6486  1.0946  2.7790
   19MOL   H24415400   0.757   6.563   6.526 -0.9141 -1.0770 -2.4080
   19MOL   H24515401   0.558   6.749   6.374 -1.5095 -0.4898  1.0253
   19MOL   H24615402   0.526   6.651   6.509  1.0695  0.5207  1.4899
   19MOL   H24715403   0.572   6.435   6.392 -2.0700  0.4714  0.2838
   19MOL   H24815404   0.608   6.532   6.244 -3.1493 -1.5316 -2.3399
   19MOL   H24915405   0.350   6.515   6.409  1.7594  3.0185  0.1158
   19MOL   H25015406   0.371   6.408   6.279  1.0920  0.0223 -0.0776
   19MOL   H25115407   0.229   6.593   6.186 -0.5047  0.2883 -0.2844
   19MOL   H25215408   0.357   6.704   6.242  0.5996 -0.4904  2.3155
   19MOL   H25315409   0.391   6.602   6.115 -1.2414  0.2470 -0.3362
   19MOL   C25415410   0.552   7.501   7.137 -0.1932 -0.1317 -0.0630
   19MOL   C25515411   0.428   7.591   7.132 -0.3976  0.0353 -0.5696
   19MOL   C25615412   0.294   7.515   7.155  0.0471 -0.0507 -0.6402
   19MOL   C25715413   0.289   7.440   7.290 -0.3490  0.0893 -0.0490
   19MOL   C25815414   0.173   7.332   7.306  0.1063 -0.0095 -0.2842
   19MOL   C25915415   0.191   7.243   7.428 -0.1972  0.1542  0.2292
   19MOL   C26015416   0.294   7.118   7.405  0.1833 -0.0581  0.2604
   19MOL   C26115417   0.306   7.042   7.533 -0.4555  0.9696  0.3581
   19MOL   C26215418   0.396   7.112   7.626 -0.0879  0.6462  0.3495
   19MOL   C26315419   0.426   7.048   0.070  0.5438 -0.4923 -0.2773
   19MOL   C26415420   0.529   7.114   0.164  0.4636 -0.2842  0.2197
   19MOL   C26515421   0.676   7.098   0.119 -0.5947 -0.0008  0.1497
   19MOL   C26615422   0.776   7.148   0.230  0.3127  0.0636  1.0092
   19MOL   C26715423   0.920   7.134   0.204  0.1931 -0.8096  0.3479
   19MOL   H26815424   0.636   7.570   7.138  0.0093 -0.3010 -2.4617
   19MOL   H26915425   0.567   7.467   7.239  0.9391  2.1082  0.5430
   19MOL   H27015426   0.426   7.606   7.024 -1.8746 -0.4339 -0.6172
   19MOL   H27115427   0.269   7.434   7.086  0.3268  0.8414 -1.8162
   19MOL   H27215428   0.212   7.587   7.150 -1.3007 -1.5315 -0.4075
   19MOL   H27315429   0.302   7.502   7.379  0.5891  1.8142 -1.3571
   19MOL   H27415430   0.382   7.384   7.287 -1.2007 -1.6959  3.3146
   19MOL   H27515431   0.173   7.277   7.212  0.2858 -0.6142  0.0706
   19MOL   H27615432   0.074   7.379   7.310 -1.4418 -2.8583 -3.0233
   19MOL   H27715433   0.098   7.191   7.451  0.2443  0.0419  1.7921
   19MOL   H27815434   0.216   7.301   7.517 -0.0874 -1.2286  1.1086
   19MOL   H27915435   0.260   7.052   7.325 -2.1356  1.8181 -0.3324
   19MOL   H28015436   0.396   7.151   7.384  0.6266 -1.3500  0.3305
   19MOL   H28115437   0.360   6.950   7.509  1.2457  1.7940  0.9733
   19MOL   H28215438   0.212   7.006   7.575  0.2182 -0.2377  0.8662
   19MOL   H28315439   0.488   7.136   7.573  0.0955  1.9382  1.2330
   19MOL   H28415440   0.357   7.211   7.651 -1.8702  0.4054 -1.3810
   19MOL   H28515441   0.448   6.945   0.042  1.1286 -0.5207  0.2885
   19MOL   H28615442   0.335   7.040   0.130  0.6123  0.1922 -0.0792
   19MOL   H28715443   0.526   7.069   0.263  1.3477 -0.5143  0.1450
   19MOL   H28815444   0.520   7.221   0.176  1.7463 -0.4307  2.6248
   19MOL   H28915445   0.690   6.990   0.123 -1.2374 -0.0633  0.9501
   19MOL   H29015446   0.710   7.139   0.024 -0.1389  1.8869  1.1105
   19MOL   H29115447   0.754   7.253   0.248  0.4635  0.8977 -3.1105
   19MOL   H29215448   0.746   7.103   0.324 -0.0245  1.5673  1.6274
   19MOL   H29315449   0.971   7.156   0.298 -0.4889  2.6376 -0.0496
   19MOL   H29415450   0.941   7.211   0.130 -4.3601  0.7528  0.5301
   19MOL   H29515451   0.939   7.037   0.157  2.5827  0.6129 -1.7309
   19MOL   C29615452   0.447   0.022   7.225  0.2974 -0.2141  0.7554
   19MOL   C29715453   0.322   0.110   7.258 -0.1563 -0.7953 -0.3451
   19MOL   C29815454   0.354   0.195   7.380 -0.7957 -0.7424 -0.7444
   19MOL   C29915455   0.366   0.118   7.516  0.2037  0.3510 -0.3365
   19MOL   C30015456   0.230   0.069   7.568  0.4245  0.1813 -0.5171
   19MOL   C30115457   0.221   0.017   0.020 -0.0680  0.6167  0.4537
   19MOL   C30215458   0.325   7.614   0.066 -0.3658  0.1182  0.3267
   19MOL   C30315459   0.328   7.600   0.220 -0.1805  0.1366  0.7039
   19MOL   C30415460   0.382   7.472   0.252  0.7066  0.0963 -0.5986
   19MOL   C30515461   0.391   7.448   0.403 -0.3043 -0.0798  1.0310
   19MOL   C30615462   0.455   7.316   0.434  0.1899  0.1747 -0.4685
   19MOL   C30715463   0.470   7.285   0.589 -0.1985 -0.4578  0.2087
   19MOL   C30815464   0.534   7.144   0.610  0.1585  0.2701 -0.2782
   19MOL   C30915465   0.602   7.105   0.742  0.3800  0.1674 -0.0426
   19MOL   H31015466   0.522   0.095   7.196 -0.5291 -0.4212 -2.0541
   19MOL   H31115467   0.480   7.668   7.316 -2.2005 -2.3065  0.6108
   19MOL   H31215468   0.240   0.045   7.290  0.1395 -0.7149  0.5820
   19MOL   H31315469   0.283   0.278   7.382  0.7271  0.5537  1.7167
   19MOL   H31415470   0.452   0.234   7.355 -1.6200 -1.1374 -4.9215
   19MOL   H31515471   0.399   0.182   7.598 -0.7758 -1.0041  1.1595
   19MOL   H31615472   0.438   0.037   7.521 -1.4213 -1.0526  0.9246
   19MOL   H31715473   0.145   0.136   7.556 -0.8596 -1.2012  0.5370
   19MOL   H31815474   0.190   7.684   7.505 -2.3364 -0.3009  1.7293
   19MOL   H31915475   0.123   7.694   0.066 -1.2072  0.3504 -2.0275
   19MOL   H32015476   0.244   0.108   0.075 -1.8697  0.9433  0.6985
   19MOL   H32115477   0.302   7.516   0.025 -2.2419  1.3654 -1.7579
   19MOL   H32215478   0.420   7.642   0.020 -0.1942  0.9024  1.1463
   19MOL   H32315479   0.230   7.608   0.267 -0.2074  2.0999  0.3600
   19MOL   H32415480   0.381   7.677   0.277  1.9177 -1.8512  1.5220
   19MOL   H32515481   0.315   7.402   0.203 -0.3080  0.1272  0.7109
   19MOL   H32615482   0.481   7.444   0.216  0.0793  1.7696 -3.7390
   19MOL   H32715483   0.294   7.454   0.453 -2.3424 -0.7668 -2.6448
   19MOL   H32815484   0.456   7.530   0.436  2.0498 -2.1183  1.5755
   19MOL   H32915485   0.559   7.326   0.403  0.1674  1.7954 -0.0546
   19MOL   H33015486   0.412   7.234   0.376  1.6098 -0.0340 -1.2323
   19MOL   H33115487   0.378   7.297   0.645  0.9152  0.8684  1.8185
   19MOL   H33215488   0.528   7.359   0.645 -1.6183  0.6639  0.2209
   19MOL   H33315489   0.615   7.137   0.537 -0.3549 -3.5817 -0.5509
   19MOL   H33415490   0.467   7.068   0.571 -1.1407 -0.1446  2.6828
   19MOL   H33515491   0.677   7.179   0.772  0.5364  0.6811 -1.6870
   19MOL   H33615492   0.528   7.113   0.822 -0.8295  0.3915 -1.1636
   19MOL   H33715493   0.633   7.001   0.752  1.2414  0.4328  0.0844
   19MOL   C33815494   0.277   0.205   7.143  0.0502  0.8564 -0.1108
   19MOL   C33915495   0.133   0.274   7.155 -0.9048  0.0557 -0.2002
   19MOL   C34015496   0.131   0.382   7.043 -0.5649  1.3180 -0.3636
   19MOL   C34115497   0.041   0.497   7.077 -0.4386 -0.0677  0.0443
   19MOL   C34215498   0.096   0.627   7.025  0.8160 -0.1057 -0.0076
   19MOL   C34315499   0.021   0.750   7.084  0.5694  0.4994 -0.4272
   19MOL   C34415500   0.083   0.885   7.028 -0.4849 -0.0332 -0.3065
   19MOL   C34515501   7.686   1.006   7.053 -0.2904  0.1397  0.0151
   19MOL   C34615502   0.021   1.132   6.976 -0.2433  0.1480  0.5277
   19MOL   C34715503   7.685   1.116   6.819 -0.3101  0.5531  0.2160
   19MOL   C34815504   7.681   1.259   6.763 -0.1120 -0.9056  0.1264
   19MOL   C34915505   7.639   1.266   6.619 -0.6454  0.4243  0.6563
   19MOL   C35015506   7.638   1.407   6.566  0.2422 -0.2545  0.8042
   19MOL   C35115507   7.651   1.413   6.414  0.6573  0.4985  0.3083
   19MOL   H35215508   0.355   0.281   7.131 -0.7821  1.6377 -0.6149
   19MOL   H35315509   0.274   0.155   7.047 -2.7277  0.6989  0.0264
   19MOL   H35415510   0.114   0.325   7.249  0.3708 -3.1226  1.8487
   19MOL   H35515511   0.233   0.420   7.041 -0.0751  0.0430 -0.2207
   19MOL   H35615512   0.120   0.342   6.942 -1.3361 -1.8949  0.9206
   19MOL   H35715513   0.046   0.521   7.184  1.3040  3.7024 -0.7857
   19MOL   H35815514   7.633   0.479   7.049  0.0529  1.9812 -3.3571
   19MOL   H35915515   0.081   0.636   6.917 -2.3294  3.9864  0.6454
   19MOL   H36015516   0.204   0.625   7.035  0.9293  1.4155 -0.7277
   19MOL   H36115517   7.610   0.762   7.062 -0.2894 -1.4370  2.4686
   19MOL   H36215518   0.027   0.754   7.192 -2.3665  1.1035 -0.2286
   19MOL   H36315519   0.184   0.897   7.066 -0.7684  0.9709  0.1497
   19MOL   H36415520   0.080   0.875   6.919  1.4846  1.8273 -0.5632
   19MOL   H36515521   7.585   0.974   7.026 -0.4425 -0.7815  1.5986
   19MOL   H36615522   7.685   1.026   7.160 -1.9684  1.0738 -0.1591
   19MOL   H36715523   7.667   1.222   7.012  1.5080  2.4015 -2.4354
   19MOL   H36815524   0.124   1.164   6.989 -0.5216  1.4357 -0.3464
   19MOL   H36915525   0.055   1.050   6.763 -0.3344  1.5762 -1.0343
   19MOL   H37015526   7.587   1.068   6.816 -0.8238  1.5996  0.0728
   19MOL   H37115527   0.085   1.301   6.776  0.3260 -1.6610 -0.6967
   19MOL   H37215528   7.621   1.326   6.824  0.6574 -1.0510  1.0559
   19MOL   H37315529   7.535   1.236   6.603  0.3161 -1.6667 -2.1651
   19MOL   H37415530   0.001   1.194   6.560 -0.9816 -0.5835  1.5387
   19MOL   H37515531   7.555   1.471   6.595 -2.0132 -2.3865 -0.8254
   19MOL   H37615532   0.043   1.441   6.592  0.5594 -0.7281  0.1956
   19MOL   H37715533   0.060   1.405   6.383  0.0522  0.7860 -1.9580
   19MOL   H37815534   7.588   1.339   6.365  1.0379  0.9691 -0.9301
   19MOL   H37915535   7.611   1.507   6.376 -0.8090 -0.6434 -1.0579
   19MOL   C38015536   0.031   0.169   7.135  0.1790  0.1690 -0.0049
   19MOL   C38115537   7.579   0.211   7.143 -0.1549 -0.1633 -0.4550
   19MOL   C38215538   7.520   0.214   7.002  0.1391  0.7248  0.1905
   19MOL   C38315539   7.384   0.277   6.996  0.3663 -0.0488  0.5334
   19MOL   C38415540   7.333   0.292   6.849 -0.1983 -0.2370 -0.1954
   19MOL   C38515541   7.180   0.336   6.835 -0.2441 -0.3318 -0.1787
   19MOL   C38615542   7.127   0.324   6.690  0.5167  0.6306 -0.3209
   19MOL   C38715543   6.976   0.361   6.678 -0.1801  0.6304 -0.2659
   19MOL   C38815544   6.909   0.353   6.535 -0.6343  0.2371 -0.6139
   19MOL   C38915545   6.755   0.380   6.528  0.6441  0.3051  0.2281
   19MOL   C39015546   6.679   0.323   6.405 -0.2411  0.4800 -0.5267
   19MOL   C39115547   6.683   0.408   6.275 -0.2812  0.1143  0.1785
   19MOL   C39215548   6.827   0.436   6.210 -0.6315 -0.0595  0.3517
   19MOL   C39315549   6.822   0.534   6.088 -0.2932  0.3265 -0.3964
   19MOL   H39415550   0.047   0.097   7.216 -0.7739  1.0856  1.0144
   19MOL   H39515551   0.042   0.105   7.048 -1.9960  1.8778 -1.6064
   19MOL   H39615552   7.575   0.317   7.167 -1.8438  0.1444 -1.9999
   19MOL   H39715553   7.517   0.119   6.948  0.6639 -0.7896  2.7506
   19MOL   H39815554   7.580   0.274   6.934 -0.5311  0.7698 -0.3701
   19MOL   H39915555   7.387   0.371   7.051 -2.2282  0.2256  0.2818
   19MOL   H40015556   7.313   0.209   7.044 -1.6163  0.8529 -1.0633
   19MOL   H40115557   7.353   0.194   6.805 -1.2303 -1.0030  1.0008
   19MOL   H40215558   7.404   0.358   6.801  0.2883 -0.5503  0.0891
   19MOL   H40315559   7.164   0.438   6.870  0.6204  0.0718 -0.9227
   19MOL   H40415560   7.127   0.273   6.907 -0.1639 -0.4416 -0.2151
   19MOL   H40515561   7.182   0.379   6.614 -2.4985  1.0422 -2.2957
   19MOL   H40615562   7.136   0.217   6.671  1.0306  0.4840  0.7029
   19MOL   H40715563   6.921   0.312   6.759 -0.4794  2.0119  0.3856
   19MOL   H40815564   6.964   0.466   6.704  0.3988  0.6291  0.0161
   19MOL   H40915565   6.958   0.429   6.474  0.6799 -0.0307  0.1019
   19MOL   H41015566   6.938   0.255   6.497  0.3546  0.2248  0.1581
   19MOL   H41115567   6.739   0.488   6.534 -0.5967  0.1080  0.7372
   19MOL   H41215568   6.719   0.329   6.618  0.0372 -0.2170 -0.3013
   19MOL   H41315569   6.730   0.231   6.376  0.5093  0.3125  1.2429
   19MOL   H41415570   6.582   0.289   6.440  1.4256 -3.4566  0.5598
   19MOL   H41515571   6.633   0.505   6.282 -0.8481 -0.2356  1.1393
   19MOL   H41615572   6.624   0.350   6.205 -0.5044  0.3857  0.1403
   19MOL   H41715573   6.892   0.478   6.287  0.9491 -1.0264 -0.4406
   19MOL   H41815574   6.866   0.340   6.176  2.0382  0.1278  2.7345
   19MOL   H41915575   6.773   0.631   6.102 -0.8234 -0.2482  1.9194
   19MOL   H42015576   6.775   0.488   6.001 -1.5980  1.1552 -0.1410
   19MOL   H42115577   6.925   0.550   6.054  0.2887 -0.5837  0.8919
   19MOL   C42215578   7.496   0.126   7.247  0.6174  0.2563 -0.4539
   19MOL   C42315579   7.531   0.144   7.397 -0.7479  0.2042 -0.1783
   19MOL   C42415580   7.549   0.292   7.436 -0.9404 -0.2470 -0.4848
   19MOL   C42515581   7.429   0.370   7.414  0.8344  0.7387  0.0582
   19MOL   C42615582   7.440   0.524   7.447 -0.3422  0.5020 -0.5793
   19MOL   C42715583   7.312   0.595   7.418 -0.0300 -0.7122  0.4490
   19MOL   C42815584   7.324   0.744   7.452  0.1617  0.3852  0.1907
   19MOL   C42915585   7.339   0.776   7.603 -0.1342  0.2884 -0.5609
   19MOL   C43015586   7.325   0.922   7.622  0.1404  0.0185 -0.3617
   19MOL   C43115587   7.344   0.956   0.078  0.9021 -0.3633  0.4362
   19MOL   C43215588   7.340   1.111   0.101  0.3477  0.4452 -0.0130
   19MOL   C43315589   7.345   1.142   0.248  0.2297 -0.8696  0.4551
   19MOL   C43415590   7.297   1.287   0.273  0.6604 -0.3866  0.4302
   19MOL   C43515591   7.147   1.321   0.251 -0.3883  0.4822  0.4388
   19MOL   H43615592   7.520   0.023   7.221  2.9040  0.4386  0.7043
   19MOL   H43715593   7.391   0.151   7.236  0.5387  0.8619  1.4514
   19MOL   H43815594   7.625   0.089   7.407 -0.2463  0.5113 -2.7390
   19MOL   H43915595   7.641   0.334   7.396 -0.9091  0.7571  0.6065
   19MOL   H44015596   7.585   0.297   7.538 -0.1964  2.5500 -0.8520
   19MOL   H44115597   7.396   0.358   7.311  0.7821  1.1666  0.0227
   19MOL   H44215598   7.346   0.335   7.475  1.4210 -2.0783 -0.6881
   19MOL   H44315599   7.518   0.573   7.389  0.0858  1.2878  0.6633
   19MOL   H44415600   7.476   0.537   7.548 -1.3444  0.2775 -0.1860
   19MOL   H44515601   7.229   0.557   7.477 -0.0910  0.9440  1.4850
   19MOL   H44615602   7.288   0.592   7.312 -0.5570 -0.1578  0.5437
   19MOL   H44715603   7.412   0.784   7.401  0.7689 -1.2901 -0.0966
   19MOL   H44815604   7.247   0.810   7.411  1.2730  1.6865  0.1575
   19MOL   H44915605   7.255   0.742   7.664 -0.7826  0.5285 -1.3132
   19MOL   H45015606   7.429   0.731   7.644 -0.5683 -0.4352 -0.3813
   19MOL   H45115607   7.393   0.975   7.556 -0.9079  0.6214 -0.9689
   19MOL   H45215608   7.229   0.965   7.596  0.3177 -0.1136 -1.2254
   19MOL   H45315609   7.255   0.907   0.116 -0.3387 -0.2044 -2.1448
   19MOL   H45415610   7.429   0.913   0.132  1.9556 -1.3025 -1.8592
   19MOL   H45515611   7.436   1.141   0.059  2.4276  0.1321  4.2713
   19MOL   H45615612   7.268   1.155   0.033 -0.1203 -0.0511  0.1592
   19MOL   H45715613   7.442   1.126   0.293  0.9186  1.6833 -0.0734
   19MOL   H45815614   7.282   1.072   0.303  1.6455 -1.5463  1.2090
   19MOL   H45915615   7.324   1.325   0.372 -0.2016 -0.6836  0.7958
   19MOL   H46015616   7.355   1.347   0.204 -0.9480 -1.4253 -1.8904
   19MOL   H46115617   7.102   1.253   0.178  3.7864 -2.3385  0.2931
   19MOL   H46215618   7.146   1.420   0.206  0.2118 -0.2737 -1.3106
   19MOL   H46315619   7.080   1.319   0.337 -1.1961  2.7471 -0.1033
   19MOL   C46415620   7.443   0.060   7.498  0.2924 -0.2162  0.2165
   19MOL   C46515621   7.478   7.604   7.505 -0.3081  0.3248 -0.6331
   19MOL   C46615622   7.547   7.570   7.641  0.0097 -0.3122 -0.5912
   19MOL   C46715623   7.638   7.448   7.632  0.0955 -0.4254 -0.5779
   19MOL   C46815624   7.673   7.392   0.081 -0.1434  0.1310 -0.0829
   19MOL   C46915625   0.056   7.268   0.066 -0.5669  0.1365 -0.0242
   19MOL   C47015626   0.095   7.192   0.197 -0.4042  0.2740 -0.7662
   19MOL   C47115627   0.034   7.055   0.209 -0.3145  0.8276  0.1914
   19MOL   C47215628   0.089   6.983   0.334  0.5308 -0.2747 -0.0891
   19MOL   C47315629   0.009   6.871   0.386 -0.1109 -0.0026  0.5585
   19MOL   C47415630   7.559   6.889   0.374 -0.1585  0.0994 -0.1469
   19MOL   C47515631   7.481   6.783   0.451  0.3627  0.5586 -0.6946
   19MOL   C47615632   7.334   6.775   0.415 -0.0849 -0.1997 -0.0610
   19MOL   C47715633   7.254   6.673   0.497  0.2348  0.3595 -0.8260
   19MOL   H47815634   7.341   0.071   7.463 -0.3231 -3.3321  0.8809
   19MOL   H47915635   7.446   0.100   7.599 -0.5327  1.9083 -0.5759
   19MOL   H48015636   7.552   7.580   7.429  2.4400 -0.8644  2.2989
   19MOL   H48115637   7.607   7.656   7.671 -0.2874  1.0938 -3.8230
   19MOL   H48215638   7.466   7.552   0.017 -0.9606  0.6438 -1.4469
   19MOL   H48315639   0.037   7.475   7.583  0.4661 -0.5741  0.0509
   19MOL   H48415640   7.598   7.367   7.572 -1.6280  0.2472 -0.3503
   19MOL   H48515641   7.574   7.368   0.121  0.9905 -2.6285  1.2085
   19MOL   H48615642   0.024   7.468   0.145  0.0093 -0.5521  0.6257
   19MOL   H48715643   7.692   7.203   0.002 -0.2954  1.3227 -1.5095
   19MOL   H48815644   0.152   7.275   0.014 -0.8329 -1.8666 -0.8485
   19MOL   H48915645   0.202   7.188   0.213 -0.4217 -0.8587 -0.8931
   19MOL   H49015646   0.058   7.244   0.285  2.0110 -0.0003  0.4495
   19MOL   H49115647   7.625   7.081   0.216 -0.8202 -0.4056 -2.1445
   19MOL   H49215648   0.058   6.993   0.122 -2.3376  0.0261  0.1925
   19MOL   H49315649   0.195   6.961   0.319  0.1619 -0.1607 -3.3455
   19MOL   H49415650   0.074   7.055   0.413  0.4367  1.0537 -1.2960
   19MOL   H49515651   0.037   6.775   0.342 -0.0460  0.6776 -0.8994
   19MOL   H49615652   0.038   6.858   0.490  1.5701  0.8508  0.2087
   19MOL   H49715653   7.518   6.982   0.414 -0.7021  0.1385 -0.7864
   19MOL   H49815654   7.524   6.894   0.272 -2.0697  1.0284  0.5439
   19MOL   H49915655   7.509   6.788   0.556  0.2223  0.1869 -0.6366
   19MOL   H50015656   7.522   6.684   0.431 -1.8820 -0.6497  0.4365
   19MOL   H50115657   7.291   6.875   0.420  0.1607  0.0072 -1.8433
   19MOL   H50215658   7.320   6.752   0.309  0.4759 -1.0097  0.0355
   19MOL   H50315659   7.149   6.665   0.469 -0.0596 -0.0744  0.3827
   19MOL   H50415660   7.305   6.576   0.501 -1.3683 -0.5472 -1.7422
   19MOL   H50515661   7.272   6.708   0.598  0.4290 -0.7687 -0.4546
   19MOL   C50615662   7.360   7.501   7.472  0.3316 -0.8308  0.0906
   19MOL   C50715663   7.308   7.500   7.327  0.3769  0.4731 -0.5693
   19MOL   C50815664   7.412   7.441   7.231 -0.2969 -0.2969  0.2864
   19MOL   C50915665   7.435   7.291   7.226 -0.7219  0.2996  0.3466
   19MOL   C51015666   7.531   7.234   7.130 -0.1882 -0.8038  0.0717
   19MOL   C51115667   7.559   7.084   7.147 -0.3711  0.5262 -0.1034
   19MOL   C51215668   7.651   7.025   7.044 -0.5027 -0.7016 -0.1354
   19MOL   C51315669   0.007   6.883   7.060  0.4948 -0.2512 -0.0832
   19MOL   C51415670   0.125   6.874   7.165 -0.3301 -0.2897 -0.1393
   19MOL   C51515671   0.213   6.749   7.158  1.4656  0.0774  0.0438
   19MOL   C51615672   0.295   6.733   7.033 -0.1390  0.3740  1.3875
   19MOL   C51715673   0.377   6.603   7.019  0.2275 -0.0740 -0.6921
   19MOL   C51815674   0.433   6.558   6.881  0.3873 -0.1238 -0.2866
   19MOL   C51915675   0.563   6.480   6.889 -0.3617 -1.1476 -0.0247
   19MOL   H52015676   7.276   7.539   7.530  0.3865  0.0220 -0.3713
   19MOL   H52115677   7.367   7.405   7.522 -1.7534 -1.1856 -0.2709
   19MOL   H52215678   7.288   7.603   7.299  0.1378  0.2711 -1.1587
   19MOL   H52315679   7.387   7.478   7.132 -2.2043  0.7239  1.1382
   19MOL   H52415680   7.506   7.494   7.249 -1.2956  1.6389 -0.1967
   19MOL   H52515681   7.450   7.254   7.327 -2.8744 -0.4858  0.4240
   19MOL   H52615682   7.344   7.250   7.182  0.0829 -0.8043 -0.3154
   19MOL   H52715683   7.618   7.297   7.148  0.0186 -0.6741 -1.3177
   19MOL   H52815684   7.498   7.255   7.028  0.2217 -1.3470 -0.1719
   19MOL   H52915685   7.464   7.032   7.134 -1.2976  1.9410  0.8403
   19MOL   H53015686   7.585   7.064   7.251 -1.3275 -0.2582 -0.0002
   19MOL   H53115687   7.604   7.029   6.946 -0.4408  1.7166 -0.0853
   19MOL   H53215688   0.048   7.079   7.029  0.1994 -1.6594  0.6744
   19MOL   H53315689   0.041   6.852   6.961 -2.0345 -2.0940 -0.4070
   19MOL   H53415690   7.625   6.809   7.079 -0.9805  1.0870 -0.7335
   19MOL   H53515691   0.083   6.871   7.265 -0.3994  2.1231 -0.0677
   19MOL   H53615692   0.195   6.957   7.155 -0.5124  0.1051  1.7113
   19MOL   H53715693   0.283   6.755   7.241 -0.2672 -0.7078  1.6090
   19MOL   H53815694   0.156   6.657   7.171  0.8261  0.6900  1.7257
   19MOL   H53915695   0.244   6.752   6.939  1.0017  0.2673  0.7402
   19MOL   H54015696   0.371   6.810   7.023  0.6587 -0.5048  0.6173
   19MOL   H54115697   0.312   6.523   7.055  0.0943  0.7762  0.9697
   19MOL   H54215698   0.460   6.615   7.088  1.3681 -0.3185 -2.0054
   19MOL   H54315699   0.456   6.645   6.821  3.5974  0.1917  1.3120
   19MOL   H54415700   0.364   6.500   6.820  0.4504 -2.0868  1.4456
   19MOL   H54515701   0.582   6.432   6.793 -1.1308 -0.7898 -0.3635
   19MOL   H54615702   0.652   6.536   6.919 -0.4684 -0.9118 -0.1414
   19MOL   H54715703   0.564   6.404   6.967 -0.2612 -2.6623 -1.4747
   19MOL   C54815704   7.166   7.429   7.313  0.4954 -0.3892 -0.0733
   19MOL   C54915705   7.101   7.441   7.176  0.1456 -0.1600  0.0249
   19MOL   C55015706   6.982   7.344   7.155 -0.5661 -0.3745 -0.9573
   19MOL   C55115707   7.005   7.224   7.057 -0.2012 -0.1461 -0.1785
   19MOL   C55215708   6.919   7.103   7.064  0.0873 -0.4530 -0.1282
   19MOL   C55315709   6.774   7.144   7.018 -0.1671  0.3083  0.5441
   19MOL   C55415710   6.671   7.028   7.015 -0.0354  0.1872 -0.1807
   19MOL   C55515711   6.536   7.057   6.948  0.9564  0.0393  0.0682
   19MOL   C55615712   6.439   7.151   7.023  0.1408  0.2252 -0.1505
   19MOL   C55715713   6.301   7.144   6.963 -0.2903 -0.4576 -0.8736
   19MOL   C55815714   6.190   7.200   7.051 -0.1746  0.6505 -0.3984
   19MOL   C55915715   6.046   7.179   6.996  0.4890 -0.3693  0.1207
   19MOL   C56015716   5.929   7.237   7.075 -0.6627 -1.3817 -0.4997
   19MOL   C56115717   5.794   7.188   7.010 -0.6691 -0.4157 -0.1412
   19MOL   H56215718   7.176   7.323   7.338  0.3666 -0.5286 -0.6019
   19MOL   H56315719   7.116   7.489   7.388  1.5565  1.6176 -0.9221
   19MOL   H56415720   7.172   7.414   7.097  0.9988  0.3185  0.6136
   19MOL   H56515721   6.960   7.299   7.252  1.6226  1.9168  0.6644
   19MOL   H56615722   6.892   7.397   7.124 -1.1484 -0.2377  0.8772
   19MOL   H56715723   7.106   7.184   7.070 -0.6826 -1.0011  1.0201
   19MOL   H56815724   7.002   7.275   6.961 -1.3882  0.9401  0.4180
   19MOL   H56915725   6.961   7.025   7.000  1.6888  1.3501 -1.3481
   19MOL   H57015726   6.917   7.060   7.164  0.7182 -0.6196 -0.1831
   19MOL   H57115727   6.785   7.175   6.914 -1.4469  1.3541  0.7022
   19MOL   H57215728   6.729   7.227   7.074 -0.9588 -0.0998  0.5115
   19MOL   H57315729   6.722   6.951   6.957  2.8217 -0.8672  3.4721
   19MOL   H57415730   6.662   6.983   7.114 -1.1030 -2.6135 -1.4963
   19MOL   H57515731   6.485   6.963   6.931  0.3465  0.5045 -0.7476
   19MOL   H57615732   6.547   7.095   6.846 -1.0517 -2.9829 -1.3217
   19MOL   H57715733   6.465   7.257   7.026 -2.3330  0.8718 -0.2160
   19MOL   H57815734   6.428   7.114   7.125  1.3445  0.7606  0.1809
   19MOL   H57915735   6.294   7.198   6.869  0.8323  0.3008 -0.5269
   19MOL   H58015736   6.287   7.040   6.934 -1.2741 -0.8868  1.0253
   19MOL   H58115737   6.200   7.308   7.060  2.6458  0.7734 -3.6447
   19MOL   H58215738   6.198   7.147   7.145  1.5456 -0.6149 -1.2206
   19MOL   H58315739   6.040   7.224   6.897  1.4450  2.0934  1.1435
   19MOL   H58415740   6.016   7.076   6.975  1.0997 -0.4421 -0.3820
   19MOL   H58515741   5.946   7.219   7.182 -0.2955  0.1765 -0.2748
   19MOL   H58615742   5.933   7.346   7.065 -1.1502 -1.3630 -0.4877
   19MOL   H58715743   5.704   7.230   7.056 -1.9469 -0.6028 -2.3855
   19MOL   H58815744   5.785   7.212   6.904 -1.1474  0.6229  0.1341
   19MOL   H58915745   5.783   7.080   7.022  0.9671 -0.5428  0.3566
   19MOL   C59015746   7.054   7.584   7.148 -0.2560  0.0389  0.2367
   19MOL   C59115747   7.005   7.613   7.003 -0.1477 -0.3026  0.1701
   19MOL   C59215748   6.934   0.057   6.990  0.2709 -0.5536 -0.2332
   19MOL   C59315749   6.782   0.063   7.031  0.5389  0.0345  0.4748
   19MOL   C59415750   6.707   0.164   6.950 -0.2426 -0.1798  0.6102
   19MOL   C59515751   6.553   0.162   6.967 -0.0346  0.8978 -0.2311
   19MOL   C59615752   6.490   0.243   6.855 -0.4534 -0.2018  0.1483
   19MOL   C59715753   6.348   0.214   6.823 -0.7607  0.6547  0.4335
   19MOL   C59815754   6.244   0.270   6.923 -0.2568  0.2510 -0.0078
   19MOL   C59915755   6.106   0.209   6.909 -0.3103 -0.3565 -0.3389
   19MOL   C60015756   6.002   0.297   6.987 -0.6805 -0.6628  0.1398
   19MOL   C60115757   5.853   0.246   6.989  0.6154  0.4927 -0.0287
   19MOL   C60215758   5.753   0.349   7.059 -0.0011  0.7584 -0.5766
   19MOL   C60315759   5.618   0.281   7.080 -0.3237  0.0408 -0.0355
   19MOL   H60415760   7.130   7.659   7.171  0.8627 -0.9877 -0.0381
   19MOL   H60515761   6.967   7.599   7.212 -0.2180 -0.3236  0.3710
   19MOL   H60615762   6.937   7.536   6.967 -0.5530  0.5050 -0.8126
   19MOL   H60715763   6.948   0.107   6.894 -0.4664  0.1316  0.0064
   19MOL   H60815764   6.983   0.124   7.059  1.2202 -0.4527 -0.9979
   19MOL   H60915765   6.759   0.066   7.138  1.7950 -1.7695  0.8358
   19MOL   H61015766   6.732   7.668   6.995  1.6120 -0.4080  0.0838
   19MOL   H61115767   6.728   0.146   6.845 -1.1657  0.3878  0.3234
   19MOL   H61215768   6.751   0.263   6.962  0.1995 -0.5011  1.7083
   19MOL   H61315769   6.528   0.209   7.063 -0.9855  1.4158 -0.7201
   19MOL   H61415770   6.506   0.064   6.955 -0.7742  1.2464 -0.2466
   19MOL   H61515771   6.516   0.348   6.870  1.5939 -0.5231 -0.9433
   19MOL   H61615772   6.534   0.225   6.757  2.1840 -0.5053  1.3374
   19MOL   H61715773   6.326   0.243   6.720  0.9680 -0.1201 -0.1779
   19MOL   H61815774   6.333   0.106   6.828  0.1601  0.5570  1.1515
   19MOL   H61915775   6.284   0.266   7.024  1.7873 -0.5961 -0.8218
   19MOL   H62015776   6.233   0.378   6.909  0.8575  0.3108 -0.4436
   19MOL   H62115777   6.076   0.206   6.804 -0.1073  0.9489 -0.4454
   19MOL   H62215778   6.108   0.112   6.958 -1.2689 -0.3122 -0.2153
   19MOL   H62315779   6.013   0.400   6.953 -4.2112  0.1333  1.1755
   19MOL   H62415780   6.042   0.299   7.088 -1.0368  1.0163  0.2567
   19MOL   H62515781   5.852   0.155   7.050 -3.2321  1.2502  1.1499
   19MOL   H62615782   5.820   0.217   6.890 -0.7291 -0.1646  0.5959
   19MOL   H62715783   5.794   0.374   7.157 -0.3601 -1.0912  0.0650
   19MOL   H62815784   5.739   0.445   7.008 -0.2666 -0.0680 -2.0779
   19MOL   H62915785   5.613   0.222   7.172 -0.0998 -0.5213 -0.3829
   19MOL   H63015786   5.577   0.208   7.010  0.6279 -0.2372 -0.3091
   19MOL   H63115787   5.551   0.366   7.095  0.2639  0.4680  0.1987
   19MOL   C63215788   7.119   7.613   6.904  0.5094  0.2277 -0.2062
   19MOL   C63315789   7.097   7.536   6.763 -0.3826 -0.3805 -0.0580
   19MOL   C63415790   6.998   7.609   6.667 -0.1966 -0.2413  1.0707
   19MOL   C63515791   6.852   7.559   6.679 -0.3357  0.1218  0.2942
   19MOL   C63615792   6.752   7.633   6.580 -0.1602 -0.4035 -0.3114
   19MOL   C63715793   6.602   7.600   6.605 -0.1950  0.6460  0.1512
   19MOL   C63815794   6.508   7.642   6.496 -0.0208 -0.1291  0.0223
   19MOL   C63915795   6.534   7.580   6.353 -0.1324  0.2984 -0.1484
   19MOL   C64015796   6.440   7.612   6.243  0.2176  0.0231 -0.1480
   19MOL   C64115797   6.448   7.525   6.116 -0.4504  0.5129 -0.3424
   19MOL   C64215798   6.344   7.560   6.006  0.0272  0.3638  0.0066
   19MOL   C64315799   6.344   7.474   5.880  0.4782 -0.7945 -0.0645
   19MOL   C64415800   6.240   7.508   5.777  0.2667 -0.0735 -0.5810
   19MOL   C64515801   6.217   7.399   5.674 -0.1933  0.5598 -1.0946
   19MOL   H64615802   7.210   7.573   6.948  0.5741  0.5240 -0.0701
   19MOL   H64715803   7.153   0.018   6.881 -0.4029  0.5054 -0.3531
   19MOL   H64815804   7.051   7.438   6.777 -2.3601  0.2392 -1.8973
   19MOL   H64915805   7.003   0.021   6.679  0.4767 -0.0157 -1.1509
   19MOL   H65015806   7.005   7.584   6.561  0.4369 -0.1281  1.0855
   19MOL   H65115807   6.810   7.560   6.779 -0.7493 -1.5310  0.1569
   19MOL   H65215808   6.861   7.456   6.642  0.6245 -0.4628  2.1090
   19MOL   H65315809   6.778   7.605   6.478 -0.2510 -0.5655 -0.2900
   19MOL   H65415810   6.777   0.043   6.590  0.0501 -0.4732 -0.0828
   19MOL   H65515811   6.600   7.492   6.624 -2.1259  0.9219  1.7611
   19MOL   H65615812   6.587   7.659   6.696  1.5471 -0.1410  0.9888
   19MOL   H65715813   6.401   7.626   6.514 -0.0698  2.4207  2.3360
   19MOL   H65815814   6.522   0.053   6.479  2.9648 -0.2363  1.5831
   19MOL   H65915815   6.530   7.471   6.356  5.6994 -0.2531 -4.0246
   19MOL   H66015816   6.635   7.600   6.317  0.0530 -0.2614  0.0458
   19MOL   H66115817   6.466   0.019   6.219  0.6117 -0.1227 -0.3378
   19MOL   H66215818   6.337   7.606   6.279 -0.4522  1.3709 -1.7830
   19MOL   H66315819   6.550   7.522   6.078 -0.3973 -0.0517 -0.1678
   19MOL   H66415820   6.432   7.421   6.145  1.1949  0.1239 -0.7650
   19MOL   H66515821   6.246   7.563   6.055 -0.1965 -0.0396 -0.4111
   19MOL   H66615822   6.362   7.663   5.974 -0.9306  0.7517  0.6711
   19MOL   H66715823   6.341   7.370   5.913 -1.0013 -0.2610  1.5342
   19MOL   H66815824   6.442   7.489   5.834 -0.2649  1.9052 -0.8692
   19MOL   H66915825   6.268   7.595   5.717 -0.3455  0.1622 -0.5360
   19MOL   H67015826   6.147   7.541   5.824  0.2220 -0.0993 -0.6494
   19MOL   H67115827   6.137   7.424   5.605 -1.0172  0.3698 -0.2108
   19MOL   H67215828   6.305   7.371   5.616 -0.0571 -2.5668  0.5162
   19MOL   H67315829   6.161   7.315   5.714  0.3246 -1.2475 -4.0482
   19MOL   C67415830   7.232   7.497   6.696 -0.0260 -0.3896 -0.4111
   19MOL   C67515831   7.322   7.610   6.649 -0.2586  0.3051 -0.6500
   19MOL   C67615832   7.450   7.615   6.745 -0.3691  0.7757 -0.5265
   19MOL   C67715833   7.560   7.506   6.729 -0.0317 -0.2422 -0.1968
   19MOL   C67815834   7.671   7.514   6.834  0.7231  0.4442 -0.8331
   19MOL   C67915835   0.060   7.388   6.838 -0.4393  0.8850 -0.3241
   19MOL   C68015836   0.186   7.386   6.746  0.5822  0.6580  0.1185
   19MOL   C68115837   0.272   7.257   6.765  0.0531  0.1142  0.2403
   19MOL   C68215838   0.218   7.121   6.721 -0.1246 -0.5367  0.1092
   19MOL   C68315839   0.322   7.020   6.687 -0.2372 -0.1057  0.3595
   19MOL   C68415840   0.268   6.878   6.645 -0.4816 -0.4722  0.0523
   19MOL   C68515841   0.201   6.884   6.505  0.0930  0.2450  0.2648
   19MOL   C68615842   0.111   6.759   6.481 -0.3856 -0.0841 -0.3486
   19MOL   C68715843   0.006   6.764   6.374 -0.0460 -0.8736  0.6130
   19MOL   H68815844   7.200   7.445   6.606 -2.1696 -1.9252  1.1985
   19MOL   H68915845   7.288   7.430   6.761 -0.7684  1.7564  2.5684
   19MOL   H69015846   7.282   0.015   6.663 -0.3473  0.2001 -0.1386
   19MOL   H69115847   7.494   0.019   6.731  1.0879  0.3768  1.0690
   19MOL   H69215848   7.422   7.635   6.848  0.2747 -1.7049  0.1619
   19MOL   H69315849   7.503   7.416   6.748 -0.7855  0.6856  2.0750
   19MOL   H69415850   7.609   7.505   6.632  1.3722  0.3607  0.4954
   19MOL   H69515851   0.038   7.600   6.811  1.2376  0.5488  0.8888
   19MOL   H69615852   7.624   7.524   6.932 -0.1236 -2.6430 -0.8402
   19MOL   H69715853   0.098   7.367   6.938 -0.3243 -0.3660 -0.6190
   19MOL   H69815854   7.695   7.301   6.814 -1.7439  1.3678  1.1169
   19MOL   H69915855   0.150   7.398   6.643  0.2512  0.5978  0.2254
   19MOL   H70015856   0.258   7.465   6.766  1.3651 -0.0868  0.3099
   19MOL   H70115857   0.363   7.272   6.707  0.0122 -0.7808 -0.0658
   19MOL   H70215858   0.300   7.259   6.871 -2.1167  0.1321  0.8422
   19MOL   H70315859   0.164   7.067   6.798  0.5273 -3.8938 -1.7137
   19MOL   H70415860   0.155   7.146   6.635  0.8196 -2.4988 -1.2053
   19MOL   H70515861   0.384   7.027   6.776 -0.5642  1.8191  0.4516
   19MOL   H70615862   0.388   7.046   6.604 -1.6833 -1.9229 -1.4040
   19MOL   H70715863   0.195   6.845   6.719  0.0484  1.5614  1.5212
   19MOL   H70815864   0.348   6.804   6.641  0.1745  0.1966  0.7360
   19MOL   H70915865   0.279   6.901   6.431 -0.4394 -0.2532 -0.4160
   19MOL   H71015866   0.143   6.976   6.495  0.6732  0.8728  2.4672
   19MOL   H71115867   0.174   6.674   6.457 -0.5643 -0.1818 -0.4692
   19MOL   H71215868   0.064   6.745   6.579  2.4826  1.0632  1.2589
   19MOL   H71315869   7.652   6.861   6.381 -0.0978 -1.0313  2.6681
   19MOL   H71415870   0.065   6.749   6.284 -1.0717 -1.5953  0.0370
   19MOL   H71515871   7.630   6.684   6.353  0.0291 -0.2873 -2.0840
   19MOL   C71615872   7.356   7.587   6.496  0.8202  0.3329 -0.0801
   19MOL   C71715873   7.444   0.001   6.435  0.2843 -0.2089 -0.1265
   19MOL   C71815874   7.502   7.648   6.300  0.1045 -0.3993 -0.3908
   19MOL   C71915875   7.640   7.583   6.319  0.0149  0.6227 -0.2442
   19MOL   C72015876   0.007   7.533   6.186 -0.4366  0.1956 -0.8463
   19MOL   C72115877   0.149   7.478   6.212 -0.1372 -0.6853  0.7412
   19MOL   C72215878   0.214   7.434   6.086  0.3223  0.6218  0.3581
   19MOL   C72315879   0.352   7.363   6.094  0.1006 -0.3620 -0.0845
   19MOL   C72415880   0.339   7.212   6.120  0.6499  0.0405 -0.4147
   19MOL   C72515881   0.483   7.141   6.129 -1.0713 -0.0591 -0.0534
   19MOL   C72615882   0.483   6.995   6.094 -0.4195  0.3378  0.3256
   19MOL   C72715883   0.624   6.937   6.106 -0.3389 -0.4897 -0.4126
   19MOL   C72815884   0.637   6.823   6.016  0.7050  0.0185  0.1457
   19MOL   C72915885   0.770   6.761   6.013  0.0223  0.2353 -0.5055
   19MOL   H73015886   7.406   7.493   6.475 -0.0903 -0.3812  0.8911
   19MOL   H73115887   7.262   7.585   6.441  0.0414  0.5963  1.2077
   19MOL   H73215888   7.514   0.033   6.513  1.1961  1.8200 -1.7400
   19MOL   H73315889   7.524   0.029   6.226 -1.1240  1.3064  0.9575
   19MOL   H73415890   7.432   7.581   6.250 -0.0952  0.2186 -0.9505
   19MOL   H73515891   0.010   7.658   6.363  0.8189 -1.0765  1.4961
   19MOL   H73615892   7.631   7.493   6.380 -2.1913 -0.1135 -1.5925
   19MOL   H73715893   7.631   7.452   6.170  0.6138 -1.0000  0.3127
   19MOL   H73815894   7.695   7.603   6.104  0.5578  2.0518  0.6041
   19MOL   H73915895   0.206   7.562   6.252 -0.5634 -0.7650  1.5390
   19MOL   H74015896   0.155   7.407   6.295  0.4575 -1.0338  0.4032
   19MOL   H74115897   0.139   7.382   6.026  2.0596 -0.2815 -1.0982
   19MOL   H74215898   0.226   7.530   6.035 -1.1918  0.8376  0.3863
   19MOL   H74315899   0.420   7.411   6.164  0.4403 -1.1340  0.1182
   19MOL   H74415900   0.401   7.370   5.998  0.6770  0.4405  0.2653
   19MOL   H74515901   0.286   7.202   6.215 -0.7816  2.0482 -0.9628
   19MOL   H74615902   0.289   7.160   6.038  0.6433 -1.9433  0.8363
   19MOL   H74715903   0.558   7.182   6.062 -1.6068 -0.8216 -1.1395
   19MOL   H74815904   0.525   7.157   6.228  1.1574  1.0828 -1.1310
   19MOL   H74915905   0.416   6.931   6.151  0.8631 -1.0565  0.2897
   19MOL   H75015906   0.440   6.980   5.995 -0.4690  0.1943  0.3698
   19MOL   H75115907   0.695   7.010   6.069 -1.3747 -0.3729 -2.2506
   19MOL   H75215908   0.647   6.918   6.210  1.5755  1.1503 -0.5214
   19MOL   H75315909   0.603   6.845   5.914 -1.5924 -1.8914  0.4470
   19MOL   H75415910   0.574   6.738   6.044 -1.0691  0.9488 -0.9389
   19MOL   H75515911   0.804   6.746   6.116 -1.0314 -0.0832 -0.2010
   19MOL   H75615912   0.847   6.822   5.966 -0.1403  0.8080 -0.0351
   19MOL   H75715913   0.774   6.659   5.973  1.5021 -0.4666  1.3096
   19MOL   C75815914   7.349   0.120   6.403  0.8708  0.3455 -0.1730
   19MOL   C75915915   7.408   0.248   6.351 -0.4059  0.5358 -0.2061
   19MOL   C76015916   7.292   0.341   6.306  0.3448  0.0044 -0.7438
   19MOL   C76115917   7.326   0.459   6.212 -0.2579  0.3877 -0.1121
   19MOL   C76215918   7.194   0.547   6.200 -0.2082  0.2843 -0.2341
   19MOL   C76315919   7.157   0.619   6.334 -0.2232  0.3380  0.0730
   19MOL   C76415920   7.083   0.752   6.337  0.1004 -0.3185  0.2246
   19MOL   C76515921   7.039   0.782   6.481  0.3597  0.1279  0.0431
   19MOL   C76615922   6.948   0.904   6.474  0.3520  0.3332 -0.1695
   19MOL   C76715923   6.896   0.959   6.605 -0.3723 -0.3666 -1.2507
   19MOL   C76815924   6.787   1.059   6.578 -0.3187  0.3112  0.4747
   19MOL   C76915925   6.758   1.147   6.707  0.3561  0.0329 -0.5229
   19MOL   C77015926   6.639   1.237   6.679  0.8824 -0.5592  0.6303
   19MOL   C77115927   6.653   1.346   6.576  0.2874 -0.2637  0.0670
   19MOL   H77215928   7.282   0.088   6.324  0.1189  0.7183  0.3061
   19MOL   H77315929   7.289   0.147   6.491 -1.5386 -0.0232 -1.6479
   19MOL   H77415930   7.456   0.228   6.255  0.8055 -0.2221  0.5525
   19MOL   H77515931   7.212   0.282   6.263  0.2384  1.3398 -2.4370
   19MOL   H77615932   7.261   0.391   6.398  0.0549 -0.3375 -0.6584
   19MOL   H77715933   7.408   0.515   6.258 -0.4136  0.9748 -0.5452
   19MOL   H77815934   7.369   0.411   6.124  1.1281 -0.6593  1.1064
   19MOL   H77915935   7.118   0.480   6.158  0.6051 -0.2801 -0.8348
   19MOL   H78015936   7.215   0.619   6.121  0.5001  0.6135  0.2513
   19MOL   H78115937   7.253   0.647   6.375  0.3170 -1.0497 -0.1957
   19MOL   H78215938   7.100   0.543   6.388 -0.7572  1.1194  0.6145
   19MOL   H78315939   7.147   0.832   6.298  0.0302 -0.7728 -0.8447
   19MOL   H78415940   7.000   0.727   6.270 -0.8437 -0.7320  1.5379
   19MOL   H78515941   7.126   0.799   6.544  0.1775 -2.5166  1.0535
   19MOL   H78615942   6.984   0.700   6.528  0.4898  1.2659  2.2164
   19MOL   H78715943   6.871   0.880   6.401  0.1627 -0.1542  0.1851
   19MOL   H78815944   7.007   0.979   6.422 -1.1110  0.1737 -2.1116
   19MOL   H78915945   6.977   1.002   6.665 -1.7016  0.2561  0.1169
   19MOL   H79015946   6.871   0.873   6.666  0.6513 -2.5548 -3.8000
   19MOL   H79115947   6.811   1.123   6.492 -0.8498  0.5479  0.5020
   19MOL   H79215948   6.694   1.009   6.551  0.8701 -1.9659  0.4700
   19MOL   H79315949   6.716   1.089   6.789 -1.0541  2.1054  0.2699
   19MOL   H79415950   6.850   1.196   6.741  1.8861 -2.0646 -1.5635
   19MOL   H79515951   6.557   1.177   6.640  0.5221  0.9344 -0.9713
   19MOL   H79615952   6.602   1.295   6.763 -0.9396  0.9511 -1.1441
   19MOL   H79715953   6.559   1.398   6.557 -1.1419 -2.4012  1.0850
   19MOL   H79815954   6.726   1.420   6.608 -0.9677  0.6517  0.8719
   19MOL   H79915955   6.689   1.315   6.478  0.1644  1.2937 -0.4800
   19MOL   C80015956   7.506   0.314   6.453 -0.0327  0.2077 -0.5517
   19MOL   C80115957   7.657   0.314   6.404 -0.3336 -0.3934 -0.0461
   19MOL   C80215958   0.049   0.382   6.510 -0.5013 -0.3554  0.0977
   19MOL   C80315959   0.067   0.319   6.646  0.0760 -0.4445 -0.1765
   19MOL   C80415960   0.116   0.170   6.644 -0.0369  0.4035 -0.1078
   19MOL   C80515961   0.241   0.150   6.546 -0.2547  0.3403  0.2113
   19MOL   C80615962   0.295   0.003   6.560 -0.3986 -0.7245  0.1648
   19MOL   C80715963   0.417   7.666   6.469 -0.5025  0.0776 -0.1696
   19MOL   C80815964   0.479   7.529   6.508  0.5134  0.4013 -0.4379
   19MOL   C80915965   0.596   7.485   6.419 -0.2007  0.1129  0.3822
   19MOL   C81015966   0.633   7.342   6.450  0.3749  0.2214  0.2539
   19MOL   C81115967   0.740   7.290   6.353  0.0745 -0.4422 -0.1158
   19MOL   C81215968   0.754   7.138   6.387  0.1909 -0.3514 -0.0553
   19MOL   C81315969   0.863   7.062   6.312 -0.4778  0.0507  0.6209
   19MOL   H81415970   7.490   0.263   6.548  2.2934 -1.8340 -1.2247
   19MOL   H81515971   7.470   0.416   6.471 -1.3939 -0.2220 -0.7278
   19MOL   H81615972   7.661   0.370   6.311  0.7634 -0.3523  0.0206
   19MOL   H81715973   0.024   0.487   6.527 -1.7967 -0.9016  1.6468
   19MOL   H81815974   0.151   0.392   6.471 -0.4011  0.3539  0.5307
   19MOL   H81915975   7.667   0.326   6.698 -0.7291 -0.3930 -1.6272
   19MOL   H82015976   0.140   0.392   6.681 -1.3745  1.2216 -0.5811
   19MOL   H82115977   0.156   0.124   6.734  1.2571  1.4271 -0.1361
   19MOL   H82215978   0.045   0.092   6.618 -1.7694  0.6780  3.4202
   19MOL   H82315979   0.318   0.218   6.582  0.9781  0.0153 -1.7492
   19MOL   H82415980   0.210   0.185   6.448 -3.1383 -0.7633  0.6703
   19MOL   H82515981   0.332   7.675   6.659 -3.0603  1.0902  1.6335
   19MOL   H82615982   0.218   7.623   6.541  1.2534 -2.6049  0.8140
   19MOL   H82715983   0.405   7.673   6.361 -2.4779 -4.2718 -0.3315
   19MOL   H82815984   0.501   0.035   6.492 -0.7217  1.5992 -3.3914
   19MOL   H82915985   0.524   7.548   6.605 -0.4821  0.1661  0.0709
   19MOL   H83015986   0.393   7.463   6.503  1.0738 -0.3195 -0.5983
   19MOL   H83115987   0.684   7.547   6.436 -0.5992  0.1895  2.2569
   19MOL   H83215988   0.579   7.498   6.312  1.1163  0.9839  0.2650
   19MOL   H83315989   0.674   7.342   6.551  1.0405 -2.7097  0.0395
   19MOL   H83415990   0.545   7.278   6.450 -0.4977  1.3965 -0.9679
   19MOL   H83515991   0.840   7.333   6.359 -0.8222  1.5998  0.5066
   19MOL   H83615992   0.716   7.316   6.249 -1.1545  0.5145  0.3914
   19MOL   H83715993   0.777   7.122   6.492  2.0502  3.0929  0.1339
   19MOL   H83815994   0.671   7.073   6.359  1.3422 -1.0416 -1.9683
   19MOL   H83915995   0.957   7.116   6.320 -0.2766 -0.1022 -0.6627
   19MOL   H84015996   0.856   6.957   6.343  0.4135 -0.0896  0.3612
   19MOL   H84115997   0.835   7.058   6.207 -1.2416 -0.0592  0.8224
   19MOL   H84215998   0.003   0.216   6.380  0.0970  0.0410 -1.1091
   20MOL     C115999   1.444   5.456   4.360  0.7675 -0.1476 -0.2624
   20MOL     C216000   1.463   5.384   4.494 -0.1832  0.1160  0.0630
   20MOL     C316001   1.525   5.244   4.463 -0.5241  0.0243 -0.9041
   20MOL     C416002   1.511   5.130   4.560 -0.2197  0.3847 -0.0419
   20MOL     C516003   1.563   4.998   4.505 -0.2222  0.3044  0.1769
   20MOL     C616004   1.528   4.882   4.607 -0.7995  0.4674  0.3109
   20MOL     C716005   1.567   4.743   4.563 -0.3892 -0.4806 -0.3722
   20MOL     C816006   1.485   4.686   4.451 -0.2016 -0.4504 -0.4024
   20MOL     C916007   1.527   4.542   4.416  0.5279 -0.0165  0.1156
   20MOL    C1016008   1.440   4.471   4.315  0.4794  0.3446  0.5194
   20MOL    C1116009   1.488   4.331   4.288 -1.0790  0.9054  0.0945
   20MOL    C1216010   1.416   4.256   4.173  0.2193  0.6602  0.1305
   20MOL    C1316011   1.457   4.112   4.141  0.4315  0.0209  0.3956
   20MOL    C1416012   1.395   4.045   4.020 -0.7272  0.2941  0.4316
   20MOL    H1516013   1.362   5.413   4.302  1.5814 -0.4744 -1.1909
   20MOL    H1616014   1.542   5.477   4.319  0.9766 -1.3366 -0.3987
   20MOL    H1716015   1.363   5.375   4.538  0.3518 -0.7601  1.1186
   20MOL    H1816016   1.493   5.204   4.366  2.9979 -0.4570 -1.9735
   20MOL    H1916017   1.631   5.259   4.440 -0.0379  0.1167  1.2748
   20MOL    H2016018   1.405   5.124   4.588  0.1507 -1.8385  0.9590
   20MOL    H2116019   1.551   5.142   4.661 -0.6045  1.1772  0.0214
   20MOL    H2216020   1.672   4.994   4.501 -0.2058  2.0453 -1.9937
   20MOL    H2316021   1.532   4.977   4.403  0.7434 -0.9455  0.1290
   20MOL    H2416022   1.422   4.879   4.632 -1.6030  1.2151 -2.7516
   20MOL    H2516023   1.576   4.909   4.701  2.3584  1.2563 -1.4465
   20MOL    H2616024   1.673   4.744   4.538 -0.3387  1.3114 -0.1562
   20MOL    H2716025   1.558   4.679   4.651 -0.7573 -0.8206 -0.6544
   20MOL    H2816026   1.500   4.745   4.361  0.4154  0.9787  0.6314
   20MOL    H2916027   1.382   4.689   4.484  0.6441  1.8371  2.1420
   20MOL    H3016028   1.631   4.541   4.382  0.4419 -0.1163 -0.1437
   20MOL    H3116029   1.537   4.486   4.509  1.4112 -1.9678 -1.1204
   20MOL    H3216030   1.337   4.473   4.350  0.4057  0.3962  0.3051
   20MOL    H3316031   1.451   4.528   4.223  2.5299 -1.3100 -0.2994
   20MOL    H3416032   1.592   4.333   4.253 -0.8721 -2.7423  0.3251
   20MOL    H3516033   1.482   4.269   4.378 -0.0532  3.3165  1.8783
   20MOL    H3616034   1.422   4.309   4.079  0.1043 -0.4262 -0.4964
   20MOL    H3716035   1.308   4.253   4.186 -0.1101 -1.4723 -2.7694
   20MOL    H3816036   1.565   4.118   4.129  0.4224  0.7646  0.6059
   20MOL    H3916037   1.451   4.047   4.228 -0.4356 -1.4346 -0.7330
   20MOL    H4016038   1.287   4.061   4.026 -0.9688 -1.7765  1.8725
   20MOL    H4116039   1.422   4.102   3.931 -2.4089  0.0193 -0.2852
   20MOL    H4216040   1.414   3.939   4.009  0.0327  0.4409  0.3209
   20MOL    H4316041   1.391   5.548   4.386  1.2520 -0.4032  1.6580
   20MOL    C4416042   1.563   5.467   4.583  0.0313 -0.7565 -0.5685
   20MOL    C4516043   1.498   5.586   4.648 -0.0016 -0.4168  0.0826
   20MOL    C4616044   1.524   5.722   4.583  0.1996 -0.1624 -0.5081
   20MOL    C4716045   1.418   5.819   4.629 -0.1870 -0.4957  0.0411
   20MOL    C4816046   1.417   5.959   4.567  0.5467  0.1000  0.3908
   20MOL    C4916047   1.314   6.061   4.627 -0.6255 -0.5751 -0.7341
   20MOL    C5016048   1.330   6.196   4.570  0.1811  0.1110  0.3709
   20MOL    C5116049   1.242   6.297   4.639 -0.0756  0.1529 -0.0414
   20MOL    C5216050   1.262   6.437   4.571  0.0963  0.1975 -0.7246
   20MOL    C5316051   1.163   6.554   4.613  0.3223 -0.1996 -0.5500
   20MOL    C5416052   1.187   6.688   4.538  0.0263 -0.0366 -0.3179
   20MOL    C5516053   1.071   6.790   4.552  0.7704  0.4972 -0.4755
   20MOL    C5616054   1.082   6.908   4.462  0.3308  0.1442  0.0919
   20MOL    C5716055   0.971   7.013   4.485  0.1809 -0.2414 -0.0875
   20MOL    H5816056   1.612   5.419   4.667  2.1795  1.6459 -0.3900
   20MOL    H5916057   1.640   5.499   4.513 -3.0307  2.1731 -2.7828
   20MOL    H6016058   1.390   5.575   4.639  0.0195  0.7198 -1.6057
   20MOL    H6116059   1.625   5.759   4.600  0.1823 -0.7497  0.9868
   20MOL    H6216060   1.507   5.706   4.477  0.8145  1.1711 -0.8242
   20MOL    H6316061   1.416   5.844   4.735  0.2075 -1.5924  0.3215
   20MOL    H6416062   1.319   5.775   4.616 -0.4581  0.5555 -1.5988
   20MOL    H6516063   1.407   5.959   4.459 -2.2969 -0.2159  0.6238
   20MOL    H6616064   1.515   6.002   4.588  0.0245  0.5567  1.9990
   20MOL    H6716065   1.217   6.010   4.619 -0.5472 -1.0618  1.2666
   20MOL    H6816066   1.345   6.053   4.731  3.3388 -1.5778 -1.9330
   20MOL    H6916067   1.435   6.226   4.580  0.1354 -0.2481  2.0327
   20MOL    H7016068   1.313   6.196   4.462  1.8517  2.3310  0.0768
   20MOL    H7116069   1.240   6.301   4.748  0.9373 -1.0260  0.0336
   20MOL    H7216070   1.140   6.271   4.612 -0.3688  1.8539 -0.6482
   20MOL    H7316071   1.364   6.468   4.591  0.2186  0.1339 -1.2372
   20MOL    H7416072   1.251   6.423   4.463  2.2042  1.9810 -1.2013
   20MOL    H7516073   1.162   6.581   4.719  1.5326 -0.7473 -0.3984
   20MOL    H7616074   1.062   6.513   4.603 -0.0004  0.3383  0.3985
   20MOL    H7716075   1.203   6.671   4.432 -0.3701  1.1993 -0.5845
   20MOL    H7816076   1.275   6.736   4.582  0.6134 -1.5848  0.2192
   20MOL    H7916077   0.977   6.745   4.523  0.6310 -0.5217  1.5151
   20MOL    H8016078   1.050   6.813   4.657  0.3077 -2.3266  0.0878
   20MOL    H8116079   1.079   6.886   4.355 -0.1118  0.2374  0.0856
   20MOL    H8216080   1.177   6.956   4.484  2.0161 -3.2281  0.5148
   20MOL    H8316081   0.993   7.099   4.423 -1.7858  0.4655  0.1657
   20MOL    H8416082   0.967   7.039   4.591 -0.7453  2.5661 -0.7602
   20MOL    H8516083   0.870   6.975   4.466  0.1142 -0.9685  1.5784
   20MOL    C8616084   1.523   5.597   4.807 -0.7602 -0.3346  0.3841
   20MOL    C8716085   1.427   5.496   4.882 -0.2941 -0.3137 -0.2533
   20MOL    C8816086   1.292   5.557   4.907 -0.3017 -0.2693 -0.6943
   20MOL    C8916087   1.192   5.452   4.953 -0.5130 -0.0771 -0.0073
   20MOL    C9016088   1.067   5.519   5.005  0.5344  0.5642  0.2834
   20MOL    C9116089   0.969   5.409   5.051  0.4344 -0.5512 -0.7324
   20MOL    C9216090   0.854   5.447   5.141 -0.2174 -0.7117 -0.2913
   20MOL    C9316091   0.741   5.345   5.158  0.4691  0.0635  0.5228
   20MOL    C9416092   0.626   5.401   5.252  0.2178 -0.2751 -0.0825
   20MOL    C9516093   0.510   5.308   5.281 -0.3200  0.4596  0.1040
   20MOL    C9616094   0.410   5.367   5.384 -0.2695  0.9042  1.2026
   20MOL    C9716095   0.284   5.282   5.395 -1.3762 -0.0687 -0.9757
   20MOL    C9816096   0.199   5.325   5.509  0.1737 -0.1474  0.2772
   20MOL    C9916097   0.071   5.245   5.533  0.3465 -0.5899 -0.5910
   20MOL   H10016098   1.627   5.572   4.827 -0.8989  0.1188  1.6987
   20MOL   H10116099   1.495   5.694   4.848 -0.8533 -0.5987  0.9471
   20MOL   H10216100   1.407   5.403   4.829  0.4441  0.0568 -1.2014
   20MOL   H10316101   1.297   5.644   4.973 -0.6199 -0.7374 -0.0446
   20MOL   H10416102   1.253   5.599   4.814 -0.1508 -2.0604 -1.5943
   20MOL   H10516103   1.168   5.382   4.873  0.2790 -2.2471  1.6138
   20MOL   H10616104   1.230   5.385   5.030  1.7082  2.1466  0.8792
   20MOL   H10716105   1.026   5.583   4.927  1.0808  0.3010 -0.2295
   20MOL   H10816106   1.096   5.571   5.096 -1.0989  0.7002  0.7397
   20MOL   H10916107   1.019   5.329   5.107 -0.7855 -0.8944 -0.1155
   20MOL   H11016108   0.923   5.360   4.965  0.3161 -1.9385  0.0964
   20MOL   H11116109   0.891   5.484   5.237 -1.9934 -0.6770  0.4130
   20MOL   H11216110   0.820   5.537   5.090  0.4225 -0.6156 -0.5525
   20MOL   H11316111   0.783   5.251   5.194  2.1209 -0.6942 -3.0960
   20MOL   H11416112   0.706   5.314   5.059  1.6710  0.4757 -0.0422
   20MOL   H11516113   0.668   5.424   5.350  1.8269  1.3996 -1.1311
   20MOL   H11616114   0.587   5.497   5.220  2.2142  1.3285  2.1089
   20MOL   H11716115   0.540   5.207   5.310 -3.6145 -0.7032 -0.3326
   20MOL   H11816116   0.446   5.300   5.192  3.2428  1.5539 -2.6914
   20MOL   H11916117   0.462   5.367   5.480  0.7756  1.8526  0.6459
   20MOL   H12016118   0.387   5.471   5.364 -0.9197  0.5170 -0.1488
   20MOL   H12116119   0.229   5.281   5.300  0.6526  2.0120 -2.2195
   20MOL   H12216120   0.319   5.181   5.418 -2.3324 -0.4918 -1.3277
   20MOL   H12316121   0.173   5.431   5.504 -1.7981 -0.5979  0.5611
   20MOL   H12416122   0.254   5.297   5.599  2.1389 -0.2239 -0.9373
   20MOL   H12516123   0.002   5.253   5.448 -0.0384  0.6272 -0.1833
   20MOL   H12616124   0.084   5.138   5.548 -0.1480 -0.8533 -1.9991
   20MOL   H12716125   0.036   5.286   5.628  0.2359  0.1889 -0.9631
   20MOL   C12816126   1.504   5.480   5.020  0.0352  0.0481  0.5964
   20MOL   C12916127   1.642   5.402   5.034  0.5254  0.4070 -0.4934
   20MOL   C13016128   1.663   5.381   5.188  0.1548 -0.0395  0.2587
   20MOL   C13116129   1.576   5.273   5.252  0.1903 -0.0930 -0.1260
   20MOL   C13216130   1.605   5.253   5.401  0.1038 -0.2062  0.5826
   20MOL   C13316131   1.525   5.145   5.476  0.0321  0.3078  0.4019
   20MOL   C13416132   1.594   5.116   5.607  0.4118  0.3116  0.3955
   20MOL   C13516133   1.522   5.014   5.689  0.4545 -0.6127 -0.0735
   20MOL   C13616134   1.588   4.986   5.823 -0.3323  0.6161 -0.4477
   20MOL   C13716135   1.510   4.886   5.914  0.6798 -0.2639  0.5190
   20MOL   C13816136   1.572   4.853   6.053  0.1194 -0.3218  0.4685
   20MOL   C13916137   1.485   4.772   6.152  0.6157 -0.3559 -0.8530
   20MOL   C14016138   1.571   4.706   6.264 -0.2816 -0.7564  0.0031
   20MOL   C14116139   1.496   4.663   6.391 -0.2039 -0.4061 -0.1624
   20MOL   H14216140   1.507   5.577   5.069 -1.0645 -0.5161  1.8434
   20MOL   H14316141   1.428   5.422   5.074 -0.8070  1.4789  0.9723
   20MOL   H14416142   1.716   5.472   4.994  0.8781  1.3740  1.7603
   20MOL   H14516143   1.766   5.347   5.203  0.0717 -0.4597 -0.1318
   20MOL   H14616144   1.633   5.471   5.242 -1.4091  0.3310 -1.1839
   20MOL   H14716145   1.468   5.290   5.244  0.3629  1.7784  1.2932
   20MOL   H14816146   1.601   5.187   5.190  1.6339  0.9668 -1.0330
   20MOL   H14916147   1.713   5.237   5.399  0.5202  2.4448 -3.1332
   20MOL   H15016148   1.604   5.353   5.446  1.4583  0.7315 -1.4100
   20MOL   H15116149   1.420   5.169   5.492 -0.6894 -2.7527  0.4523
   20MOL   H15216150   1.539   5.052   5.420  2.0055  0.6342  0.3130
   20MOL   H15316151   1.698   5.090   5.584 -0.6394 -1.8186 -2.2112
   20MOL   H15416152   1.614   5.206   5.665  2.3453  0.4577 -0.4323
   20MOL   H15516153   1.416   5.039   5.687  1.0134  1.8390  0.1000
   20MOL   H15616154   1.535   4.915   5.644 -0.8560 -0.5534 -0.6108
   20MOL   H15716155   1.690   4.949   5.814 -0.5167  0.6751 -3.0876
   20MOL   H15816156   1.600   5.084   5.871 -2.0166  0.8712 -0.4874
   20MOL   H15916157   1.494   4.799   5.850 -0.8392  1.2324 -1.1868
   20MOL   H16016158   1.410   4.928   5.925  1.3945  1.5429  0.1924
   20MOL   H16116159   1.672   4.811   6.055  1.5472  2.9321  0.2120
   20MOL   H16216160   1.595   4.942   6.112 -0.6203 -0.4519  0.9692
   20MOL   H16316161   1.398   4.832   6.181  0.8962 -0.9876  1.3720
   20MOL   H16416162   1.441   4.693   6.092  1.1071  0.0023 -1.6940
   20MOL   H16516163   1.633   4.620   6.240 -0.3825 -0.2721 -2.1208
   20MOL   H16616164   1.643   4.783   6.292  1.5480 -2.1370 -0.8217
   20MOL   H16716165   1.565   4.637   6.471  0.5233 -1.9347 -1.2772
   20MOL   H16816166   1.432   4.745   6.425  1.3904  1.0078 -0.5462
   20MOL   H16916167   1.430   4.578   6.373 -1.5695  1.2407 -3.2219
   20MOL   C17016168   1.654   5.281   4.946  0.0335  0.7615 -1.1622
   20MOL   C17116169   1.803   5.220   4.928  0.1701  0.2987 -0.4184
   20MOL   C17216170   1.805   5.061   4.921  0.5033 -0.3527 -0.1535
   20MOL   C17316171   1.762   4.996   5.049 -0.3468  0.0912 -0.1989
   20MOL   C17416172   1.772   4.839   5.047  0.5452 -0.1245 -0.8081
   20MOL   C17516173   1.866   4.788   5.157  0.4576 -0.0323 -0.2879
   20MOL   C17616174   1.913   4.644   5.143  0.4195  0.0759  0.0948
   20MOL   C17716175   1.983   4.596   5.273  0.1552  0.7411  0.2553
   20MOL   C17816176   2.023   4.451   5.260 -0.4391  0.9275 -0.9582
   20MOL   C17916177   2.102   4.407   5.392 -0.3183 -0.4494 -0.6771
   20MOL   C18016178   2.119   4.252   5.404 -0.1703 -1.4210 -0.0353
   20MOL   C18116179   2.173   4.202   5.539 -0.2863  0.6898 -0.2368
   20MOL   C18216180   2.217   4.050   5.529 -0.0180  0.3278 -0.2583
   20MOL   C18316181   2.280   4.001   5.660 -0.1875  0.4900 -0.1335
   20MOL   H18416182   1.626   5.311   4.845  0.7731 -0.5632 -1.7815
   20MOL   H18516183   1.585   5.202   4.978 -0.0104  0.7274 -1.3408
   20MOL   H18616184   1.861   5.259   5.012  0.9489 -1.2021 -0.2574
   20MOL   H18716185   1.728   5.034   4.849 -0.3677  1.1553  0.1789
   20MOL   H18816186   1.894   5.009   4.886  1.3548  0.0377  1.3778
   20MOL   H18916187   1.821   5.042   5.128  0.0503  0.9028 -0.9599
   20MOL   H19016188   1.658   5.017   5.073 -0.4233  0.4979 -0.8818
   20MOL   H19116189   1.671   4.799   5.048 -0.1010  1.4877  0.2468
   20MOL   H19216190   1.815   4.816   4.949  2.5878  0.1813 -0.0185
   20MOL   H19316191   1.817   4.813   5.251  0.6489 -0.4067 -0.0851
   20MOL   H19416192   1.944   4.862   5.176  1.6501 -1.1481 -0.7884
   20MOL   H19516193   1.990   4.641   5.066  0.0047  2.4931 -0.4462
   20MOL   H19616194   1.832   4.574   5.122 -1.1121  1.2270  2.0518
   20MOL   H19716195   1.916   4.602   5.359  1.7217 -0.1834  1.5668
   20MOL   H19816196   2.066   4.660   5.303  0.5723  0.0555  0.5814
   20MOL   H19916197   2.070   4.443   5.162 -0.0471  3.3073 -1.0095
   20MOL   H20016198   1.939   4.386   5.240 -0.5026  1.0303 -1.0264
   20MOL   H20116199   2.047   4.440   5.481  1.3822 -0.3559  0.3693
   20MOL   H20216200   2.195   4.462   5.405 -0.7438  0.0889  0.1239
   20MOL   H20316201   2.179   4.216   5.320 -2.6226 -1.6147 -1.7821
   20MOL   H20416202   2.022   4.209   5.380 -0.1849 -0.7130 -1.2739
   20MOL   H20516203   2.258   4.261   5.574 -1.4376  1.2941  1.6017
   20MOL   H20616204   2.107   4.222   5.623  0.6292  0.4547  0.5533
   20MOL   H20716205   2.141   3.977   5.502 -0.5620  0.2861  1.3472
   20MOL   H20816206   2.298   4.035   5.457  0.5735 -1.1006  0.6779
   20MOL   H20916207   2.312   4.082   5.726  0.0586 -1.3378  2.0639
   20MOL   H21016208   2.364   3.934   5.644 -0.6501 -0.2895  0.6702
   20MOL   H21116209   2.211   3.942   5.721  0.5331 -1.4234 -1.1555
   20MOL   C21216210   1.873   5.290   4.817 -0.0014 -0.2219 -0.0475
   20MOL   C21316211   2.026   5.263   4.798 -0.1729  0.2953  0.3720
   20MOL   C21416212   2.061   5.275   4.645 -0.3676 -0.7097 -0.1938
   20MOL   C21516213   1.997   5.168   4.559  0.3571 -0.3718 -1.2398
   20MOL   C21616214   2.066   5.167   4.421  0.0283  0.7003  0.2142
   20MOL   C21716215   1.966   5.176   4.310  0.5053 -0.2207  0.3361
   20MOL   C21816216   1.891   5.044   4.280 -0.2526 -0.5464  0.0335
   20MOL   C21916217   1.777   5.063   4.177 -0.4546  0.6908  0.1902
   20MOL   C22016218   1.841   5.063   4.040  0.6587 -0.2625  0.1110
   20MOL   C22116219   1.744   5.019   3.928  0.3772 -0.2730  0.2884
   20MOL   C22216220   1.694   4.872   3.936  0.1015  0.4758  0.0755
   20MOL   C22316221   1.616   4.825   3.817 -0.2305  0.1333  0.0174
   20MOL   C22416222   1.480   4.891   3.784  0.0348  0.5203 -0.1825
   20MOL   C22516223   1.430   4.855   3.643  0.1698 -0.5687  0.7205
   20MOL   H22616224   1.871   5.399   4.824  2.6870 -0.1001 -0.5916
   20MOL   H22716225   1.828   5.268   4.720  0.9789 -1.2178 -0.2835
   20MOL   H22816226   2.052   5.163   4.832 -1.0133  0.4997  1.6433
   20MOL   H22916227   2.025   5.373   4.614  2.7731  0.1232 -1.5004
   20MOL   H23016228   2.170   5.268   4.638 -0.2014 -0.7995  2.1714
   20MOL   H23116229   1.892   5.192   4.543 -0.5071  0.1259  4.2336
   20MOL   H23216230   1.990   5.069   4.605  0.1112 -0.1574 -0.8170
   20MOL   H23316231   2.111   5.068   4.417 -1.8144 -0.2496  1.7971
   20MOL   H23416232   2.135   5.248   4.400 -1.3528  1.7237 -0.5164
   20MOL   H23516233   2.019   5.216   4.223  1.8625 -1.4782  0.5699
   20MOL   H23616234   1.895   5.256   4.332  1.0553  1.3419 -3.2429
   20MOL   H23716235   1.958   4.966   4.243  1.7149  0.9204  0.3869
   20MOL   H23816236   1.846   5.020   4.376  2.7497 -2.7201  0.9665
   20MOL   H23916237   1.718   4.971   4.185  1.5179 -0.4350  2.6965
   20MOL   H24016238   1.724   5.156   4.196  1.9440  2.2769 -0.7272
   20MOL   H24116239   1.914   4.982   4.027  0.5111 -0.3218 -0.3572
   20MOL   H24216240   1.899   5.153   4.021 -1.2290  0.7584 -0.9872
   20MOL   H24316241   1.663   5.092   3.933  0.1380 -0.1373 -3.7000
   20MOL   H24416242   1.789   5.043   3.831 -1.3496 -0.3869 -0.5526
   20MOL   H24516243   1.637   4.851   4.026  1.7047 -0.8484  0.8056
   20MOL   H24616244   1.775   4.801   3.948 -0.7871 -0.4238  0.7854
   20MOL   H24716245   1.607   4.717   3.820 -0.1396  0.1405  0.5936
   20MOL   H24816246   1.674   4.850   3.728 -1.1611 -1.1454 -0.9642
   20MOL   H24916247   1.496   4.998   3.795  0.6675  0.2418  1.8226
   20MOL   H25016248   1.410   4.866   3.864  2.4502 -0.6089  1.6498
   20MOL   H25116249   1.344   4.917   3.615  2.0600  1.7951  0.0367
   20MOL   H25216250   1.508   4.866   3.568  0.6236  0.8706  1.3876
   20MOL   H25316251   1.388   4.754   3.641 -0.6807 -0.1915 -1.6209
   20MOL   C25416252   2.107   5.363   4.883 -0.5050  0.4856 -0.3347
   20MOL   C25516253   2.242   5.314   4.933 -0.7636  0.4756 -0.1383
   20MOL   C25616254   2.360   5.318   4.832  0.5944 -0.4568 -0.6533
   20MOL   C25716255   2.369   5.451   4.747  0.6179  0.5458  0.0468
   20MOL   C25816256   2.502   5.473   4.666  0.0647  0.2138 -0.0201
   20MOL   C25916257   2.513   5.382   4.534 -0.2105 -0.1656  0.2762
   20MOL   C26016258   2.405   5.410   4.426 -0.6924  0.2512  0.5552
   20MOL   C26116259   2.448   5.354   4.291 -0.1844 -0.5842  0.3985
   20MOL   C26216260   2.343   5.339   4.177 -0.6805  0.1639  0.4202
   20MOL   C26316261   2.397   5.274   4.042  0.0274 -0.1884 -0.5351
   20MOL   C26416262   2.290   5.223   3.946  0.8107 -0.1707 -0.1650
   20MOL   C26516263   2.343   5.182   3.803  0.1848  0.2361  0.5295
   20MOL   C26616264   2.242   5.096   3.725 -0.3397 -0.0745  0.6397
   20MOL   C26716265   2.135   5.197   3.661  0.4733 -0.3658 -0.9192
   20MOL   H26816266   2.043   5.375   4.970 -0.9849 -1.1878 -0.4341
   20MOL   H26916267   2.092   5.460   4.836 -0.5920  0.7139  0.1637
   20MOL   H27016268   2.219   5.208   4.949 -0.7802  0.4398 -0.3896
   20MOL   H27116269   2.362   5.233   4.764 -1.8384 -1.0497 -0.0259
   20MOL   H27216270   2.455   5.317   4.885 -0.7339 -1.2640  1.7730
   20MOL   H27316271   2.357   5.538   4.811 -0.3455 -0.2673  0.9957
   20MOL   H27416272   2.289   5.446   4.672 -0.2811 -0.3425  1.0531
   20MOL   H27516273   2.585   5.455   4.735  0.1110  0.9866  0.1251
   20MOL   H27616274   2.514   5.576   4.635 -1.1650  0.4198  0.1706
   20MOL   H27716275   2.506   5.276   4.560 -0.1979 -0.5236 -1.1582
   20MOL   H27816276   2.614   5.403   4.499 -0.4667  2.4503  1.0082
   20MOL   H27916277   2.307   5.375   4.457 -0.2316 -2.7175 -1.2270
   20MOL   H28016278   2.413   5.518   4.410  1.0235  0.2536  1.2670
   20MOL   H28116279   2.494   5.260   4.320 -0.7068 -1.0811 -0.3789
   20MOL   H28216280   2.534   5.413   4.259 -1.7721  1.5934 -0.0024
   20MOL   H28316281   2.280   5.264   4.226 -2.0478 -0.3695 -2.1038
   20MOL   H28416282   2.300   5.437   4.158 -0.4398  0.3638  0.8870
   20MOL   H28516283   2.459   5.191   4.077 -0.4223  0.0515  0.8760
   20MOL   H28616284   2.467   5.340   3.992  1.4815 -1.7076 -0.5704
   20MOL   H28716285   2.212   5.299   3.936  0.3758 -0.8178 -1.8574
   20MOL   H28816286   2.245   5.139   4.000 -0.2019 -0.6405 -1.7222
   20MOL   H28916287   2.375   5.276   3.757 -0.8863  1.2804  1.8658
   20MOL   H29016288   2.433   5.123   3.815 -1.5375 -2.4678  0.6501
   20MOL   H29116289   2.290   5.030   3.652 -0.7015  0.6446 -0.2584
   20MOL   H29216290   2.198   5.012   3.777 -0.7151 -0.2863 -0.0146
   20MOL   H29316291   2.047   5.198   3.725 -0.8273 -2.7870 -2.5584
   20MOL   H29416292   2.089   5.169   3.566 -0.3827 -1.6320 -0.1403
   20MOL   H29516293   2.169   5.300   3.652  0.1782 -0.1289  0.6050
   20MOL   C29616294   2.285   5.383   5.070 -0.2762 -0.2662  0.3185
   20MOL   C29716295   2.193   5.381   5.191 -0.3179  0.4583  0.5800
   20MOL   C29816296   2.180   5.237   5.241 -0.4314 -0.1080  0.2362
   20MOL   C29916297   2.060   5.201   5.326 -0.0186  0.6947  0.0588
   20MOL   C30016298   2.070   5.064   5.390  0.4285 -0.0023  0.3509
   20MOL   C30116299   1.947   5.013   5.462 -0.1493  0.2739  0.1949
   20MOL   C30216300   1.985   4.885   5.536 -0.1066  0.5459  0.2338
   20MOL   C30316301   1.875   4.842   5.628  0.1589  0.1114  0.2432
   20MOL   C30416302   1.918   4.720   5.711 -0.4062 -0.7363  0.2980
   20MOL   C30516303   1.808   4.637   5.760  0.4932 -0.4361  0.1243
   20MOL   C30616304   1.845   4.512   5.837  0.2756  0.2872  0.0325
   20MOL   C30716305   1.726   4.436   5.892  0.6619 -0.8038 -0.0172
   20MOL   C30816306   1.773   4.315   5.971  0.0666 -0.0669  0.0933
   20MOL   C30916307   1.648   4.228   6.003 -0.1935 -0.1208 -0.5074
   20MOL   H31016308   2.313   5.484   5.037  3.6292  0.1822  4.5452
   20MOL   H31116309   2.381   5.344   5.105 -0.3207 -2.1667 -1.5343
   20MOL   H31216310   2.098   5.414   5.151  1.2089  1.0735 -2.7061
   20MOL   H31316311   2.269   5.202   5.293 -0.1656 -2.3313 -1.6376
   20MOL   H31416312   2.173   5.161   5.163  0.4691  0.4936 -0.4431
   20MOL   H31516313   1.969   5.202   5.267  2.4412  2.0620 -3.9364
   20MOL   H31616314   2.054   5.281   5.400  2.8176 -0.0439  1.1602
   20MOL   H31716315   2.096   4.991   5.314 -1.8327 -0.2267 -0.2376
   20MOL   H31816316   2.149   5.073   5.465  0.4016  1.2507  0.2469
   20MOL   H31916317   1.873   4.993   5.385  0.3883 -0.0596 -0.2427
   20MOL   H32016318   1.905   5.088   5.530  0.4527  0.2401  0.6077
   20MOL   H32116319   2.004   4.805   5.464  0.1543  0.9637 -0.1565
   20MOL   H32216320   2.080   4.893   5.589  1.1616 -0.0625 -1.8609
   20MOL   H32316321   1.793   4.809   5.564  1.5520  0.5583 -1.8186
   20MOL   H32416322   1.854   4.935   5.680  0.1155  0.9306 -1.2260
   20MOL   H32516323   1.978   4.657   5.644 -0.5660 -1.6632  1.0169
   20MOL   H32616324   1.985   4.759   5.787  1.6103 -1.0795 -1.2596
   20MOL   H32716325   1.733   4.617   5.683  1.6742 -1.3207 -0.8092
   20MOL   H32816326   1.757   4.708   5.825 -1.5426 -0.6532 -1.1941
   20MOL   H32916327   1.926   4.527   5.908  1.8563 -1.3886 -1.3648
   20MOL   H33016328   1.897   4.448   5.767  0.6741  1.5864 -0.8904
   20MOL   H33116329   1.663   4.406   5.808  0.6586 -1.6064  0.2681
   20MOL   H33216330   1.667   4.504   5.954 -1.3581 -3.9331  1.6075
   20MOL   H33316331   1.822   4.337   6.065 -0.2371  1.1484 -0.0312
   20MOL   H33416332   1.843   4.248   5.920 -0.8914 -0.4046 -0.7986
   20MOL   H33516333   1.668   4.142   6.067  1.0346  0.6591  0.1931
   20MOL   H33616334   1.579   4.294   6.056 -1.2083 -0.2237 -1.6793
   20MOL   H33716335   1.601   4.191   5.912 -0.6479  0.4514 -0.5099
   20MOL   C33816336   2.235   5.474   5.302 -0.3434  0.5800  0.7784
   20MOL   C33916337   2.254   5.626   5.264  0.0075  0.2128  0.0709
   20MOL   C34016338   2.122   5.703   5.235 -0.0124  0.1613  0.6556
   20MOL   C34116339   2.071   5.684   5.093  0.7377 -0.4000  0.1851
   20MOL   C34216340   1.925   5.733   5.079 -0.4858 -0.3812  0.1631
   20MOL   C34316341   1.878   5.750   4.930  0.2929 -0.0484  0.2475
   20MOL   C34416342   1.743   5.820   4.909 -0.1785  0.5923  0.0673
   20MOL   C34516343   1.735   5.956   4.967 -0.2894 -0.2409 -0.2423
   20MOL   C34616344   1.611   6.037   4.923  0.5197 -0.2741 -0.1263
   20MOL   C34716345   1.569   6.136   5.027  0.1748  0.0155  0.1465
   20MOL   C34816346   1.444   6.212   4.989 -0.3014  0.0879 -0.2704
   20MOL   C34916347   1.411   6.317   5.095 -0.0373  0.2417 -0.7429
   20MOL   C35016348   1.295   6.400   5.062  0.3937  0.5712  0.2676
   20MOL   C35116349   1.231   6.486   5.175  0.5291 -0.5155  0.1033
   20MOL   H35216350   2.170   5.463   5.388  1.0976 -0.0694  1.8112
   20MOL   H35316351   2.328   5.429   5.338 -0.9802 -1.8201 -0.4652
   20MOL   H35416352   2.322   5.646   5.181  0.4367 -0.2493  0.3127
   20MOL   H35516353   2.045   5.675   5.307  0.2683  1.5345  1.4949
   20MOL   H35616354   2.132   5.810   5.248 -2.0428  0.4114  0.3329
   20MOL   H35716355   2.068   5.579   5.064  0.5987 -1.6465  4.3013
   20MOL   H35816356   2.129   5.746   5.025  1.2049 -0.7757  0.2316
   20MOL   H35916357   1.912   5.826   5.135  1.3274  0.5008 -0.8088
   20MOL   H36016358   1.845   5.673   5.122 -1.8951  1.9056  0.8285
   20MOL   H36116359   1.963   5.796   4.880  1.3185 -0.4979  1.5400
   20MOL   H36216360   1.870   5.651   4.885 -0.9709  0.9982 -1.8903
   20MOL   H36316361   1.730   5.828   4.801 -2.6935 -0.1046  0.2991
   20MOL   H36416362   1.667   5.757   4.954  0.5674  0.2348  0.8360
   20MOL   H36516363   1.727   5.951   5.076 -0.8357  1.5120 -0.1815
   20MOL   H36616364   1.824   6.015   4.947 -0.1564  0.2318  1.5987
   20MOL   H36716365   1.627   6.070   4.820  0.6352  2.5572  0.7620
   20MOL   H36816366   1.527   5.968   4.925  1.2788 -1.2452 -1.0892
   20MOL   H36916367   1.536   6.084   5.117  0.6130  1.2878  1.0536
   20MOL   H37016368   1.653   6.196   5.061 -1.1700 -0.2719  4.2720
   20MOL   H37116369   1.358   6.150   4.967 -0.0548 -0.0720 -0.8020
   20MOL   H37216370   1.463   6.267   4.897  0.4981 -0.0397 -0.1913
   20MOL   H37316371   1.484   6.396   5.113 -1.5285  1.4826  0.0093
   20MOL   H37416372   1.394   6.263   5.188 -1.3099 -0.1671 -1.2106
   20MOL   H37516373   1.329   6.469   4.984  1.3242  0.4975  0.6041
   20MOL   H37616374   1.217   6.331   5.029  0.8696 -0.1887  0.7312
   20MOL   H37716375   1.314   6.548   5.207 -1.8355  2.6715  0.3263
   20MOL   H37816376   1.156   6.548   5.125  1.0981 -0.1931 -0.3588
   20MOL   H37916377   1.200   6.436   5.266  1.0659 -0.1365  0.4944
   20MOL   C38016378   2.329   5.695   5.379  0.2393 -0.3825 -0.4419
   20MOL   C38116379   2.468   5.653   5.430 -0.0854 -0.5515 -0.7945
   20MOL   C38216380   2.570   5.671   5.322 -0.9492 -0.6158 -0.1679
   20MOL   C38316381   2.601   5.534   5.246  0.6799  0.0942 -0.8765
   20MOL   C38416382   2.719   5.552   5.141  0.0111 -0.5529  0.1338
   20MOL   C38516383   2.687   5.651   5.026  0.8608  0.5003 -0.9998
   20MOL   C38616384   2.806   5.651   4.923  0.4382  0.3184  0.0919
   20MOL   C38716385   2.761   5.714   4.785  0.0285 -0.4566  0.0806
   20MOL   C38816386   2.731   5.865   4.786  0.4390  0.4218 -0.6284
   20MOL   C38916387   2.585   5.903   4.806  0.1613  0.1275 -0.3476
   20MOL   C39016388   2.561   6.055   4.779 -0.6033  0.4148 -0.4920
   20MOL   C39116389   2.599   6.149   4.900  0.3395  0.2920 -0.0713
   20MOL   C39216390   2.559   6.298   4.878 -0.3222 -0.8066  0.0542
   20MOL   C39316391   2.584   6.389   4.994  0.6476  0.2442 -0.0021
   20MOL   H39416392   2.256   5.690   5.459 -0.0834  1.0632 -0.6346
   20MOL   H39516393   2.334   5.800   5.353  0.2101 -0.6984 -1.7759
   20MOL   H39616394   2.463   5.549   5.461  0.3428 -0.7565 -1.4023
   20MOL   H39716395   2.665   5.709   5.359 -1.6435  0.9712  0.0264
   20MOL   H39816396   2.536   5.745   5.249  0.6113 -0.1391 -0.4362
   20MOL   H39916397   2.508   5.511   5.194  0.7033  0.5657 -1.1263
   20MOL   H40016398   2.624   5.453   5.315  0.3652  0.6566 -0.1106
   20MOL   H40116399   2.725   5.452   5.099  0.5138 -0.0781 -0.9255
   20MOL   H40216400   2.817   5.579   5.182 -0.1360 -1.7441  1.3408
   20MOL   H40316401   2.674   5.748   5.074  0.0543  0.1635 -0.5291
   20MOL   H40416402   2.596   5.618   4.975  1.0546  1.0478 -1.6923
   20MOL   H40516403   2.889   5.709   4.962  1.5761  0.1314 -1.9808
   20MOL   H40616404   2.832   5.546   4.911 -0.4649  0.1223 -0.2075
   20MOL   H40716405   2.851   5.700   4.725 -1.8806  0.6685 -3.2130
   20MOL   H40816406   2.682   5.657   4.736 -1.3542 -1.3163  3.2235
   20MOL   H40916407   2.804   5.910   4.854 -2.0429  2.1622  0.9746
   20MOL   H41016408   2.752   5.904   4.686  2.6586  0.6715 -0.0820
   20MOL   H41116409   2.540   5.876   4.901 -0.9814 -0.1585 -0.9646
   20MOL   H41216410   2.525   5.844   4.736  1.0320 -0.3724 -0.6763
   20MOL   H41316411   2.615   6.077   4.687 -0.9245 -1.2552 -1.1055
   20MOL   H41416412   2.452   6.062   4.773 -0.4542  2.6344 -1.0633
   20MOL   H41516413   2.707   6.150   4.912  0.1711  2.3549  1.4915
   20MOL   H41616414   2.539   6.111   4.983 -0.4452  0.2653 -0.6411
   20MOL   H41716415   2.613   6.345   4.796 -1.0805 -1.3424 -0.7617
   20MOL   H41816416   2.452   6.308   4.860 -0.1102 -0.2398 -0.9702
   20MOL   H41916417   2.563   6.330   5.083  0.1898 -0.9346 -0.8749
   20MOL   H42016418   2.514   6.472   5.004 -0.0395 -0.6039  2.5206
   20MOL   H42116419   2.685   6.428   5.003  0.9500 -0.4160 -0.5623
   20MOL   C42216420   2.496   5.726   5.560  0.4412 -0.3822  0.4654
   20MOL   C42316421   2.621   5.671   5.631 -0.4581 -0.7092  0.2331
   20MOL   C42416422   2.724   5.787   5.654 -0.3573  0.1878 -0.4042
   20MOL   C42516423   2.672   5.910   5.725  0.8238 -0.2288 -0.6351
   20MOL   C42616424   2.780   6.024   5.724  0.5179  0.0344  0.0344
   20MOL   C42716425   2.732   6.168   5.764 -0.1674  0.1281 -0.0853
   20MOL   C42816426   2.817   6.270   5.686 -0.2247  0.0390 -0.5683
   20MOL   C42916427   2.773   6.417   5.728  0.3690  0.5922  0.4240
   20MOL   C43016428   2.856   6.529   5.659 -0.1508  0.7230 -0.4007
   20MOL   C43116429   2.805   6.667   5.719  0.2555  0.7613  0.0635
   20MOL   C43216430   2.904   6.786   5.705  0.3902  0.7470  0.5587
   20MOL   C43316431   2.874   6.913   5.778  0.2567 -0.4306 -0.4554
   20MOL   C43416432   2.864   6.902   5.930 -0.3650  0.2599 -0.5653
   20MOL   C43516433   2.869   7.044   5.990 -0.3904  0.4687 -0.6702
   20MOL   H43616434   2.409   5.727   5.626  1.9622 -0.4464  2.5119
   20MOL   H43716435   2.501   5.830   5.526  0.2228 -0.4950  0.0806
   20MOL   H43816436   2.674   5.605   5.562  0.1173  1.1616 -1.1603
   20MOL   H43916437   2.773   5.818   5.562 -0.2639  0.6739 -0.1912
   20MOL   H44016438   2.812   5.753   5.708  0.3968  0.0507 -1.7063
   20MOL   H44116439   2.582   5.951   5.681 -0.2145 -0.5178  1.1725
   20MOL   H44216440   2.646   5.893   5.829 -0.6772 -2.1395 -1.2932
   20MOL   H44316441   2.811   6.033   5.619 -3.5749 -3.1156 -1.5829
   20MOL   H44416442   2.874   6.004   5.776  1.4737 -0.5315 -1.8392
   20MOL   H44516443   2.738   6.175   5.873  1.4839 -1.1771 -0.0699
   20MOL   H44616444   2.628   6.194   5.747 -0.5204  0.1830  1.9571
   20MOL   H44716445   2.925   6.267   5.696 -0.0486  2.2458 -1.6518
   20MOL   H44816446   2.786   6.279   5.582  2.1400 -0.2144 -1.3119
   20MOL   H44916447   2.667   6.429   5.707  0.2661 -1.9079 -0.6692
   20MOL   H45016448   2.801   6.428   5.833 -1.5366 -0.2662  1.0332
   20MOL   H45116449   2.963   6.517   5.678  0.0049  0.5419 -1.3955
   20MOL   H45216450   2.829   6.523   5.554 -1.8144 -2.3638  0.1407
   20MOL   H45316451   2.710   6.693   5.673  0.1414  0.6583  0.2424
   20MOL   H45416452   2.796   6.654   5.827  0.7456 -1.3884 -0.1393
   20MOL   H45516453   3.007   6.757   5.724  0.2881  0.4690  0.6823
   20MOL   H45616454   2.900   6.808   5.599  1.8584 -1.5931 -0.0155
   20MOL   H45716455   2.785   6.964   5.741  0.8266 -0.1308 -1.4506
   20MOL   H45816456   2.953   6.983   5.749  0.6959 -1.0214 -0.7060
   20MOL   H45916457   2.775   6.844   5.952 -0.1415 -0.9189 -2.6349
   20MOL   H46016458   2.951   6.846   5.963 -1.0221  1.2670  3.1984
   20MOL   H46116459   2.962   7.072   6.040 -0.8257  1.6658 -0.5261
   20MOL   H46216460   2.806   7.044   6.079  0.9307  1.4853  0.2859
   20MOL   H46316461   2.819   7.124   5.936 -0.8155 -0.8175 -2.2234
   20MOL   C46416462   2.580   5.602   5.767  0.0602  0.3562 -0.3389
   20MOL   C46516463   2.489   5.476   5.766 -0.7218 -0.1901 -0.3933
   20MOL   C46616464   2.560   5.364   5.693 -0.3708  0.6624  0.1391
   20MOL   C46716465   2.472   5.241   5.652 -0.5937  0.3408  0.6500
   20MOL   C46816466   2.554   5.153   5.561  0.1676 -0.0550 -0.1669
   20MOL   C46916467   2.471   5.027   5.524 -0.0087  0.2619 -0.4933
   20MOL   C47016468   2.533   4.939   5.415  0.1407 -0.5159 -0.3521
   20MOL   C47116469   2.438   4.820   5.394 -0.4442  0.2283  0.1870
   20MOL   C47216470   2.500   4.733   5.288  0.3432  0.0420 -0.6770
   20MOL   C47316471   2.419   4.613   5.255 -0.0979  0.4059 -0.6682
   20MOL   C47416472   2.475   4.549   5.132 -0.1025 -0.1812 -0.3262
   20MOL   C47516473   2.369   4.487   5.049 -0.1061  0.7360  0.0352
   20MOL   C47616474   2.421   4.390   4.946 -0.1369  0.1861 -0.3890
   20MOL   C47716475   2.302   4.323   4.869  0.2824  0.2541  0.0628
   20MOL   H47816476   2.521   5.669   5.830  0.1725  2.1302 -2.0929
   20MOL   H47916477   2.674   5.586   5.820 -0.6884 -1.1198  0.5854
   20MOL   H48016478   2.402   5.500   5.704 -0.3612  0.9453 -0.4617
   20MOL   H48116479   2.619   5.404   5.611  0.2024  0.1522  0.2963
   20MOL   H48216480   2.638   5.326   5.759  2.2168  1.6356 -2.2703
   20MOL   H48316481   2.387   5.276   5.593  1.1834  0.7578 -1.7273
   20MOL   H48416482   2.444   5.190   5.744  0.2307  0.6826  1.0922
   20MOL   H48516483   2.644   5.114   5.608  0.7136  0.4549 -0.7850
   20MOL   H48616484   2.580   5.207   5.470  1.2672 -0.9361 -0.3825
   20MOL   H48716485   2.455   4.972   5.617 -1.8806  0.9923 -0.3725
   20MOL   H48816486   2.370   5.053   5.493 -0.5070 -1.3108 -0.2394
   20MOL   H48916487   2.571   4.995   5.331  1.1261 -0.8751 -0.1488
   20MOL   H49016488   2.626   4.899   5.454  0.8264 -0.0332 -1.4873
   20MOL   H49116489   2.428   4.772   5.492 -0.9421  0.1105  0.0774
   20MOL   H49216490   2.333   4.842   5.372 -0.4782  0.1197  0.2403
   20MOL   H49316491   2.500   4.801   5.203  1.7958 -0.2746 -0.9485
   20MOL   H49416492   2.608   4.719   5.299  0.0932 -0.2162  1.7260
   20MOL   H49516493   2.429   4.533   5.329  0.1161  0.1379 -0.9885
   20MOL   H49616494   2.314   4.640   5.249 -0.3029  0.3839  1.9971
   20MOL   H49716495   2.509   4.626   5.062  0.1883 -1.3646 -1.5067
   20MOL   H49816496   2.559   4.484   5.156 -0.0769 -0.5137 -1.3144
   20MOL   H49916497   2.299   4.552   4.996  0.7043  0.5597 -1.2825
   20MOL   H50016498   2.309   4.418   5.108 -2.2295  1.4792 -1.2049
   20MOL   H50116499   2.470   4.447   4.868  0.0265  1.4262  0.5959
   20MOL   H50216500   2.486   4.306   4.969 -0.7273 -1.4255 -4.2257
   20MOL   H50316501   2.238   4.261   4.932  2.8050 -1.2493  1.2419
   20MOL   H50416502   2.237   4.399   4.826 -0.3991 -0.3153  0.0801
   20MOL   H50516503   2.346   4.264   4.788  1.7185  0.8577  0.3783
   20MOL   C50616504   2.450   5.431   5.910 -0.2506 -0.1624 -0.4958
   20MOL   C50716505   2.387   5.533   6.011  0.3443 -0.6865  0.0213
   20MOL   C50816506   2.248   5.570   5.963 -0.5191 -0.3312 -1.0838
   20MOL   C50916507   2.215   5.715   6.005  0.0719  0.2523 -0.5805
   20MOL   C51016508   2.100   5.763   5.919 -0.0641 -0.1143 -0.0166
   20MOL   C51116509   2.123   5.832   5.784 -0.1275 -0.0988  0.5567
   20MOL   C51216510   2.202   5.961   5.793 -0.5333 -0.3220 -0.1723
   20MOL   C51316511   2.196   6.038   5.653 -0.0437 -0.6653 -0.2896
   20MOL   C51416512   2.303   6.151   5.651 -0.3982  0.0496  0.1502
   20MOL   C51516513   2.314   6.226   5.521 -0.1802 -0.4400  1.3029
   20MOL   C51616514   2.399   6.350   5.530  0.2692  0.7329  0.6274
   20MOL   C51716515   2.420   6.420   5.390 -0.6991 -0.3026  0.0725
   20MOL   C51816516   2.294   6.483   5.347 -0.0558 -0.0134 -0.5649
   20MOL   C51916517   2.321   6.584   5.235 -0.1487 -0.4931  0.3706
   20MOL   H52016518   2.535   5.385   5.961  0.3202  2.5169  1.0583
   20MOL   H52116519   2.390   5.342   5.889 -2.7044  1.0767  0.9974
   20MOL   H52216520   2.446   5.624   6.021  0.0975 -0.3511 -1.4931
   20MOL   H52316521   2.230   5.542   5.859 -2.8986  1.1031 -1.0950
   20MOL   H52416522   2.189   5.501   6.023  0.3013  1.9072  2.4742
   20MOL   H52516523   2.176   5.720   6.106 -1.3100  1.5783 -1.1558
   20MOL   H52616524   2.300   5.783   5.995  0.0304  0.3069 -0.5621
   20MOL   H52716525   2.044   5.828   5.987 -1.7840 -2.0618  0.5122
   20MOL   H52816526   2.025   5.685   5.906  0.4973 -0.3947 -1.6447
   20MOL   H52916527   2.023   5.862   5.755 -0.0196  1.3027  1.5519
   20MOL   H53016528   2.164   5.767   5.707  0.0629  1.9256 -1.1033
   20MOL   H53116529   2.141   6.024   5.859 -0.5666 -0.4396 -0.0914
   20MOL   H53216530   2.303   5.954   5.832  0.4566  1.3132 -2.2880
   20MOL   H53316531   2.094   6.072   5.636 -1.1884 -2.7893  1.9547
   20MOL   H53416532   2.212   5.961   5.578  0.4781 -0.6464 -0.1964
   20MOL   H53516533   2.399   6.099   5.655 -0.5016 -0.0594  1.2780
   20MOL   H53616534   2.294   6.212   5.741  0.7102  1.5858 -0.7445
   20MOL   H53716535   2.354   6.156   5.448 -0.8583 -0.9995  1.4550
   20MOL   H53816536   2.214   6.254   5.486  0.4689  1.3314  0.8445
   20MOL   H53916537   2.358   6.413   5.609  1.0140  0.3874  1.3037
   20MOL   H54016538   2.497   6.315   5.561 -0.7106 -2.2783  0.5528
   20MOL   H54116539   2.451   6.351   5.312 -0.4781  0.2510 -0.3351
   20MOL   H54216540   2.497   6.497   5.397 -1.4243  0.5795 -1.3981
   20MOL   H54316541   2.235   6.533   5.424 -2.1763 -0.4563 -1.8594
   20MOL   H54416542   2.217   6.414   5.314 -0.2048  0.3859 -1.0614
   20MOL   H54516543   2.357   6.526   5.150  1.5337  0.4858  0.3989
   20MOL   H54616544   2.236   6.639   5.194 -0.7037 -1.6312 -0.0413
   20MOL   H54716545   2.396   6.658   5.262  1.9622 -1.3708 -2.7805
   20MOL   C54816546   2.375   5.472   6.154  0.5471  0.0889  0.7089
   20MOL   C54916547   2.500   5.484   6.243 -0.4337 -0.3636 -0.0554
   20MOL   C55016548   2.545   5.630   6.278 -0.7871 -0.1855 -0.7565
   20MOL   C55116549   2.438   5.710   6.342 -0.1547  0.0258 -0.4477
   20MOL   C55216550   2.469   5.857   6.347 -0.6803 -0.4219 -0.3871
   20MOL   C55316551   2.440   5.926   6.212  0.1764  0.5981  0.1069
   20MOL   C55416552   2.447   6.077   6.220 -0.2747  0.2612 -0.1119
   20MOL   C55516553   2.400   6.153   6.097  0.1276 -0.5568 -0.0701
   20MOL   C55616554   2.426   6.304   6.112  0.1064 -0.3341 -0.2341
   20MOL   C55716555   2.410   6.381   5.981 -0.0815 -0.1066  0.1459
   20MOL   C55816556   2.438   6.533   5.999  0.1157 -0.2225  0.7378
   20MOL   C55916557   2.453   6.612   5.865 -0.3976 -0.0803 -0.0035
   20MOL   C56016558   2.315   6.639   5.797  0.0460 -0.2023  0.7257
   20MOL   C56116559   2.320   6.717   5.659 -0.1963  0.2677 -0.5220
   20MOL   H56216560   2.287   5.509   6.207  0.7066  0.0776  0.9824
   20MOL   H56316561   2.362   5.364   6.141 -0.8365  0.2544  0.5762
   20MOL   H56416562   2.584   5.437   6.192 -0.0114 -0.8214  1.0314
   20MOL   H56516563   2.628   5.629   6.349 -1.0439 -0.8418 -0.4693
   20MOL   H56616564   2.601   5.677   6.197 -2.2507  1.7094 -0.7171
   20MOL   H56716565   2.420   5.681   6.446  0.2241  0.9931 -0.1033
   20MOL   H56816566   2.346   5.683   6.290  0.8326 -0.6063 -1.8872
   20MOL   H56916567   2.415   5.908   6.426  0.4465 -1.4511  1.0784
   20MOL   H57016568   2.573   5.866   6.376 -1.6815  1.8391  2.7072
   20MOL   H57116569   2.346   5.889   6.171  0.1124  1.2660 -0.3519
   20MOL   H57216570   2.518   5.899   6.140  0.6499  1.6863  0.1975
   20MOL   H57316571   2.383   6.106   6.303 -1.3478 -1.7152 -0.2110
   20MOL   H57416572   2.551   6.104   6.239  0.3241 -0.9859 -1.5624
   20MOL   H57516573   2.299   6.116   6.079  1.0365 -1.9975 -2.4294
   20MOL   H57616574   2.454   6.121   6.008 -0.9867  0.1903 -1.0265
   20MOL   H57716575   2.525   6.330   6.150 -0.1729  1.4008 -0.6391
   20MOL   H57816576   2.354   6.358   6.174  0.9600 -1.3323  1.6661
   20MOL   H57916577   2.478   6.345   5.904 -1.3607  0.3071 -1.2101
   20MOL   H58016578   2.307   6.366   5.949 -0.6784 -1.3140  2.5144
   20MOL   H58116579   2.531   6.539   6.055 -0.2459 -0.3514  1.3587
   20MOL   H58216580   2.365   6.577   6.067 -0.2790  0.1486  0.0892
   20MOL   H58316581   2.512   6.700   5.888 -2.5018  1.3079  0.2230
   20MOL   H58416582   2.529   6.571   5.799 -1.0933 -1.5307  0.0794
   20MOL   H58516583   2.255   6.549   5.782 -0.4096  0.1016  0.7080
   20MOL   H58616584   2.256   6.698   5.868 -0.6912 -0.3805  0.2652
   20MOL   H58716585   2.220   6.729   5.618 -0.1240 -2.2245 -1.5012
   20MOL   H58816586   2.353   6.820   5.675 -2.6738  0.9915  0.1076
   20MOL   H58916587   2.389   6.683   5.582 -0.6334 -1.0017 -0.3494
   20MOL   C59016588   2.478   5.403   6.375  0.2495 -0.6173 -0.0656
   20MOL   C59116589   2.607   5.369   6.456  0.5234 -0.2564  0.5075
   20MOL   C59216590   2.562   5.307   6.590 -0.4166  0.4645  0.1603
   20MOL   C59316591   2.512   5.415   6.679  0.5379 -0.1270 -0.4972
   20MOL   C59416592   2.517   5.378   6.831  0.3803  0.5443 -0.3917
   20MOL   C59516593   2.480   5.500   6.920  0.2424 -0.1810  0.6204
   20MOL   C59616594   2.477   5.465   7.069 -0.2380 -0.2187 -0.6293
   20MOL   C59716595   2.609   5.420   7.134  0.3963  0.1745  0.2335
   20MOL   C59816596   2.734   5.515   7.092  0.3586  0.4367 -0.2966
   20MOL   C59916597   2.848   5.527   7.191 -0.0572  0.1259 -0.5599
   20MOL   C60016598   2.956   5.608   7.126 -0.6445 -0.8781  0.0251
   20MOL   C60116599   3.063   5.655   7.225 -0.2034  0.2145  0.1028
   20MOL   C60216600   3.198   5.702   7.161 -0.3780 -0.0239  0.1695
   20MOL   C60316601   3.303   5.746   7.263 -1.0376  0.0230 -0.3298
   20MOL   H60416602   2.436   5.305   6.351 -2.7148  1.0034 -1.8961
   20MOL   H60516603   2.414   5.456   6.445 -0.4073 -0.6396 -0.6364
   20MOL   H60616604   2.673   5.456   6.462  1.1202 -0.7205  0.7282
   20MOL   H60716605   2.643   5.255   6.641 -1.3996  0.5096  1.7944
   20MOL   H60816606   2.484   5.232   6.577  0.5299 -0.7378  1.2799
   20MOL   H60916607   2.411   5.446   6.654  0.6069  0.8152  0.3919
   20MOL   H61016608   2.578   5.502   6.676 -0.4155  0.6923  1.5897
   20MOL   H61116609   2.618   5.347   6.857 -0.0870 -0.4226  0.3108
   20MOL   H61216610   2.451   5.291   6.833  2.8061 -1.3672 -1.2253
   20MOL   H61316611   2.385   5.541   6.886  1.3732  0.7889 -1.4364
   20MOL   H61416612   2.543   5.587   6.900 -0.4271  0.5834  1.7689
   20MOL   H61516613   2.440   5.559   7.112  1.2414  1.3188 -2.6184
   20MOL   H61616614   2.404   5.387   7.092  1.1377 -1.3773 -0.1716
   20MOL   H61716615   2.594   5.429   7.242  1.2308  0.3827  0.3367
   20MOL   H61816616   2.634   5.319   7.104  2.0817  1.5938 -3.4790
   20MOL   H61916617   2.777   5.488   6.996  2.5672 -1.0790  1.0730
   20MOL   H62016618   2.708   5.620   7.077  3.5569  1.2375 -0.4083
   20MOL   H62116619   2.808   5.569   7.283 -1.1633 -1.6326 -0.1993
   20MOL   H62216620   2.878   5.427   7.222  0.8882  0.4211 -0.5139
   20MOL   H62316621   2.920   5.699   7.077  3.0369  1.6325  1.7080
   20MOL   H62416622   3.004   5.537   7.058  0.8165 -0.1260  0.2483
   20MOL   H62516623   3.092   5.568   7.285  3.3601  0.8437 -0.6096
   20MOL   H62616624   3.044   5.733   7.299 -2.1702  0.2082 -0.3772
   20MOL   H62716625   3.246   5.620   7.106 -2.5801  0.3697 -2.4422
   20MOL   H62816626   3.181   5.790   7.098  0.7382 -0.3022 -0.5393
   20MOL   H62916627   3.266   5.831   7.320 -0.7499  1.5526 -2.3874
   20MOL   H63016628   3.394   5.775   7.211 -0.7921 -0.3867 -0.1334
   20MOL   H63116629   3.337   5.664   7.327 -1.6609  0.4871  0.6117
   20MOL   C63216630   2.699   5.271   6.370  0.2548  0.6271  0.0264
   20MOL   C63316631   2.650   5.129   6.333  0.1853 -0.6489 -0.3533
   20MOL   C63416632   2.612   5.128   6.185 -0.3379  0.1504 -0.0527
   20MOL   C63516633   2.573   4.997   6.120 -0.2085 -0.5431 -0.1614
   20MOL   C63616634   2.534   5.002   5.977 -0.3431  0.1467 -0.3129
   20MOL   C63716635   2.534   4.868   5.910 -0.0148 -0.3139  0.4865
   20MOL   C63816636   2.392   4.816   5.885  0.6254 -0.2658 -0.5996
   20MOL   C63916637   2.401   4.694   5.792  0.1885 -0.1410  0.0576
   20MOL   C64016638   2.261   4.642   5.763 -0.2779  0.3336 -0.0059
   20MOL   C64116639   2.242   4.488   5.772  0.0173 -0.3727  0.4149
   20MOL   C64216640   2.246   4.437   5.913  0.0039  0.0381 -0.0664
   20MOL   C64316641   2.222   4.285   5.915 -0.0669 -0.6481 -0.4599
   20MOL   C64416642   2.225   4.232   6.057  0.3538  0.0758 -0.6519
   20MOL   C64516643   2.369   4.182   6.092  0.5068 -0.0148 -0.2110
   20MOL   H64616644   2.789   5.267   6.432 -1.0989  0.0953  1.9719
   20MOL   H64716645   2.741   5.333   6.290  0.4518  0.6536  0.1481
   20MOL   H64816646   2.564   5.108   6.398 -1.1683  2.5719 -1.0143
   20MOL   H64916647   2.532   5.200   6.165  0.2699  0.5713 -0.9918
   20MOL   H65016648   2.704   5.163   6.139  0.4223  0.4997  1.7352
   20MOL   H65116649   2.507   4.948   6.191 -1.0874  2.0761  0.8786
   20MOL   H65216650   2.661   4.932   6.123  0.2884  0.1011 -0.7938
   20MOL   H65316651   2.604   5.066   5.923  0.5679  0.5140  1.2824
   20MOL   H65416652   2.432   5.036   5.956 -0.1493  1.6030  1.0589
   20MOL   H65516653   2.574   4.888   5.811 -1.5746 -4.9647 -1.2285
   20MOL   H65616654   2.602   4.795   5.953 -1.0358 -1.2904  0.4824
   20MOL   H65716655   2.349   4.797   5.984 -0.5513  0.6302 -0.9294
   20MOL   H65816656   2.327   4.886   5.832  1.9090  0.9491 -0.5867
   20MOL   H65916657   2.460   4.618   5.844  0.8481 -1.2435 -2.1989
   20MOL   H66016658   2.448   4.711   5.695 -1.0721 -1.7492 -0.8695
   20MOL   H66116659   2.236   4.674   5.661  0.4768 -1.8755 -0.9149
   20MOL   H66216660   2.182   4.686   5.823 -0.2506 -2.0080  1.8200
   20MOL   H66316661   2.148   4.472   5.719  0.2779 -0.9234  0.1149
   20MOL   H66416662   2.318   4.446   5.706  0.0406 -1.2157  0.9701
   20MOL   H66516663   2.344   4.465   5.952 -0.4131  0.3948  0.7406
   20MOL   H66616664   2.174   4.483   5.980  1.4667  0.5677  1.1852
   20MOL   H66716665   2.304   4.249   5.853 -0.1581  0.6044 -1.3244
   20MOL   H66816666   2.131   4.266   5.858  0.0597  3.0658 -2.0212
   20MOL   H66916667   2.154   4.150   6.050 -1.1470  1.3026 -0.2765
   20MOL   H67016668   2.183   4.303   6.128  0.2075 -1.5820  0.9507
   20MOL   H67116669   2.379   4.135   6.190 -1.8564  0.0469  0.0749
   20MOL   H67216670   2.413   4.122   6.013  1.5817 -3.4234  2.7940
   20MOL   H67316671   2.426   4.275   6.096  1.6551 -0.7451  0.8771
   20MOL   C67416672   2.765   5.037   6.353  0.3063  0.0725 -0.3401
   20MOL   C67516673   2.821   5.004   6.499 -0.3513  0.2207  0.2461
   20MOL   C67616674   2.718   4.938   6.597 -1.1525  0.0876  0.0240
   20MOL   C67716675   2.769   4.962   6.743 -0.1544  0.3592 -0.2375
   20MOL   C67816676   2.659   4.948   6.844  0.3698  0.3197 -0.6099
   20MOL   C67916677   2.705   4.964   6.990 -0.0905 -0.0766 -0.2289
   20MOL   C68016678   2.608   4.964   7.106 -0.3812  0.0276  0.1287
   20MOL   C68116679   2.671   4.958   7.242  0.0702 -0.0240 -0.0376
   20MOL   C68216680   2.573   4.990   7.365  0.1562  0.6219 -0.9947
   20MOL   C68316681   2.520   5.132   7.363  0.4242  0.5394 -1.1287
   20MOL   C68416682   2.438   5.164   7.485 -0.3075 -0.4722  0.2905
   20MOL   C68516683   2.363   5.297   7.480  0.6160  0.3679  0.2280
   20MOL   C68616684   2.267   5.311   7.604 -0.1834 -0.7065  0.5003
   20MOL   C68716685   2.146   5.213   7.600 -0.2406 -0.8994  0.0045
   20MOL   H68816686   2.848   5.079   6.296  0.9891  0.3705  0.8467
   20MOL   H68916687   2.738   4.942   6.306 -0.3329  1.6211 -3.2431
   20MOL   H69016688   2.854   5.098   6.543 -0.5019  1.0542 -1.3772
   20MOL   H69116689   2.617   4.981   6.596 -0.8548  1.0817  3.9140
   20MOL   H69216690   2.686   4.834   6.589  0.1792 -0.3958  0.8048
   20MOL   H69316691   2.848   4.889   6.761  0.5160  1.2383  0.4308
   20MOL   H69416692   2.801   5.066   6.747 -1.5647  0.8058 -0.4929
   20MOL   H69516693   2.591   5.028   6.817 -1.8162 -1.9861 -2.0789
   20MOL   H69616694   2.602   4.856   6.842 -0.5760  0.9266 -2.4029
   20MOL   H69716695   2.768   4.877   7.008  0.5185  0.2666 -0.6657
   20MOL   H69816696   2.764   5.055   6.998  1.0093 -0.8442  0.4737
   20MOL   H69916697   2.545   5.053   7.098  2.1140  1.8847  0.4840
   20MOL   H70016698   2.532   4.885   7.103 -1.4632  1.0543 -0.1439
   20MOL   H70116699   2.726   4.865   7.257 -1.5120 -0.5661  2.7527
   20MOL   H70216700   2.750   5.032   7.236 -0.6586  0.7176 -0.5386
   20MOL   H70316701   2.489   4.921   7.369  0.3096  0.5110  2.3489
   20MOL   H70416702   2.628   4.975   7.458 -0.4974  0.3469 -0.6471
   20MOL   H70516703   2.450   5.158   7.284  1.8423  2.0413 -1.9080
   20MOL   H70616704   2.606   5.197   7.353  0.7025  0.2072 -0.9092
   20MOL   H70716705   2.500   5.166   7.574  0.2943  0.4924 -0.1443
   20MOL   H70816706   2.366   5.082   7.483  1.7844 -2.3391  0.3863
   20MOL   H70916707   2.304   5.301   7.389  1.8361 -0.8637 -0.6382
   20MOL   H71016708   2.435   5.378   7.489  0.1522  0.7670  0.3603
   20MOL   H71116709   2.335   5.296   7.687  3.6632  0.2965 -2.3226
   20MOL   H71216710   2.229   5.413   7.610 -1.5983 -1.0781 -1.4347
   20MOL   H71316711   2.107   5.204   7.498 -0.6034 -0.4011  0.0966
   20MOL   H71416712   2.180   5.111   7.619 -0.3277 -0.7887  0.7614
   20MOL   H71516713   2.068   5.245   7.669  0.7620  1.4820  0.0796
   20MOL   C71616714   2.951   4.919   6.489  0.3782 -0.6439 -0.4067
   20MOL   C71716715   3.075   4.975   6.406 -0.4004  0.8917  0.6922
   20MOL   C71816716   3.100   5.126   6.443  0.0420 -0.6482 -0.7261
   20MOL   C71916717   3.188   5.198   6.337  0.8203  0.0464 -0.1344
   20MOL   C72016718   3.178   5.351   6.339 -0.1518  0.5027 -0.4967
   20MOL   C72116719   3.276   5.420   6.250 -0.2334 -0.1239 -0.1541
   20MOL   C72216720   3.421   5.412   6.299 -0.4452  0.2560 -0.0459
   20MOL   C72316721   3.515   5.491   6.207  0.1611  0.2760  0.2057
   20MOL   C72416722   3.662   5.481   6.235  0.2570  0.6753 -0.5615
   20MOL   C72516723   3.754   5.524   6.117 -0.3137 -0.1833 -0.0506
   20MOL   C72616724   3.909   5.510   6.159 -0.3282  0.3622 -0.0179
   20MOL   C72716725   4.009   5.547   6.050 -0.2645 -0.4988  0.5143
   20MOL   C72816726   4.144   5.482   6.088 -0.1889  0.5492 -0.0980
   20MOL   C72916727   4.252   5.540   6.011  0.3410  0.0098 -0.8018
   20MOL   H73016728   2.994   4.899   6.587 -0.2695 -0.4149 -0.0699
   20MOL   H73116729   2.923   4.820   6.454  1.7081 -1.2138  0.1107
   20MOL   H73216730   3.056   4.975   6.299  1.9217 -1.7135  0.1997
   20MOL   H73316731   3.140   5.140   6.543 -0.1450 -1.8311 -0.4823
   20MOL   H73416732   3.008   5.183   6.457  0.6541  0.3989 -0.9322
   20MOL   H73516733   3.288   5.153   6.338  1.2135  0.7690 -2.3628
   20MOL   H73616734   3.150   5.180   6.236  0.9045  2.7109 -0.6902
   20MOL   H73716735   3.076   5.370   6.308 -0.5659  1.3178  1.3041
   20MOL   H73816736   3.193   5.388   6.441 -1.6243 -1.0341  0.2956
   20MOL   H73916737   3.255   5.381   6.150 -2.1277  0.5723 -0.0490
   20MOL   H74016738   3.251   5.526   6.244  2.8667  0.6475 -0.3613
   20MOL   H74116739   3.424   5.456   6.399  0.1408 -0.0969  0.0953
   20MOL   H74216740   3.453   5.307   6.299 -2.2038 -0.2974  0.1518
   20MOL   H74316741   3.500   5.599   6.194 -0.6874 -0.0458 -1.6935
   20MOL   H74416742   3.494   5.460   6.104  0.0736  1.5587 -0.1774
   20MOL   H74516743   3.688   5.548   6.316  0.6330  0.7715 -0.7629
   20MOL   H74616744   3.677   5.384   6.282 -1.5043  0.5952 -0.1290
   20MOL   H74716745   3.740   5.463   6.028  0.7931 -1.8388  0.9003
   20MOL   H74816746   3.734   5.630   6.099 -1.8724 -0.2638  1.0932
   20MOL   H74916747   3.935   5.576   6.243 -1.0736 -0.3655  0.7874
   20MOL   H75016748   3.934   5.406   6.176 -1.2268 -0.1281 -1.6440
   20MOL   H75116749   3.988   5.500   5.953 -0.7447  1.8617 -0.5665
   20MOL   H75216750   4.026   5.652   6.028  0.0746 -0.6840 -0.1352
   20MOL   H75316751   4.136   5.376   6.065  0.7871  1.2575 -3.9954
   20MOL   H75416752   4.158   5.477   6.196  1.4743 -0.5198 -0.3609
   20MOL   H75516753   4.266   5.648   6.020  1.1192 -0.2117  0.7385
   20MOL   H75616754   4.235   5.509   5.908  1.4492 -1.6585 -0.5032
   20MOL   H75716755   4.349   5.510   6.051 -0.4241 -1.5226 -0.0656
   20MOL   C75816756   3.194   4.876   6.400  0.2880  0.0419 -0.3527
   20MOL   C75916757   3.308   4.896   6.500 -0.0648  0.4862 -0.3170
   20MOL   C76016758   3.279   4.805   6.616  0.7341 -0.0556  1.0505
   20MOL   C76116759   3.310   4.851   6.762 -0.0162 -0.2550 -0.0154
   20MOL   C76216760   3.214   4.792   6.864 -0.4011 -0.4289  0.0399
   20MOL   C76316761   3.244   4.814   7.012  0.0735 -0.2355 -0.3469
   20MOL   C76416762   3.132   4.766   7.107 -0.7722  0.5045 -0.2601
   20MOL   C76516763   3.176   4.768   7.251 -1.0884 -0.3998 -0.2254
   20MOL   C76616764   3.107   4.675   7.348 -0.4237 -0.1427  0.2564
   20MOL   C76716765   3.141   4.707   7.502 -0.0591 -0.1373 -0.2705
   20MOL   C76816766   3.074   4.608   7.599 -0.0840 -0.4733 -0.0049
   20MOL   C76916767   3.130   4.465   7.585 -0.3104  0.2231  0.0209
   20MOL   C77016768   3.105   4.376   0.013 -1.1786 -0.2719  0.7825
   20MOL   C77116769   3.139   4.231   7.692  0.3553  0.1513  0.0669
   20MOL   H77216770   3.165   4.772   6.392 -1.4034  0.5311 -0.6495
   20MOL   H77316771   3.238   4.896   6.302 -0.0749  0.3483 -0.4530
   20MOL   H77416772   3.323   4.996   6.541 -0.6855  0.5289 -0.1870
   20MOL   H77516773   3.172   4.785   6.612  0.5744  0.9410 -0.0133
   20MOL   H77616774   3.314   4.703   6.599 -3.2306 -1.4129  0.4011
   20MOL   H77716775   3.410   4.814   6.784  0.2520  0.7812  0.5204
   20MOL   H77816776   3.294   4.959   6.762 -1.1870 -0.4093 -1.0765
   20MOL   H77916777   3.207   4.684   6.847 -0.1245 -0.2315 -1.4409
   20MOL   H78016778   3.113   4.830   6.848 -0.1770 -0.1685 -0.8323
   20MOL   H78116779   3.259   4.920   7.031  2.0999 -0.1984 -1.9188
   20MOL   H78216780   3.337   4.765   7.041  0.1350  0.0259 -0.1066
   20MOL   H78316781   3.057   4.845   7.103 -1.3756 -0.0136  0.9648
   20MOL   H78416782   3.104   4.663   7.087  0.1743  0.0819  0.5135
   20MOL   H78516783   3.168   4.870   7.288  1.9087 -0.4086  0.5666
   20MOL   H78616784   3.281   4.742   7.261 -0.6518  1.8319  1.2992
   20MOL   H78716785   3.142   4.573   7.328 -0.7369 -0.5801  1.8540
   20MOL   H78816786   3.002   4.692   7.327 -0.2267 -1.6942 -2.1963
   20MOL   H78916787   3.105   4.810   7.509  0.0427 -0.1925  1.2893
   20MOL   H79016788   3.248   4.710   7.520  0.0666 -1.1209 -0.8284
   20MOL   H79116789   3.090   4.650   0.003  0.7500 -0.2822 -0.2093
   20MOL   H79216790   2.966   4.614   7.594 -0.1221 -1.4737 -0.4853
   20MOL   H79316791   3.083   4.428   7.494 -1.5490  2.4033 -0.2797
   20MOL   H79416792   3.237   4.462   7.569 -0.3045  1.6864 -0.3158
   20MOL   H79516793   3.169   4.398   0.099 -1.1614 -0.2470  0.7632
   20MOL   H79616794   3.001   4.376   0.046 -0.6699  0.7432  2.4482
   20MOL   H79716795   3.067   4.182   7.627 -1.1285  0.9640  1.0813
   20MOL   H79816796   3.245   4.224   7.666  0.7819 -1.4575  2.0602
   20MOL   H79916797   3.117   4.174   0.086 -0.3424 -1.9579 -1.4132
   20MOL   C80016798   3.452   4.859   6.441 -0.9399 -0.2563 -0.3452
   20MOL   C80116799   3.582   4.878   6.533 -0.2189  0.1400 -0.2357
   20MOL   C80216800   3.715   4.822   6.469 -0.7623  0.0713  0.7205
   20MOL   C80316801   3.774   4.898   6.355 -0.2898  0.4193 -0.3833
   20MOL   C80416802   3.902   4.831   6.290  0.3760  1.2147 -0.2630
   20MOL   C80516803   3.981   4.927   6.198  0.2692 -0.5337 -0.2755
   20MOL   C80616804   3.902   4.955   6.062 -0.1334  0.0824 -0.8178
   20MOL   C80716805   3.982   5.038   5.964  1.3058  0.5535  0.3558
   20MOL   C80816806   3.882   5.075   5.849 -0.0276  0.5992  0.3418
   20MOL   C80916807   3.953   5.127   5.718  0.2835  0.5755  0.6998
   20MOL   C81016808   3.854   5.154   5.605  0.2538 -0.4004 -0.2473
   20MOL   C81116809   3.940   5.187   5.482  0.0096  0.1383  0.4551
   20MOL   C81216810   3.856   5.222   5.359 -0.1551  0.2903 -0.4238
   20MOL   C81316811   3.939   5.250   5.232  1.0990 -0.3637 -0.4588
   20MOL   H81416812   3.479   4.924   6.358  0.1235 -0.2915 -0.0369
   20MOL   H81516813   3.435   4.755   6.412 -1.3893 -0.1237 -0.5590
   20MOL   H81616814   3.565   4.826   6.627 -0.3333 -0.7597 -0.7521
   20MOL   H81716815   3.702   4.720   6.434 -0.8383  0.2923  0.1055
   20MOL   H81816816   3.788   4.816   6.550 -2.6114 -0.3226  2.4145
   20MOL   H81916817   3.800   4.994   6.399  1.1018 -0.4414  0.7284
   20MOL   H82016818   3.703   4.924   6.276 -0.7924  3.4064  0.9721
   20MOL   H82116819   3.969   4.821   6.376 -1.0919 -1.2756  0.6422
   20MOL   H82216820   3.879   4.735   6.244  2.6552  0.5314 -0.0598
   20MOL   H82316821   4.075   4.878   6.175  0.8345  1.1761 -1.7639
   20MOL   H82416822   3.998   5.024   6.246 -4.4471 -0.3888  1.3759
   20MOL   H82516823   3.883   4.854   6.027 -3.2971  0.6049 -0.7396
   20MOL   H82616824   3.808   5.005   6.085  1.0463  1.6711  0.7080
   20MOL   H82716825   4.025   5.129   6.006  1.8883  2.4266 -4.0677
   20MOL   H82816826   4.067   4.981   5.925  2.0083  1.2972  0.7665
   20MOL   H82916827   3.822   4.987   5.825  0.7983  0.9932 -3.4371
   20MOL   H83016828   3.814   5.153   5.884  2.6691  2.3469  1.8193
   20MOL   H83116829   4.040   5.068   5.690 -0.0678  0.1443  0.5157
   20MOL   H83216830   3.991   5.224   5.749 -0.9839  0.7482  1.7668
   20MOL   H83316831   3.806   5.057   5.597  1.2147 -0.9178  0.2081
   20MOL   H83416832   3.777   5.227   5.632 -0.0850 -1.1025  0.7297
   20MOL   H83516833   3.997   5.097   5.464 -0.4911 -0.4534  1.8117
   20MOL   H83616834   4.005   5.272   5.503 -0.3846  0.9828 -1.5579
   20MOL   H83716835   3.796   5.132   5.349 -1.0406  0.6891  1.2655
   20MOL   H83816836   3.783   5.301   5.376 -1.1708 -0.2325 -2.1890
   20MOL   H83916837   3.943   5.151   5.185 -0.6431 -0.8135  0.2909
   20MOL   H84016838   3.881   5.306   5.158 -1.9706 -1.4326  1.0230
   20MOL   H84116839   4.039   5.292   5.238  0.0870  2.0228  0.1613
   20MOL   H84216840   3.603   4.982   6.559  3.1026 -0.9707  1.7606
   21MOL     C116841   2.191   5.690   6.646 -0.3657 -0.3563  0.3257
   21MOL     C216842   2.128   5.742   6.516  0.2860 -0.6678 -0.2847
   21MOL     C316843   2.081   5.620   6.431 -0.1009  0.5308 -0.2439
   21MOL     C416844   1.948   5.553   6.486 -0.5755 -0.1190  0.0347
   21MOL     C516845   1.909   5.428   6.402 -0.4392 -0.1014 -0.2954
   21MOL     C616846   1.766   5.401   6.449 -0.1008  0.5501  0.4804
   21MOL     C716847   1.708   5.276   6.380 -0.2194  0.1759 -0.7247
   21MOL     C816848   1.563   5.245   6.432 -0.6829 -0.6063  0.4136
   21MOL     C916849   1.508   5.117   6.358 -0.3302  0.0892 -0.6348
   21MOL    C1016850   1.360   5.096   6.365  0.0370  0.1325 -0.3857
   21MOL    C1116851   1.312   5.052   6.508  0.5675  0.2439  0.4452
   21MOL    C1216852   1.157   5.020   6.508 -0.0004  0.3701  0.4032
   21MOL    C1316853   1.110   4.963   6.644 -0.2799  0.7889  0.2373
   21MOL    C1416854   0.963   4.948   6.651 -1.1395  0.0975 -0.2499
   21MOL    H1516855   2.118   5.670   6.725 -2.4399 -0.8065 -1.6597
   21MOL    H1616856   2.266   5.757   6.688 -0.5270  0.3929 -0.5660
   21MOL    H1716857   2.207   5.797   6.464 -0.0337  0.4322  0.3764
   21MOL    H1816858   2.046   5.659   6.335 -0.5192 -0.4537 -0.4943
   21MOL    H1916859   2.158   5.546   6.411  0.4306  0.1766  2.8993
   21MOL    H2016860   1.867   5.626   6.482  0.0559  0.6782  1.3541
   21MOL    H2116861   1.953   5.531   6.592 -1.4336  3.6371  0.9380
   21MOL    H2216862   1.978   5.346   6.423  0.0115 -0.2321 -2.1656
   21MOL    H2316863   1.917   5.441   6.294  1.8561 -1.5672 -0.3594
   21MOL    H2416864   1.699   5.483   6.425 -2.8749 -1.9180 -0.4993
   21MOL    H2516865   1.780   5.382   6.556  1.5190 -1.3434 -0.0259
   21MOL    H2616866   1.710   5.283   6.272 -0.5861 -2.5426 -0.9433
   21MOL    H2716867   1.760   5.182   6.399  1.1049  1.2000  0.8396
   21MOL    H2816868   1.500   5.332   6.412  1.0994  0.6315  0.1455
   21MOL    H2916869   1.569   5.220   6.538 -2.5225  3.3067  1.5277
   21MOL    H3016870   1.544   5.110   6.256 -2.4629 -0.2288 -1.4017
   21MOL    H3116871   1.553   5.032   6.410  0.8851  2.3712  2.1435
   21MOL    H3216872   1.310   5.187   6.332  1.0959  1.4108  1.3727
   21MOL    H3316873   1.320   5.029   6.289 -0.3254  1.3459 -1.2731
   21MOL    H3416874   1.366   4.964   6.542  1.5052  0.8715  0.6094
   21MOL    H3516875   1.336   5.144   6.563  0.9748  1.3995 -1.6097
   21MOL    H3616876   1.148   4.940   6.434 -0.2617  0.0857  0.7391
   21MOL    H3716877   1.098   5.104   6.470  1.2017  1.1536  0.2653
   21MOL    H3816878   1.166   4.872   6.665 -1.5778 -0.0162  0.2362
   21MOL    H3916879   1.143   5.031   6.723  0.0606  0.6306  0.2336
   21MOL    H4016880   0.947   4.938   6.759  0.4074 -0.6582 -0.0832
   21MOL    H4116881   0.912   5.040   6.624  0.8820  1.1890 -0.3888
   21MOL    H4216882   0.922   4.864   6.594 -0.9916  0.1030 -0.3604
   21MOL    H4316883   2.246   5.600   6.621 -0.1672 -0.2112  0.2351
   21MOL    C4416884   2.021   5.845   6.561 -0.7560  0.5375 -0.2559
   21MOL    C4516885   2.061   5.988   6.603  0.8391 -0.2014  0.2973
   21MOL    C4616886   1.944   6.063   6.673 -0.1430 -0.2833 -0.2157
   21MOL    C4716887   1.858   6.000   6.780 -0.2595 -0.4034 -0.0230
   21MOL    C4816888   1.916   5.979   6.922  0.7163  0.3681  0.2879
   21MOL    C4916889   2.008   5.857   6.931 -0.1653 -0.6824  0.3548
   21MOL    C5016890   2.060   5.829   7.075  0.3884 -0.9883  1.2611
   21MOL    C5116891   2.147   5.711   7.088  0.0128 -0.2451  0.4057
   21MOL    C5216892   2.196   5.681   7.228  0.9192 -0.2693 -0.0729
   21MOL    C5316893   2.313   5.771   7.278  0.1978 -0.3164 -0.5402
   21MOL    C5416894   2.378   5.717   7.404 -0.7069  0.6651  0.0076
   21MOL    C5516895   2.520   5.768   7.428  0.3594 -0.5219  0.1607
   21MOL    C5616896   2.592   5.694   7.530  0.0436  0.3268  0.3477
   21MOL    C5716897   2.714   5.763   7.585 -0.1398 -0.7489  0.0044
   21MOL    H5816898   1.950   5.857   6.479  2.6680  1.1394 -3.2374
   21MOL    H5916899   1.969   5.795   6.643  2.6235 -0.4037  1.3936
   21MOL    H6016900   2.137   5.991   6.681  1.8835 -0.7140 -0.6925
   21MOL    H6116901   1.995   6.142   6.728 -1.0784 -1.0096  1.7530
   21MOL    H6216902   1.887   6.112   6.594  1.4909  0.8835 -0.6893
   21MOL    H6316903   1.809   5.910   6.743  0.1052 -0.6769  0.1608
   21MOL    H6416904   1.771   6.064   6.794 -0.2452 -0.5255  0.6324
   21MOL    H6516905   1.834   5.973   6.993 -0.2324  1.5973 -0.6718
   21MOL    H6616906   1.958   6.073   6.958  1.0357  0.0591  0.7176
   21MOL    H6716907   1.962   5.766   6.892  1.8345 -0.4976 -2.6702
   21MOL    H6816908   2.093   5.868   6.863 -1.7923 -0.2503 -1.6317
   21MOL    H6916909   2.121   5.915   7.098 -0.4921 -0.5483  1.9880
   21MOL    H7016910   1.978   5.815   7.145 -0.3732 -1.2846  0.3299
   21MOL    H7116911   2.237   5.726   7.029 -1.1070 -1.5164 -1.7179
   21MOL    H7216912   2.089   5.626   7.050 -0.0268 -0.3089  0.6103
   21MOL    H7316913   2.122   5.675   7.308  1.5955 -0.2454  0.5535
   21MOL    H7416914   2.237   5.580   7.224  1.3745 -0.0718 -0.4226
   21MOL    H7516915   2.299   5.879   7.290 -0.0444 -0.2538 -1.3451
   21MOL    H7616916   2.391   5.760   7.204 -0.4921 -0.9241 -1.1823
   21MOL    H7716917   2.404   5.612   7.392 -0.0189  0.7813  0.4652
   21MOL    H7816918   2.305   5.721   7.484 -1.5678 -1.7751 -0.6154
   21MOL    H7916919   2.578   5.758   7.336  2.1672 -0.8546  1.3108
   21MOL    H8016920   2.516   5.876   7.437  3.3780 -0.3774  0.2319
   21MOL    H8116921   2.611   5.592   7.496  0.7765  0.6897 -0.3295
   21MOL    H8216922   2.533   5.677   7.621  2.2980 -1.2795  1.5585
   21MOL    H8316923   2.799   5.776   7.517  1.0952  0.7002  1.7683
   21MOL    H8416924   2.764   5.715   7.669  2.1070  0.8937 -0.3524
   21MOL    H8516925   2.694   5.863   7.622 -0.0348  0.0795 -2.1311
   21MOL    C8616926   2.126   6.073   6.489  0.3222 -1.0160  0.1327
   21MOL    C8716927   2.193   6.208   6.525  0.3144  0.3140  0.3865
   21MOL    C8816928   2.166   6.315   6.403 -0.7035 -0.0784 -0.1805
   21MOL    C8916929   2.025   6.364   6.390 -0.0128 -0.1826  0.1610
   21MOL    C9016930   2.010   6.450   6.266  0.0761  0.0711 -0.2373
   21MOL    C9116931   1.863   6.509   6.254  0.0684 -0.1511 -0.5777
   21MOL    C9216932   1.816   6.506   6.109  0.5824 -0.0809  0.0717
   21MOL    C9316933   1.667   6.521   6.098 -0.3414  0.3213 -0.0658
   21MOL    C9416934   1.625   6.534   5.952  0.0581 -0.0730  0.2085
   21MOL    C9516935   1.469   6.536   5.947  0.6917 -0.4192 -0.4641
   21MOL    C9616936   1.415   6.565   5.810  0.4794 -0.2313 -0.0599
   21MOL    C9716937   1.260   6.579   5.805 -0.1725  0.5777  0.5298
   21MOL    C9816938   1.204   6.640   5.680  0.0650 -0.4490  0.5739
   21MOL    C9916939   1.050   6.633   5.688  0.3700  0.2435 -0.1208
   21MOL   H10016940   2.200   6.009   6.442  2.0712  1.2333 -0.2408
   21MOL   H10116941   2.048   6.088   6.414  1.0260 -0.9831 -0.6062
   21MOL   H10216942   2.146   6.245   6.616  1.0106 -0.2318  0.9748
   21MOL   H10316943   2.232   6.401   6.409 -0.3340 -0.5288  2.8376
   21MOL   H10416944   2.194   6.258   6.315 -1.2327 -1.0499  0.2617
   21MOL   H10516945   1.959   6.279   6.377 -0.6462  0.3486 -0.1311
   21MOL   H10616946   1.996   6.414   6.482 -0.0707 -1.2313  0.7198
   21MOL   H10716947   2.013   6.375   6.187  2.6560 -0.2294  0.1112
   21MOL   H10816948   2.083   6.530   6.255 -0.1646  0.4898  1.1331
   21MOL   H10916949   1.852   6.601   6.313  3.3934 -1.1976  1.8442
   21MOL   H11016950   1.792   6.447   6.309  1.6241 -1.5185 -0.0760
   21MOL   H11116951   1.870   6.590   6.066  1.4397  0.3786  1.9882
   21MOL   H11216952   1.845   6.418   6.052  0.1667  1.1164 -2.0487
   21MOL   H11316953   1.642   6.618   6.142 -0.9806  0.6979 -1.2421
   21MOL   H11416954   1.612   6.440   6.144 -2.4639  2.2483  0.8439
   21MOL   H11516955   1.674   6.623   5.913  0.1410 -0.2272 -0.0423
   21MOL   H11616956   1.662   6.451   5.892  0.0872 -1.3166  1.9394
   21MOL   H11716957   1.424   6.607   6.015  1.2183 -2.0115  1.5927
   21MOL   H11816958   1.425   6.440   5.976  0.3833 -0.7537 -1.9945
   21MOL   H11916959   1.450   6.661   5.773 -2.2780  1.0357  0.5569
   21MOL   H12016960   1.447   6.493   5.734  1.6919  0.6201 -0.3702
   21MOL   H12116961   1.211   6.486   5.835  0.3487  0.0834 -0.1534
   21MOL   H12216962   1.238   6.652   5.883  2.3914  1.4336  0.4838
   21MOL   H12316963   1.235   6.577   5.597  2.8176 -0.1534  1.3273
   21MOL   H12416964   1.249   6.737   5.659 -0.2555 -0.4007  0.1131
   21MOL   H12516965   1.010   6.687   5.775  0.4309 -0.1231  0.1339
   21MOL   H12616966   1.003   6.654   5.592  0.7807  0.3433 -0.3019
   21MOL   H12716967   1.036   6.527   5.706  0.0189  0.5188  1.3363
   21MOL   C12816968   2.342   6.195   6.556 -0.5456 -0.2007  0.3532
   21MOL   C12916969   2.409   6.259   6.681 -0.0504 -0.4403 -0.3877
   21MOL   C13016970   2.369   6.198   6.814 -0.0585  0.7225 -0.3329
   21MOL   C13116971   2.417   6.050   6.836  0.3998 -0.0304 -0.8540
   21MOL   C13216972   2.392   6.005   6.977  0.9344  0.7809 -0.5101
   21MOL   C13316973   2.491   6.068   7.082 -0.5970  0.0093  0.3367
   21MOL   C13416974   2.629   5.996   7.076 -0.1644 -0.6572 -0.0615
   21MOL   C13516975   2.740   6.070   7.155  0.4377  0.2032  0.0641
   21MOL   C13616976   2.871   5.989   7.164  0.2774  0.2524 -0.0064
   21MOL   C13716977   2.981   6.061   7.255 -0.2635 -0.1154  0.9909
   21MOL   C13816978   2.970   6.039   7.406  0.0357 -0.7630 -0.9617
   21MOL   C13916979   2.997   6.153   7.507  0.0894  1.0100  0.1985
   21MOL   C14016980   2.879   6.251   7.515 -0.3659  0.0937  0.3505
   21MOL   C14116981   2.898   6.359   7.627  0.3131  0.1921 -0.4527
   21MOL   H14216982   2.373   6.091   6.555  1.4858  0.3724  1.0940
   21MOL   H14316983   2.406   6.242   6.481  0.0709  0.1688  1.1051
   21MOL   H14416984   2.355   6.354   6.676  2.5051  1.0798 -0.1929
   21MOL   H14516985   2.404   6.265   6.892 -0.8909  1.4972 -0.6227
   21MOL   H14616986   2.261   6.194   6.825  0.1122 -2.7399  0.9871
   21MOL   H14716987   2.377   5.978   6.764 -1.4535  0.2009 -0.0871
   21MOL   H14816988   2.523   6.059   6.815  0.8578  0.3336  1.5552
   21MOL   H14916989   2.287   6.018   7.005  1.6020  1.2718  1.8649
   21MOL   H15016990   2.414   5.898   6.968 -1.3142  0.3792 -1.7481
   21MOL   H15116991   2.495   6.176   7.075 -2.7926  0.1722  1.3781
   21MOL   H15216992   2.440   6.041   7.174  0.0626  0.7310  0.9178
   21MOL   H15316993   2.628   5.896   7.119  1.4942 -0.5653  0.2239
   21MOL   H15416994   2.673   5.988   6.977  1.5102 -0.1805  0.6296
   21MOL   H15516995   2.751   6.162   7.097  1.6854 -0.1517 -0.2624
   21MOL   H15616996   2.705   6.099   7.254 -1.2258  1.6575 -0.9112
   21MOL   H15716997   2.858   5.890   7.206 -0.3794  1.0791  1.7770
   21MOL   H15816998   2.912   5.973   7.064 -0.5450  0.0248 -0.3059
   21MOL   H15916999   2.974   6.168   7.234 -0.0287 -0.6686 -2.1329
   21MOL   H16017000   3.081   6.034   7.223 -0.1243 -1.4865  2.4719
   21MOL   H16117001   2.881   5.982   7.434  0.5341  0.2105  2.8786
   21MOL   H16217002   3.050   5.968   7.425 -0.5480 -0.5794  2.5506
   21MOL   H16317003   3.009   6.101   7.603 -0.7792 -0.0112 -0.2384
   21MOL   H16417004   3.091   6.206   7.490  0.8976 -0.2240  0.7437
   21MOL   H16517005   2.862   6.300   7.419 -0.3620  0.8309  0.7164
   21MOL   H16617006   2.784   6.200   7.530 -0.8893  0.5350 -1.3220
   21MOL   H16717007   2.827   6.441   7.622  2.0744  1.6968 -1.0908
   21MOL   H16817008   2.903   6.320   0.033  0.2647 -2.2086 -1.3378
   21MOL   H16917009   2.993   6.410   7.617 -0.8348  2.4784  0.0357
   21MOL   C17017010   2.565   6.281   6.665  0.2492  0.3187 -0.2184
   21MOL   C17117011   2.640   6.374   6.765  0.1252 -0.0944 -0.2360
   21MOL   C17217012   2.786   6.396   6.732 -0.4502 -0.1819  0.8155
   21MOL   C17317013   2.878   6.277   6.733  0.4828 -0.2161 -0.2128
   21MOL   C17417014   2.935   6.243   6.869  0.0249  0.7444 -0.0685
   21MOL   C17517015   3.039   6.129   6.870  0.7296 -0.7314 -0.3358
   21MOL   C17617016   3.011   6.004   6.793  0.1822  0.2139 -1.0149
   21MOL   C17717017   3.120   5.895   6.800 -0.6297  1.0769 -0.3427
   21MOL   C17817018   3.061   5.750   6.801  0.0493 -0.2038 -0.1066
   21MOL   C17917019   3.034   5.690   6.662  0.3723  0.2209 -0.0437
   21MOL   C18017020   2.983   5.545   6.666  0.5703 -1.0401  0.0031
   21MOL   C18117021   3.063   5.447   6.749 -0.1067 -0.3804 -0.1140
   21MOL   C18217022   2.992   5.313   6.769 -1.0675 -0.1197  0.3179
   21MOL   C18317023   3.056   5.205   6.861  0.1488 -0.5744  0.7569
   21MOL   H18417024   2.567   6.331   6.568  2.3727 -0.1034 -0.3979
   21MOL   H18517025   2.614   6.184   6.662 -1.5963 -0.6492 -0.1593
   21MOL   H18617026   2.656   6.317   6.857  1.9162  1.2424  0.3108
   21MOL   H18717027   2.778   6.426   6.628  0.1845  2.5223  1.4789
   21MOL   H18817028   2.841   6.467   6.795 -0.9854  1.3005 -0.3791
   21MOL   H18917029   2.845   6.193   6.672  0.8599 -0.1457 -0.5158
   21MOL   H19017030   2.965   6.310   6.677  0.7078  1.1910  0.9532
   21MOL   H19117031   2.975   6.334   6.915 -1.6237  1.6688 -0.4115
   21MOL   H19217032   2.855   6.218   6.938  0.0369 -0.4251 -0.4763
   21MOL   H19317033   3.064   6.122   6.976 -0.3977 -2.1907 -0.1527
   21MOL   H19417034   3.122   6.166   6.811  1.0616 -1.4311 -0.3166
   21MOL   H19517035   2.984   6.022   6.689 -2.2309  3.5449  0.1196
   21MOL   H19617036   2.910   5.965   6.808  0.1848 -0.7319 -3.2106
   21MOL   H19717037   3.192   5.904   6.882  0.0773  0.8306 -0.9272
   21MOL   H19817038   3.190   5.919   6.720  0.2586  0.1587  0.1390
   21MOL   H19917039   2.982   5.747   6.875 -0.0705 -1.2409 -0.2706
   21MOL   H20017040   3.132   5.683   6.848  1.0242  0.5357 -0.5120
   21MOL   H20117041   3.124   5.692   6.600 -0.0407  2.2347 -0.6440
   21MOL   H20217042   2.977   5.764   6.604  0.3213 -0.1111 -0.4215
   21MOL   H20317043   2.967   5.509   6.565  3.1061 -1.1409 -0.3931
   21MOL   H20417044   2.888   5.552   6.720  0.3011 -0.4315 -0.5364
   21MOL   H20517045   3.164   5.433   6.711  0.5952  1.6781  0.9198
   21MOL   H20617046   3.072   5.478   6.853 -0.3189 -1.2422  0.1684
   21MOL   H20717047   2.895   5.340   6.810 -0.4255  0.2310  1.6380
   21MOL   H20817048   2.963   5.264   6.676  0.4221 -0.3371 -0.0500
   21MOL   H20917049   3.013   5.205   6.961  2.4905 -3.1266  1.8490
   21MOL   H21017050   3.161   5.226   6.876 -0.0992  0.6876  0.7977
   21MOL   H21117051   3.039   5.105   6.821 -0.6470 -0.9297  1.9446
   21MOL   C21217052   2.567   6.502   6.778  0.1125 -0.7169 -0.8243
   21MOL   C21317053   2.631   6.619   6.868  0.1379  0.1373  0.2712
   21MOL   C21417054   2.683   6.571   7.004  0.3197 -0.8100  0.3390
   21MOL   C21517055   2.588   6.492   7.093  0.9576 -0.4446  0.0250
   21MOL   C21617056   2.662   6.459   7.230  0.4024 -0.0743  0.1375
   21MOL   C21717057   2.573   6.389   7.329 -0.5018 -0.1840 -0.4957
   21MOL   C21817058   2.487   6.480   7.408 -0.6478 -0.5737  0.1659
   21MOL   C21917059   2.431   6.398   7.528 -0.2404 -0.2824 -0.2298
   21MOL   C22017060   2.335   6.479   7.607  0.2496  0.0812  0.1388
   21MOL   C22117061   2.220   6.403   7.678  0.4410  0.1519 -0.5472
   21MOL   C22217062   2.139   6.489   0.073  0.0027  0.2407  0.7299
   21MOL   C22317063   2.012   6.421   0.114  0.2427 -0.5941  0.3164
   21MOL   C22417064   1.934   6.511   0.211  0.8741  0.1034  0.2639
   21MOL   C22517065   1.791   6.468   0.241 -0.7681 -0.2266 -0.2569
   21MOL   H22617066   2.477   6.471   6.830  0.6350 -0.7350  0.0693
   21MOL   H22717067   2.549   6.550   6.682 -1.5110 -0.2231 -0.2917
   21MOL   H22817068   2.543   6.678   6.895 -0.3753  0.6174 -2.3416
   21MOL   H22917069   2.780   6.522   7.003  1.6564  1.7195 -0.9029
   21MOL   H23017070   2.704   6.663   7.059  1.5526 -2.2572  2.3428
   21MOL   H23117071   2.562   6.390   7.064  1.8092 -0.2697 -1.3884
   21MOL   H23217072   2.502   6.556   7.115  1.0243  0.2731 -1.6733
   21MOL   H23317073   2.700   6.556   7.262  0.7793 -0.1889  0.0436
   21MOL   H23417074   2.743   6.391   7.204  1.5011  1.5014 -0.5901
   21MOL   H23517075   2.635   6.339   7.403 -1.3825 -2.2767 -1.1482
   21MOL   H23617076   2.528   6.300   7.284  0.8285 -1.2348  0.2366
   21MOL   H23717077   2.555   6.554   7.449  0.5635 -1.8035  0.4231
   21MOL   H23817078   2.411   6.527   7.344  0.3441  0.1970 -0.4552
   21MOL   H23917079   2.363   6.320   7.493 -0.1119 -1.0254  1.1194
   21MOL   H24017080   2.509   6.342   7.580 -0.5047  1.8790  2.5850
   21MOL   H24117081   2.292   6.553   7.540  2.9137 -0.4904 -2.3005
   21MOL   H24217082   2.388   6.532   7.686  1.2523 -0.1080 -0.3986
   21MOL   H24317083   2.155   6.347   7.612  0.2429 -0.2038 -0.0498
   21MOL   H24417084   2.262   6.329   0.050  3.3020  2.9682  0.9610
   21MOL   H24517085   2.110   6.588   0.037  1.1476 -0.1269 -1.2272
   21MOL   H24617086   2.189   6.512   0.168  1.2476  2.5094 -0.4389
   21MOL   H24717087   2.015   6.321   0.156 -0.8935 -1.5981 -1.9407
   21MOL   H24817088   1.945   6.404   0.031  0.4153 -2.0874  0.4725
   21MOL   H24917089   1.927   6.603   0.152  0.2081  0.3070  0.6555
   21MOL   H25017090   1.989   6.540   0.300 -0.0964  0.1176  0.8623
   21MOL   H25117091   1.788   6.370   0.287  0.8823  0.1304  0.6301
   21MOL   H25217092   1.748   6.538   0.313 -1.0625 -2.6594  1.9750
   21MOL   H25317093   1.727   6.456   0.153 -1.2370  0.2077  0.0205
   21MOL   C25417094   2.728   6.722   6.797 -0.3208  0.0140 -0.2128
   21MOL   C25517095   2.677   6.872   6.793 -0.6662  0.3317  0.4952
   21MOL   C25617096   2.693   6.952   6.921  0.5764 -0.6316  0.1426
   21MOL   C25717097   2.834   6.994   6.957 -0.4628  0.1873  0.2195
   21MOL   C25817098   2.844   7.011   7.108 -0.8939 -0.2347  0.2299
   21MOL   C25917099   2.985   7.056   7.145  0.1861 -0.2096 -0.4083
   21MOL   C26017100   3.088   6.954   7.096  0.2106 -0.2593  0.3829
   21MOL   C26117101   3.230   6.998   7.138 -0.1113  0.3624  0.4775
   21MOL   C26217102   3.335   6.892   7.085  0.5884 -0.3677  0.3154
   21MOL   C26317103   3.479   6.897   7.136 -0.7257 -0.6102 -0.2916
   21MOL   C26417104   3.580   6.820   7.052  0.1536 -1.1150 -0.2502
   21MOL   C26517105   3.712   6.826   7.117  0.0713  0.3040  0.0877
   21MOL   C26617106   3.825   6.805   7.014  1.3041 -0.7879 -1.4894
   21MOL   C26717107   3.960   6.766   7.085  0.3376 -0.1298  0.1196
   21MOL   H26817108   2.759   6.686   6.699 -0.8184  1.6901 -1.0104
   21MOL   H26917109   2.819   6.717   6.856 -2.1946 -0.6983  2.7203
   21MOL   H27017110   2.575   6.866   6.753  0.5259  0.7331 -2.7062
   21MOL   H27117111   2.641   6.897   7.000 -0.6688  0.5107  0.1310
   21MOL   H27217112   2.639   7.045   6.903  0.6309 -1.0229 -2.3030
   21MOL   H27317113   2.866   7.082   6.902  0.2902  1.2327  2.2737
   21MOL   H27417114   2.904   6.923   6.911  0.2411  1.9549 -1.5176
   21MOL   H27517115   2.811   6.915   7.149 -2.8703  0.1919 -0.3345
   21MOL   H27617116   2.770   7.082   7.143 -0.6900  0.8769 -1.5281
   21MOL   H27717117   2.990   7.083   7.250  1.7061 -1.9876  0.0102
   21MOL   H27817118   3.014   7.148   7.095 -0.4112 -0.2360 -0.8161
   21MOL   H27917119   3.061   6.852   7.125 -0.6907 -0.0650  0.2401
   21MOL   H28017120   3.091   6.945   6.988  1.1270  0.3540  0.3508
   21MOL   H28117121   3.233   7.006   7.246  0.3023  1.7941  0.3663
   21MOL   H28217122   3.242   7.102   7.106 -0.5223  0.6420  1.2242
   21MOL   H28317123   3.296   6.793   7.105  0.3450  0.2377  3.0402
   21MOL   H28417124   3.335   6.911   6.977  0.1019  1.1363  0.5658
   21MOL   H28517125   3.473   6.849   7.234 -0.3621 -0.6499 -0.2895
   21MOL   H28617126   3.523   6.996   7.135  0.2763 -1.0481 -1.8363
   21MOL   H28717127   3.579   6.860   6.950  0.4560 -0.0256  0.1763
   21MOL   H28817128   3.560   6.714   7.033 -0.4222 -1.1291  0.4460
   21MOL   H28917129   3.742   6.922   7.160  1.2933  0.1657 -0.4357
   21MOL   H29017130   3.729   6.756   7.198 -0.5806 -1.0187 -0.9069
   21MOL   H29117131   3.799   6.720   6.951  0.7916 -2.0981  0.4376
   21MOL   H29217132   3.832   6.897   6.957  0.6076  0.9240  1.1444
   21MOL   H29317133   3.944   6.697   7.168  1.3008 -0.7328 -0.1802
   21MOL   H29417134   4.011   6.855   7.121 -2.1267  2.5160 -2.6640
   21MOL   H29517135   4.033   6.722   7.017  1.2298 -1.4464  1.8797
   21MOL   C29617136   2.751   6.951   6.682 -0.6045 -0.4521  0.0189
   21MOL   C29717137   2.705   6.950   6.534 -0.3047  0.2905  0.5958
   21MOL   C29817138   2.784   7.038   6.442  0.2282  0.6020  0.5209
   21MOL   C29917139   2.793   7.191   6.465 -0.7159  1.0098  0.1101
   21MOL   C30017140   2.820   7.276   6.345 -0.0133  0.0301  0.0440
   21MOL   C30117141   2.827   7.424   6.378  0.1431 -0.3856  0.0935
   21MOL   C30217142   2.897   7.510   6.275  0.1460 -0.8231 -0.0855
   21MOL   C30317143   2.851   7.491   6.134 -0.3450 -0.3905 -0.5896
   21MOL   C30417144   2.720   7.558   6.106 -0.3929 -0.1189 -0.4052
   21MOL   C30517145   2.665   7.534   5.965  0.2711  0.0573 -0.3712
   21MOL   C30617146   2.533   7.605   5.942  0.7671 -0.7217  0.3555
   21MOL   C30717147   2.474   7.583   5.797 -0.8354 -1.1891  0.0308
   21MOL   C30817148   2.332   7.643   5.775  0.0955 -0.0209 -0.0664
   21MOL   C30917149   2.325   0.098   5.798 -0.1317 -0.1908 -0.2635
   21MOL   H31017150   2.859   6.937   6.679 -0.2690  1.5589  1.9594
   21MOL   H31117151   2.742   7.058   6.700 -1.4084 -0.1642 -1.9627
   21MOL   H31217152   2.604   6.991   6.532 -0.5656 -0.2702  1.6361
   21MOL   H31317153   2.744   7.026   6.341 -0.5263  1.1770  0.7447
   21MOL   H31417154   2.885   6.997   6.435 -0.2321 -0.3816 -0.5426
   21MOL   H31517155   2.877   7.208   6.532 -0.4001  0.7874 -0.2320
   21MOL   H31617156   2.703   7.218   6.522 -1.0763 -1.4359  0.7484
   21MOL   H31717157   2.918   7.249   6.306 -0.5204 -1.8997  0.0535
   21MOL   H31817158   2.748   7.255   6.265  0.1982 -1.2720  0.1852
   21MOL   H31917159   2.866   7.435   6.479  0.2461  0.7282 -0.0634
   21MOL   H32017160   2.731   7.473   6.390  0.6328  0.0931  2.3025
   21MOL   H32117161   2.887   7.618   6.292 -0.1580 -1.0270  1.1259
   21MOL   H32217162   3.003   7.488   6.280  0.1373 -1.1756 -1.3804
   21MOL   H32317163   2.842   7.389   6.096  0.0971 -1.4035  1.9305
   21MOL   H32417164   2.928   7.529   6.068  0.9086 -2.2594 -0.2544
   21MOL   H32517165   2.649   7.533   6.185 -0.4602  3.0768  0.5925
   21MOL   H32617166   2.735   7.665   6.113  1.2437 -0.3483 -0.1177
   21MOL   H32717167   2.662   7.427   5.941 -1.2062  0.0324 -0.1014
   21MOL   H32817168   2.735   7.583   5.897 -1.2266  0.3635 -1.7309
   21MOL   H32917169   2.537   0.015   5.970  1.7824 -0.9923  1.2691
   21MOL   H33017170   2.463   7.563   6.014  0.1476  1.8080  1.2837
   21MOL   H33117171   2.481   7.475   5.785  0.3506 -1.0007 -1.1636
   21MOL   H33217172   2.546   7.643   5.741 -2.8570  2.2115  0.9294
   21MOL   H33317173   2.251   7.594   5.829 -1.0816  0.4193 -1.4067
   21MOL   H33417174   2.302   7.627   5.672 -1.0011 -0.1558  0.2761
   21MOL   H33517175   2.224   0.134   5.776 -0.0136  0.1237 -0.2880
   21MOL   H33617176   2.329   0.133   5.901  1.2110 -1.3194  0.0846
   21MOL   H33717177   2.399   0.156   5.744  2.2915 -1.2919  1.7802
   21MOL   C33817178   2.698   6.812   6.479 -0.2396  0.3445  0.1523
   21MOL   C33917179   2.635   6.791   6.341  0.2429 -0.1722  0.1922
   21MOL   C34017180   2.742   6.745   6.231  0.1121  0.5860 -0.1906
   21MOL   C34117181   2.799   6.604   6.261 -0.0463  0.1187  0.3214
   21MOL   C34217182   2.900   6.569   6.147  0.2767  0.3452 -0.4499
   21MOL   C34317183   2.928   6.419   6.150 -0.0004 -0.8527 -0.2447
   21MOL   C34417184   3.031   6.383   6.043 -0.0820  0.1492 -0.6205
   21MOL   C34517185   3.078   6.240   6.043 -0.0851  0.0809  0.1597
   21MOL   C34617186   3.183   6.197   5.940  0.6330 -0.2573  0.1823
   21MOL   C34717187   3.223   6.048   5.941 -0.5513 -0.6106  0.7145
   21MOL   C34817188   3.333   6.015   5.829  0.3929  0.2755 -0.4455
   21MOL   C34917189   3.345   5.868   5.809  0.5161 -0.4180 -0.4562
   21MOL   C35017190   3.462   5.832   5.706  0.0372 -0.3716 -1.2714
   21MOL   C35117191   3.429   5.865   5.562 -0.4928  0.2839  0.0331
   21MOL   H35217192   2.804   6.789   6.478  0.3524  2.7566  2.0598
   21MOL   H35317193   2.644   6.742   6.542 -2.0694  2.2872  0.8164
   21MOL   H35417194   2.597   6.883   6.296  2.4882  1.6431  1.8768
   21MOL   H35517195   2.690   6.745   6.136  1.4803  0.5919 -0.9399
   21MOL   H35617196   2.811   6.828   6.221  0.0356  0.8505  1.3291
   21MOL   H35717197   2.714   6.537   6.269  0.3912 -0.2831  1.6170
   21MOL   H35817198   2.844   6.594   6.359  0.2261 -0.1734  0.1676
   21MOL   H35917199   2.994   6.617   6.170 -1.3780  2.0972  2.9561
   21MOL   H36017200   2.867   6.596   6.046  0.4195 -0.3151 -0.6797
   21MOL   H36117201   2.965   6.393   6.249 -1.3495 -1.9621 -0.0090
   21MOL   H36217202   2.836   6.362   6.145  0.6995 -2.0630  0.5757
   21MOL   H36317203   2.989   6.400   5.944 -2.1461 -1.9871 -0.1543
   21MOL   H36417204   3.117   6.449   6.055 -0.8444  0.5036  3.5755
   21MOL   H36517205   3.114   6.214   6.142  0.9334  1.9489  0.2944
   21MOL   H36617206   2.987   6.182   6.026 -0.3278  0.6197 -0.4144
   21MOL   H36717207   3.153   6.223   5.839  0.8933  0.9136  0.3905
   21MOL   H36817208   3.276   6.251   5.959  0.9578 -0.4560 -0.8384
   21MOL   H36917209   3.260   6.019   6.039  0.1580  0.1008  0.6578
   21MOL   H37017210   3.137   5.980   5.933 -0.6011 -0.6610  1.6037
   21MOL   H37117211   3.430   6.059   5.850  0.1583 -0.1029  1.4907
   21MOL   H37217212   3.305   6.051   5.730 -1.0112 -0.7543 -0.4542
   21MOL   H37317213   3.253   5.819   5.778  0.7958  0.5338 -2.9171
   21MOL   H37417214   3.372   5.829   5.907 -1.4205  0.9947  0.6672
   21MOL   H37517215   3.552   5.888   5.727  0.4208 -0.8682 -1.5934
   21MOL   H37617216   3.483   5.726   5.722  0.9245 -0.0426 -0.2246
   21MOL   H37717217   3.349   5.812   5.510 -0.8293  0.6838  0.1403
   21MOL   H37817218   3.425   5.972   5.543  0.0076  0.1165 -1.0574
   21MOL   H37917219   3.514   5.823   5.507 -0.7557 -1.7206  1.1081
   21MOL   C38017220   2.503   6.711   6.352  0.4454 -0.6312 -0.7241
   21MOL   C38117221   2.382   6.776   6.423  0.7481 -0.5147  0.3547
   21MOL   C38217222   2.260   6.774   6.329  0.0277 -0.5343 -0.2728
   21MOL   C38317223   2.267   6.851   6.194  0.0573 -1.1111  0.3771
   21MOL   C38417224   2.131   6.847   6.122  0.4673  0.5184  0.0892
   21MOL   C38517225   2.120   6.940   6.000  0.5160 -0.1641  0.6643
   21MOL   C38617226   1.999   6.921   5.907  0.7627 -0.0363 -0.2760
   21MOL   C38717227   1.862   6.936   5.976 -0.1890  0.4023  0.5558
   21MOL   C38817228   1.738   6.946   5.880  0.0731  0.2276  0.2236
   21MOL   C38917229   1.607   6.963   5.965 -0.0159 -0.3925 -0.4828
   21MOL   C39017230   1.481   6.981   5.876 -0.0890  0.1360 -0.6061
   21MOL   C39117231   1.346   6.978   5.951  1.2420  0.5563 -0.2596
   21MOL   C39217232   1.231   7.007   5.852 -0.4311  0.3445 -0.9478
   21MOL   C39317233   1.105   7.033   5.939  0.6084 -0.3403 -0.2632
   21MOL   H39417234   2.532   6.618   6.401  2.6083  1.4311  2.0859
   21MOL   H39517235   2.482   6.668   6.254  0.2493 -1.0393 -0.5056
   21MOL   H39617236   2.402   6.881   6.444  0.5936 -0.3982 -0.0667
   21MOL   H39717237   2.181   6.819   6.388 -1.3776 -2.0488 -0.9551
   21MOL   H39817238   2.233   6.670   6.309  0.4923 -0.5721 -0.7244
   21MOL   H39917239   2.353   6.819   6.136  0.8036  0.0015  0.8660
   21MOL   H40017240   2.295   6.952   6.224 -2.1596 -0.8264  1.6085
   21MOL   H40117241   2.060   6.872   6.201  0.6907 -0.3061  0.5599
   21MOL   H40217242   2.093   6.749   6.093  0.4727  0.9071 -1.2462
   21MOL   H40317243   2.209   6.933   5.938  1.2488  0.6427  1.6316
   21MOL   H40417244   2.109   7.040   6.041 -0.7292 -0.9955  2.3845
   21MOL   H40517245   2.010   6.985   5.819  2.6000  0.0224 -0.0341
   21MOL   H40617246   2.001   6.821   5.864  0.7954 -0.9469  1.8079
   21MOL   H40717247   1.854   6.854   6.046 -1.3561  1.9022  2.2105
   21MOL   H40817248   1.868   7.028   6.035  0.7614  1.2540 -0.8185
   21MOL   H40917249   1.744   7.031   5.811  2.1031 -0.2635 -0.2097
   21MOL   H41017250   1.739   6.861   5.812 -1.0463 -1.5432  2.3513
   21MOL   H41117251   1.612   7.050   6.031 -2.4696  0.0989 -0.8914
   21MOL   H41217252   1.598   6.876   6.031  2.2060  0.1163  0.5263
   21MOL   H41317253   1.489   7.076   5.824  0.6142  0.0593 -0.6373
   21MOL   H41417254   1.480   6.910   5.794 -0.8768 -1.6982  0.9557
   21MOL   H41517255   1.348   7.060   6.023 -0.1422 -0.2129  0.6757
   21MOL   H41617256   1.331   6.884   6.004 -0.3671  1.1710  0.4366
   21MOL   H41717257   1.242   7.096   5.791 -0.1770  0.1677 -1.1635
   21MOL   H41817258   1.214   6.922   5.786 -0.9241 -0.6878  0.4774
   21MOL   H41917259   1.014   7.032   5.879 -0.3625  0.3085  1.1913
   21MOL   H42017260   1.102   7.128   5.993 -1.3878 -0.4953 -0.0834
   21MOL   H42117261   1.092   6.964   6.022  2.6763  0.4225  0.7451
   21MOL   C42217262   2.347   6.722   6.559 -0.7702  0.0470 -0.0418
   21MOL   C42317263   2.228   6.782   6.641  0.1803  0.1894  0.2028
   21MOL   C42417264   2.190   6.691   6.758 -0.5536 -0.3098  0.2851
   21MOL   C42517265   2.133   6.554   6.714  0.3032  0.3494 -0.3088
   21MOL   C42617266   2.118   6.454   6.827  0.1961 -0.2772  0.2177
   21MOL   C42717267   2.045   6.511   6.947 -0.0860 -0.1686  0.1519
   21MOL   C42817268   1.984   6.396   7.031  0.0837  0.3840  0.1407
   21MOL   C42917269   1.904   6.446   7.144 -0.1644  0.0147  0.4760
   21MOL   C43017270   1.846   6.340   7.236  0.8362  0.5385 -0.0314
   21MOL   C43117271   1.959   6.261   7.314  0.5365 -0.2203  0.3934
   21MOL   C43217272   1.900   6.143   7.391 -0.4458  0.3406  0.3918
   21MOL   C43317273   2.013   6.040   7.430 -0.4289 -0.3137 -0.2161
   21MOL   C43417274   1.961   5.937   7.530 -0.3622 -0.2383 -0.7878
   21MOL   C43517275   2.063   5.828   7.566  0.3209 -0.0975 -0.0191
   21MOL   H43617276   2.430   6.742   6.628  0.3756  0.9880 -1.6470
   21MOL   H43717277   2.345   6.613   6.547  0.8175 -0.0172  0.0841
   21MOL   H43817278   2.139   6.778   6.578  0.2779 -1.7154  0.1610
   21MOL   H43917279   2.117   6.735   6.826  1.4962  0.7003  1.8687
   21MOL   H44017280   2.272   6.668   6.825 -0.1310 -2.1106 -0.8052
   21MOL   H44117281   2.037   6.574   6.667  0.1976 -0.3932 -0.4117
   21MOL   H44217282   2.194   6.506   6.637  0.4679 -1.4171  0.9068
   21MOL   H44317283   2.218   6.429   6.862  0.9596  3.6893  1.1187
   21MOL   H44417284   2.060   6.368   6.795  0.9497  0.1779 -2.4945
   21MOL   H44517285   1.965   6.581   6.923 -0.6102 -0.9079 -0.2746
   21MOL   H44617286   2.108   6.577   7.007  0.5905 -2.0712  1.6022
   21MOL   H44717287   1.926   6.324   6.974  0.9149  0.3820 -0.7148
   21MOL   H44817288   2.068   6.336   7.068 -0.6302 -0.3220  0.6403
   21MOL   H44917289   1.961   6.512   7.210  0.4370  0.5471 -0.5566
   21MOL   H45017290   1.817   6.501   7.109  0.6254  1.0583  0.1175
   21MOL   H45117291   1.775   6.388   7.303 -1.3183  0.2691 -2.0912
   21MOL   H45217292   1.785   6.276   7.173  0.1493  0.9290  0.2361
   21MOL   H45317293   2.034   6.221   7.246  1.3120  3.3279 -0.9441
   21MOL   H45417294   2.018   6.333   7.371 -1.0541  1.8297 -0.4736
   21MOL   H45517295   1.842   6.187   7.473  0.2071 -0.6361  1.4012
   21MOL   H45617296   1.829   6.089   7.329 -2.3125  1.7379  1.2266
   21MOL   H45717297   2.085   6.108   7.475  1.6667 -2.0024 -0.9744
   21MOL   H45817298   2.050   5.993   7.339  0.0408  0.7965 -0.6086
   21MOL   H45917299   1.922   5.988   7.618  0.0717 -1.2324 -0.0116
   21MOL   H46017300   1.865   5.904   7.491 -0.1681 -1.0034 -0.6203
   21MOL   H46117301   2.057   5.736   7.508  1.6534  0.8966 -1.7872
   21MOL   H46217302   2.049   5.796   7.669  0.5629 -0.1582 -0.0054
   21MOL   H46317303   2.162   5.874   7.568 -0.5398  1.9230 -2.4678
   21MOL   C46417304   2.255   6.934   6.672 -0.7962 -0.3133  0.3276
   21MOL   C46517305   2.136   7.000   6.746  0.5343 -0.7752  0.0039
   21MOL   C46617306   2.173   7.022   6.900  1.3173  0.9324  0.3991
   21MOL   C46717307   2.265   7.136   6.921  0.3180 -0.3717 -0.3592
   21MOL   C46817308   2.346   7.128   7.051  0.3790 -0.1546  0.3338
   21MOL   C46917309   2.435   7.253   7.071  0.2065 -0.2201  0.7698
   21MOL   C47017310   2.506   7.235   7.201  0.2195 -0.5859 -0.4198
   21MOL   C47117311   2.621   7.331   7.228  0.0166 -0.0598 -0.0228
   21MOL   C47217312   2.699   7.312   7.356 -0.7095  0.5063  0.0390
   21MOL   C47317313   2.817   7.410   7.373 -0.3936  0.1639  0.2027
   21MOL   C47417314   2.897   7.399   7.503  0.0128  0.6574 -0.2994
   21MOL   C47517315   3.024   7.491   7.505 -0.2605  0.4431  0.1419
   21MOL   C47617316   3.102   7.496   7.635  0.0426  0.7201 -0.2897
   21MOL   C47717317   3.245   7.562   7.629  0.1812 -0.1807  0.2734
   21MOL   H47817318   2.277   6.988   6.580  0.8523 -1.6686 -0.0933
   21MOL   H47917319   2.342   6.939   6.737 -0.5570  1.4082 -0.1011
   21MOL   H48017320   2.049   6.935   6.753  0.4931 -0.8231 -0.9625
   21MOL   H48117321   2.086   7.029   6.965 -1.6207 -2.4625 -2.8878
   21MOL   H48217322   2.233   6.940   6.939  1.7358  1.1194  0.1525
   21MOL   H48317323   2.209   7.230   6.924 -0.4525 -0.7406 -2.4549
   21MOL   H48417324   2.339   7.146   6.842  1.1467 -1.1420  0.3057
   21MOL   H48517325   2.400   7.034   7.055 -0.3447 -0.5738  0.3609
   21MOL   H48617326   2.273   7.118   7.132 -1.2039  1.2707 -0.8852
   21MOL   H48717327   2.510   7.259   6.992 -0.4340 -0.6825  0.1284
   21MOL   H48817328   2.380   7.347   7.070 -0.1377 -0.4283 -1.2078
   21MOL   H48917329   2.432   7.243   7.282 -2.1419  0.0503 -2.5844
   21MOL   H49017330   2.534   7.130   7.215  0.0400 -0.2154  3.2506
   21MOL   H49117331   2.681   7.320   7.138 -0.1676 -2.1550  0.0759
   21MOL   H49217332   2.591   7.435   7.221  1.3441  0.2720 -1.0060
   21MOL   H49317333   2.626   7.327   7.436 -2.3540 -0.9548 -1.1237
   21MOL   H49417334   2.725   7.206   7.362 -0.6341  0.5825  1.2108
   21MOL   H49517335   2.869   7.408   7.278 -0.6249  0.2529  0.0733
   21MOL   H49617336   2.775   7.510   7.365  1.5451  1.0296  0.4817
   21MOL   H49717337   2.824   7.426   7.579 -0.0017 -1.6223  0.5163
   21MOL   H49817338   2.924   7.298   7.531  0.0818  0.7342 -0.0914
   21MOL   H49917339   3.002   7.593   7.472 -0.6850  0.8679  1.6812
   21MOL   H50017340   3.100   7.452   7.437 -1.0117 -0.8174  0.0249
   21MOL   H50117341   3.043   7.535   0.022 -1.3546 -0.9111 -0.4960
   21MOL   H50217342   3.128   7.393   7.661 -0.3523  0.7821  0.3326
   21MOL   H50317343   3.251   7.665   7.593  3.3086 -0.0723  0.9513
   21MOL   H50417344   3.297   7.562   0.029 -0.2176  3.5178  0.5671
   21MOL   H50517345   3.293   7.503   7.551 -2.1664 -1.8939  0.0442
   21MOL   C50617346   2.093   7.131   6.676  0.0532  0.0514  0.9175
   21MOL   C50717347   1.997   7.141   6.550 -0.1504  0.0604 -0.2813
   21MOL   C50817348   1.889   7.037   6.555 -0.6624  0.1433  0.6341
   21MOL   C50917349   1.780   7.027   6.441 -0.1871 -0.2340 -0.1407
   21MOL   C51017350   1.710   6.892   6.437  0.8214 -0.2825  0.2248
   21MOL   C51117351   1.577   6.902   6.368 -0.0219 -0.2740  0.5476
   21MOL   C51217352   1.504   6.765   6.378  0.5360 -0.8880 -0.1652
   21MOL   C51317353   1.374   6.756   6.297 -1.1953  0.2615 -0.2184
   21MOL   C51417354   1.301   6.620   6.315 -0.0753 -0.1549  0.7874
   21MOL   C51517355   1.159   6.615   6.250  0.8737  0.2001 -0.0337
   21MOL   C51617356   1.093   6.477   6.265 -0.4240  0.1252  0.5909
   21MOL   C51717357   0.958   6.458   6.190 -0.1807  1.0126 -0.1318
   21MOL   C51817358   0.960   6.436   6.042  0.1731 -0.1872 -0.3190
   21MOL   C51917359   1.008   6.298   6.002 -0.6084 -0.2346  0.5073
   21MOL   H52017360   2.184   7.190   6.667 -0.3001  0.4865  0.2115
   21MOL   H52117361   2.033   7.183   6.750 -0.7654  2.7331 -1.5577
   21MOL   H52217362   2.062   7.128   6.463 -0.7373 -1.9481 -0.4457
   21MOL   H52317363   1.944   6.944   6.569  0.6385  1.0941  2.1117
   21MOL   H52417364   1.838   7.047   6.651 -1.1026  1.1580  0.3059
   21MOL   H52517365   1.712   7.110   6.458  0.8496  0.2798  1.6258
   21MOL   H52617366   1.818   7.043   6.341 -1.6655  0.3308 -0.6303
   21MOL   H52717367   1.698   6.851   6.538  2.1029  1.2587  1.0096
   21MOL   H52817368   1.771   6.813   6.393 -1.2698 -1.1780 -1.1225
   21MOL   H52917369   1.604   6.929   6.266  0.2422 -0.0562  0.6725
   21MOL   H53017370   1.515   6.986   6.399 -0.4215 -0.5788  0.5773
   21MOL   H53117371   1.561   6.680   6.341 -0.7849 -1.7388 -0.2805
   21MOL   H53217372   1.481   6.741   6.482  4.4759  0.0036  1.0324
   21MOL   H53317373   1.397   6.785   6.194  0.2608 -1.4316 -0.3960
   21MOL   H53417374   1.312   6.839   6.331  0.8750  0.7929  2.3363
   21MOL   H53517375   1.295   6.588   6.419 -1.6102  0.7802  1.0049
   21MOL   H53617376   1.362   6.549   6.259 -1.0462  0.0365 -0.5353
   21MOL   H53717377   1.104   6.692   6.304  0.6654 -0.2015  0.3295
   21MOL   H53817378   1.150   6.648   6.147 -0.2451 -0.3943 -0.1238
   21MOL   H53917379   1.163   6.397   6.245  0.2288  0.4515  1.5403
   21MOL   H54017380   1.068   6.472   6.371  0.1663  0.2065  0.7358
   21MOL   H54117381   0.893   6.544   6.207  0.6939  1.4549  1.1003
   21MOL   H54217382   0.911   6.368   6.230  0.1615  0.2989 -1.3086
   21MOL   H54317383   1.018   6.502   5.978  1.9035 -0.6657  0.7266
   21MOL   H54417384   0.860   6.456   6.005 -0.2979 -0.8838  0.5694
   21MOL   H54517385   1.109   6.275   6.038  0.0814  0.4260 -0.9770
   21MOL   H54617386   0.940   6.219   6.034 -1.0123  0.4060  1.2446
   21MOL   H54717387   1.013   6.302   5.893 -0.8468  0.3604  0.5195
   21MOL   C54817388   1.925   7.275   6.537 -0.0026 -0.1403  0.0011
   21MOL   C54917389   2.014   7.395   6.534 -0.8063  0.5460 -0.1734
   21MOL   C55017390   2.107   7.393   6.408  0.2891 -0.3117  0.5784
   21MOL   C55117391   2.255   7.364   6.442  0.6149  0.5872  0.7647
   21MOL   C55217392   2.354   7.364   6.324 -0.3892  0.3653  0.1397
   21MOL   C55317393   2.334   7.249   6.224  0.1833 -0.0917 -0.0524
   21MOL   C55417394   2.425   7.256   6.100  0.0688  0.2265 -0.4004
   21MOL   C55517395   2.423   7.124   6.010  0.1716 -0.7254  0.0421
   21MOL   C55617396   2.517   7.118   5.891  0.2543  0.1791  0.1583
   21MOL   C55717397   2.454   7.166   5.758 -0.8357  0.0907 -0.8147
   21MOL   C55817398   2.557   7.179   5.644  0.3723 -0.1287 -0.3935
   21MOL   C55917399   2.566   7.053   5.559  0.0612 -0.0032 -0.3008
   21MOL   C56017400   2.683   7.066   5.469  0.0256  0.1044  0.0843
   21MOL   C56117401   2.682   7.178   5.359 -0.5344 -0.1578 -0.0150
   21MOL   H56217402   1.861   7.277   6.448  1.3648  0.0617 -0.9864
   21MOL   H56317403   1.860   7.266   6.624  0.5175  0.2688  0.4303
   21MOL   H56417404   2.074   7.397   6.625 -0.0319  1.6445 -0.7031
   21MOL   H56517405   2.079   7.322   6.330  0.6916 -0.0157  0.1590
   21MOL   H56617406   2.115   7.486   6.351 -0.2703 -1.7911 -1.9886
   21MOL   H56717407   2.250   7.265   6.487  0.6671  0.9160  1.4967
   21MOL   H56817408   2.285   7.433   6.521  0.4144 -0.5238  1.8212
   21MOL   H56917409   2.362   7.452   6.261 -0.1175 -0.8459 -1.5362
   21MOL   H57017410   2.456   7.360   6.361  0.0898 -1.3536 -1.3225
   21MOL   H57117411   2.231   7.221   6.199  0.5585 -2.8754  1.3806
   21MOL   H57217412   2.357   7.161   6.283 -1.3708 -0.5857 -0.1524
   21MOL   H57317413   2.369   7.332   6.045 -2.8516 -0.1374  1.9305
   21MOL   H57417414   2.528   7.279   6.125 -1.1383  1.3112  4.0813
   21MOL   H57517415   2.319   7.123   5.980 -0.0866  2.4968  0.6430
   21MOL   H57617416   2.441   7.038   6.075 -0.9832  0.3923  1.8830
   21MOL   H57717417   2.566   7.022   5.877  0.7586  0.6926 -1.6988
   21MOL   H57817418   2.602   7.185   5.900  1.3370 -1.2334  0.5078
   21MOL   H57917419   2.381   7.088   5.734 -0.0612 -1.2978  1.1724
   21MOL   H58017420   2.389   7.253   5.764 -1.1911 -0.2285  0.1292
   21MOL   H58117421   2.655   7.214   5.675  0.2991 -1.6702  1.7030
   21MOL   H58217422   2.514   7.260   5.585 -2.4248 -1.4440 -0.2219
   21MOL   H58317423   2.571   6.964   5.620  1.3882  1.3242  1.5787
   21MOL   H58417424   2.479   7.043   5.494 -0.4945  0.2215  0.4034
   21MOL   H58517425   2.768   7.088   5.533 -0.1175 -1.5865  0.8932
   21MOL   H58617426   2.692   6.971   5.416 -0.7212 -0.4607  0.9733
   21MOL   H58717427   2.608   7.154   5.282 -0.0342 -1.1140 -0.2059
   21MOL   H58817428   2.657   7.276   5.398 -1.9486  0.2338 -1.8548
   21MOL   H58917429   2.782   7.184   5.318 -0.9216 -0.4899 -1.0268
   21MOL   C59017430   1.931   7.520   6.548  0.3094 -0.1191  0.4239
   21MOL   C59117431   1.882   7.544   6.694  0.1337 -0.1703 -0.2372
   21MOL   C59217432   1.985   7.626   6.786 -0.3885 -0.3833  0.4096
   21MOL   C59317433   1.979   7.619   6.942 -0.8450 -0.0585 -0.0202
   21MOL   C59417434   2.002   7.482   7.005  0.6157 -0.5884  0.5336
   21MOL   C59517435   2.000   7.485   7.160  0.1283  0.4757  0.8890
   21MOL   C59617436   2.059   7.356   7.208 -0.1981 -0.3835 -0.5990
   21MOL   C59717437   2.019   7.336   7.354  0.1676 -0.4613  0.3357
   21MOL   C59817438   2.062   7.209   7.420  0.0581 -0.8694  0.0260
   21MOL   C59917439   1.990   7.172   7.552  0.1072  0.8179 -0.3566
   21MOL   C60017440   2.041   7.040   7.619 -0.0724 -0.2251  0.5322
   21MOL   C60117441   2.183   7.051   7.673  0.2367 -0.8669 -0.4427
   21MOL   C60217442   2.221   6.913   0.032 -0.5812  0.2090 -0.4764
   21MOL   C60317443   2.333   6.911   0.135 -0.2702  0.3354  0.0333
   21MOL   H60417444   1.849   7.512   6.478 -1.3376 -0.5363  2.3506
   21MOL   H60517445   1.985   7.605   6.507  2.2890 -1.8959 -0.7567
   21MOL   H60617446   1.886   7.445   6.741  3.6090 -0.5909 -1.2912
   21MOL   H60717447   2.000   0.035   6.760 -0.0500 -0.9832 -1.9088
   21MOL   H60817448   2.077   7.571   6.764 -1.4079 -2.3316  0.9353
   21MOL   H60917449   1.889   7.671   6.975 -0.7447 -0.6652  1.2153
   21MOL   H61017450   2.059   7.683   6.978  0.4512 -1.1169 -0.9287
   21MOL   H61117451   2.093   7.438   6.966  1.2402  0.2233  1.0486
   21MOL   H61217452   1.922   7.416   6.971  0.9402 -0.1757 -1.0761
   21MOL   H61317453   1.904   7.488   7.210 -0.7464 -3.7673 -0.3393
   21MOL   H61417454   2.063   7.570   7.187  1.1905  0.4545 -1.3786
   21MOL   H61517455   2.012   7.270   7.160 -0.5194 -0.4338 -0.2018
   21MOL   H61617456   2.165   7.344   7.188  0.3328 -1.2089  2.4740
   21MOL   H61717457   2.057   7.419   7.413 -0.8913  0.4230 -0.2079
   21MOL   H61817458   1.912   7.344   7.377  0.1639  4.6908 -0.9432
   21MOL   H61917459   2.043   7.130   7.347 -2.0933  0.5636 -1.0046
   21MOL   H62017460   2.169   7.221   7.439  0.1959 -1.7843 -0.1264
   21MOL   H62117461   1.983   7.258   7.619 -0.3486  1.7982 -1.6381
   21MOL   H62217462   1.884   7.167   7.527 -0.7854  2.4187  2.8428
   21MOL   H62317463   2.035   6.955   7.551 -2.0174  0.8323 -0.6822
   21MOL   H62417464   1.970   7.017   0.004 -1.0739 -2.6115 -0.9666
   21MOL   H62517465   2.194   7.130   0.052  0.7942 -2.5511  1.3165
   21MOL   H62617466   2.251   7.068   7.590  2.4615  0.9907  1.6590
   21MOL   H62717467   2.140   6.867   0.088 -0.2948 -1.0194 -1.0471
   21MOL   H62817468   2.251   6.835   7.658 -0.9668 -1.4251  1.1481
   21MOL   H62917469   2.346   6.810   0.174  0.0490 -0.0682 -1.0843
   21MOL   H63017470   2.305   6.956   0.230  2.4358  1.7345  0.2261
   21MOL   H63117471   2.429   6.952   0.102 -0.5804  0.1096 -1.1652
   21MOL   C63217472   1.742   7.597   6.710 -0.0782  0.2121 -0.1332
   21MOL   C63317473   1.628   7.517   6.638  0.3578  0.0784 -0.0907
   21MOL   C63417474   1.599   7.391   6.713  0.0044  0.6294  0.1100
   21MOL   C63517475   1.481   7.307   6.658 -0.6989  0.4384 -0.1283
   21MOL   C63617476   1.494   7.159   6.698  0.5663 -0.4830 -0.4437
   21MOL   C63717477   1.377   7.068   6.648 -0.5544  0.0336  0.2797
   21MOL   C63817478   1.387   6.918   6.697 -0.1842 -0.3794 -0.2172
   21MOL   C63917479   1.265   6.837   6.659  0.1916  0.5991  0.3432
   21MOL   C64017480   1.272   6.686   6.702 -0.7499 -0.0781 -0.4073
   21MOL   C64117481   1.151   6.604   6.665  0.7327  1.0346  0.3961
   21MOL   C64217482   1.188   6.454   6.691 -0.4642 -0.2510  1.0357
   21MOL   C64317483   1.083   6.352   6.664 -0.3467 -0.2770 -0.2295
   21MOL   C64417484   0.984   6.351   6.784  0.2909  0.6850  0.7279
   21MOL   C64517485   0.882   6.239   6.759 -0.3217 -0.7351 -1.4806
   21MOL   H64617486   1.749   0.003   6.670 -1.5497  0.6547  0.6879
   21MOL   H64717487   1.723   7.613   6.816 -0.0298  0.0682 -0.1043
   21MOL   H64817488   1.653   7.496   6.533 -2.6375 -1.4568 -0.5592
   21MOL   H64917489   1.684   7.324   6.727 -1.7404 -1.5472  0.5946
   21MOL   H65017490   1.568   7.420   6.814  0.8995  1.2462  0.2053
   21MOL   H65117491   1.475   7.309   6.549  0.1819  0.4634 -0.1803
   21MOL   H65217492   1.388   7.347   6.696  0.1248  1.6621  0.6207
   21MOL   H65317493   1.491   7.145   6.806 -2.9455  2.6211 -0.0228
   21MOL   H65417494   1.592   7.119   6.673  0.6882 -0.3245 -0.2141
   21MOL   H65517495   1.279   7.104   6.679  0.6381  2.8187  0.9523
   21MOL   H65617496   1.392   7.082   6.541  0.8951  1.6406  0.6632
   21MOL   H65717497   1.477   6.876   6.652 -1.5237 -1.6894 -1.7324
   21MOL   H65817498   1.398   6.914   6.806 -0.0293 -1.4511 -0.2637
   21MOL   H65917499   1.249   6.849   6.552 -0.3148 -0.6152  0.2694
   21MOL   H66017500   1.184   6.890   6.708  1.0106  1.0044  1.2911
   21MOL   H66117501   1.282   6.668   6.809  0.2905 -3.3795 -0.9941
   21MOL   H66217502   1.363   6.644   6.658 -0.9998 -2.4940  1.2961
   21MOL   H66317503   1.065   6.631   6.725 -0.1278  1.6925 -1.1067
   21MOL   H66417504   1.119   6.614   6.562  2.7333 -0.0729 -0.3655
   21MOL   H66517505   1.267   6.417   6.625 -1.2326 -0.4000  0.1916
   21MOL   H66617506   1.229   6.436   6.790 -1.8094 -2.5886  1.1870
   21MOL   H66717507   1.142   6.261   6.653 -0.2030 -0.2322  0.1738
   21MOL   H66817508   1.028   6.381   6.574 -1.7691  0.1096  0.7475
   21MOL   H66917509   0.928   6.442   6.802  0.7297  0.5164  3.0536
   21MOL   H67017510   1.042   6.312   6.868 -1.6904 -2.5062  0.7061
   21MOL   H67117511   0.819   6.279   6.680 -3.0840 -0.6190  0.7066
   21MOL   H67217512   0.933   6.151   6.719 -0.2232 -1.6082  0.5061
   21MOL   H67317513   0.814   6.199   6.834  3.2793 -0.1825  2.2760
   21MOL   C67417514   1.506   7.613   6.631 -0.6644 -0.1400  0.3416
   21MOL   C67517515   1.497   7.690   6.497  1.1160  0.6055 -0.1354
   21MOL   C67617516   1.358   0.060   6.499  0.5497  0.2569 -0.1658
   21MOL   C67717517   1.364   0.184   6.594  0.2347  0.0884  0.0434
   21MOL   C67817518   1.226   0.254   6.586  0.0353 -0.1633  0.1225
   21MOL   C67917519   1.214   0.379   6.673 -0.6291 -0.5238  0.0875
   21MOL   C68017520   1.080   0.459   6.657  0.2736  0.0143 -0.0583
   21MOL   C68117521   1.068   0.565   6.768  0.1779  0.0098 -0.3866
   21MOL   C68217522   0.947   0.653   6.746 -0.7744 -0.2297  0.0019
   21MOL   C68317523   0.967   0.798   6.802 -0.0469  0.5328  0.2954
   21MOL   C68417524   1.047   0.897   6.706 -0.7511 -0.0990 -0.3578
   21MOL   C68517525   1.031   1.050   6.738  0.1224 -0.0007  0.6902
   21MOL   C68617526   1.057   1.106   6.885  0.2385  0.7734  0.0963
   21MOL   C68717527   1.025   1.259   6.908  0.1386  0.4739 -0.6332
   21MOL   H68817528   1.520   7.687   6.710 -2.2732 -0.2271  0.7420
   21MOL   H68917529   1.417   7.554   6.655 -0.2764 -1.2320 -0.8999
   21MOL   H69017530   1.502   7.612   6.421  0.4289 -1.7986  2.2044
   21MOL   H69117531   1.328   0.104   6.404  0.7584 -1.6940 -1.1612
   21MOL   H69217532   1.284   7.683   6.532 -0.0057  0.1649 -1.5848
   21MOL   H69317533   1.388   0.164   6.698  2.0533 -0.8982 -0.5556
   21MOL   H69417534   1.443   0.255   6.569 -1.1449  2.5043  2.2412
   21MOL   H69517535   1.209   0.289   6.484  1.7243 -0.4602 -0.2818
   21MOL   H69617536   1.143   0.184   6.596  1.8513 -2.5020 -0.5494
   21MOL   H69717537   1.231   0.356   6.778  0.4173  1.3126  0.3506
   21MOL   H69817538   1.303   0.441   6.658 -0.2620 -0.1943  3.2767
   21MOL   H69917539   1.073   0.514   6.563  1.9106  1.3940  0.5929
   21MOL   H70017540   1.004   0.383   6.672 -0.8032  1.2744  0.9658
   21MOL   H70117541   1.071   0.526   6.870 -2.2249  0.6608 -0.0439
   21MOL   H70217542   1.158   0.625   6.760  0.8925 -1.0026 -0.0795
   21MOL   H70317543   0.919   0.658   6.641  0.3558  1.2809 -0.2506
   21MOL   H70417544   0.856   0.606   6.783 -0.8544 -0.5380 -0.5849
   21MOL   H70517545   1.023   0.789   6.896 -0.6353 -0.0464  0.5891
   21MOL   H70617546   0.867   0.837   6.822 -0.3254 -0.3670  0.6770
   21MOL   H70717547   1.012   0.883   6.604 -1.0675 -0.0256 -0.2588
   21MOL   H70817548   1.153   0.871   6.706 -1.2763 -2.3991 -1.2112
   21MOL   H70917549   0.935   1.083   6.698  0.2645  0.8798  1.0709
   21MOL   H71017550   1.095   1.112   6.675  0.3741 -0.3274  0.6230
   21MOL   H71117551   1.008   1.061   6.971  2.7866 -1.1529  0.5837
   21MOL   H71217552   1.160   1.082   6.910 -0.0004  1.9288  2.2883
   21MOL   H71317553   1.072   1.307   6.822 -1.9795  1.5715 -1.2113
   21MOL   H71417554   0.919   1.282   6.897  0.4841  2.1665 -0.6495
   21MOL   H71517555   1.083   1.298   6.992  0.7371 -0.8073 -0.4303
   21MOL   C71617556   1.621   0.086   6.456  0.4744 -0.0378 -0.1987
   21MOL   C71717557   1.608   0.180   6.331 -0.3197 -0.0992  0.5118
   21MOL   C71817558   1.723   0.285   6.330 -0.8702 -0.5168 -0.2508
   21MOL   C71917559   1.858   0.231   6.315 -0.0105  0.2337  0.0209
   21MOL   C72017560   1.973   0.330   6.317 -0.0997  0.6948 -0.2398
   21MOL   C72117561   2.113   0.267   6.302 -0.1691  0.4657  0.3420
   21MOL   C72217562   2.180   0.216   6.434 -0.2552  0.2497 -0.1487
   21MOL   C72317563   2.317   0.149   6.407 -0.2246  0.3132  0.5188
   21MOL   C72417564   2.427   0.226   6.337 -0.1870 -1.0026 -0.1533
   21MOL   C72517565   2.546   0.137   6.308 -0.3341 -0.0147 -0.1685
   21MOL   C72617566   2.627   0.106   6.438 -0.4448  0.1125 -0.1905
   21MOL   C72717567   2.685   0.221   6.519  0.3382  0.5060  0.0462
   21MOL   C72817568   2.741   0.331   6.437 -0.3571 -0.2112 -0.2096
   21MOL   C72917569   2.804   0.446   6.517  0.1881  0.2145  0.8316
   21MOL   H73017570   1.658   0.147   6.538  4.6117  0.0331 -1.9580
   21MOL   H73117571   1.709   0.022   6.443 -1.7750 -2.5340 -4.0056
   21MOL   H73217572   1.519   0.240   6.347  0.3995  0.2632  3.4116
   21MOL   H73317573   1.723   0.329   6.430  1.4789 -0.3838 -0.2750
   21MOL   H73417574   1.715   0.369   6.261 -0.2455 -1.0205 -0.9479
   21MOL   H73517575   1.864   0.171   6.406 -2.5137 -1.5706 -0.9526
   21MOL   H73617576   1.862   0.173   6.222  0.8792  0.8148 -0.3136
   21MOL   H73717577   1.953   0.388   6.227 -0.4826  1.1018  0.1041
   21MOL   H73817578   1.955   0.401   6.397 -0.1252  1.9932 -1.3769
   21MOL   H73917579   2.119   0.191   6.224  0.6311  0.8566  0.0135
   21MOL   H74017580   2.175   0.351   6.271  1.3359  0.5597  3.3590
   21MOL   H74117581   2.196   0.302   6.499  0.3908 -0.1760  0.2589
   21MOL   H74217582   2.118   0.154   6.498 -0.0158 -1.7121 -1.7487
   21MOL   H74317583   2.302   0.052   6.358  0.4845  0.9175 -0.9321
   21MOL   H74417584   2.356   0.116   6.503  1.0827  1.5170  0.4178
   21MOL   H74517585   2.390   0.274   6.246 -1.2505 -1.9821 -0.2498
   21MOL   H74617586   2.455   0.309   6.402  0.4983  0.2558 -2.0101
   21MOL   H74717587   2.514   0.048   6.253  0.3529  0.3797 -1.2322
   21MOL   H74817588   2.619   0.180   6.239  1.0732  0.6544  1.6878
   21MOL   H74917589   2.569   0.038   6.501  0.8357 -0.8863 -0.0742
   21MOL   H75017590   2.713   0.046   6.409 -0.8824 -0.1248 -1.0235
   21MOL   H75117591   2.595   0.257   6.570  1.1495  2.3518  0.2339
   21MOL   H75217592   2.762   0.182   6.586 -1.4909 -0.4757  1.6251
   21MOL   H75317593   2.663   0.362   6.368  0.0622 -1.2984 -1.1830
   21MOL   H75417594   2.821   0.291   6.376  0.0080  0.2181 -0.0196
   21MOL   H75517595   2.875   0.414   6.593  0.9991 -1.5339 -0.6430
   21MOL   H75617596   2.726   0.500   6.570 -0.7198 -0.6591  0.3883
   21MOL   H75717597   2.849   0.525   6.456 -1.4984 -0.1839 -0.9812
   21MOL   C75817598   1.588   0.092   6.198 -0.6581 -0.4409  0.4120
   21MOL   C75917599   1.521   0.172   6.084  0.0848  0.1616  0.0015
   21MOL   C76017600   1.538   0.113   5.938  0.1193 -0.8296 -0.0991
   21MOL   C76117601   1.686   0.099   5.888 -0.0718 -0.2440  0.6138
   21MOL   C76217602   1.769   0.227   5.884  0.0052  0.0879  0.8022
   21MOL   C76317603   1.918   0.197   5.863 -0.6988 -0.3891  0.1476
   21MOL   C76417604   1.990   0.326   5.820  0.8715  0.2463  0.6329
   21MOL   C76517605   2.037   0.409   5.936  0.1480 -0.8270  0.1804
   21MOL   C76617606   2.139   0.524   5.906  0.3908  0.0104 -0.4457
   21MOL   C76717607   2.216   0.561   6.032 -0.0382 -0.2073  0.4171
   21MOL   C76817608   2.318   0.680   6.006 -0.1099 -0.6938 -0.1173
   21MOL   C76917609   2.387   0.708   6.144 -0.2485 -0.2942  0.1809
   21MOL   C77017610   2.523   0.781   6.144 -0.0926  0.5412 -0.1938
   21MOL   C77117611   2.575   0.804   6.287 -0.1565 -0.3934  0.0333
   21MOL   H77217612   1.684   0.047   6.172 -0.7285 -0.9529  1.0426
   21MOL   H77317613   1.528   0.004   6.217 -0.8707 -0.1157  1.2689
   21MOL   H77417614   1.578   0.265   6.087  0.6840 -0.2129  0.2856
   21MOL   H77517615   1.496   0.013   5.931 -1.7065 -0.3257  2.8541
   21MOL   H77617616   1.471   0.167   5.872 -0.1974  0.2105  1.0484
   21MOL   H77717617   1.740   0.020   5.940 -1.8148 -1.9854 -0.1756
   21MOL   H77817618   1.684   0.068   5.784  2.6287 -0.6198  0.6348
   21MOL   H77917619   1.763   0.290   5.973  0.2926 -1.1120  1.6840
   21MOL   H78017620   1.740   0.297   5.806 -1.5254  2.2767  3.2877
   21MOL   H78117621   1.930   0.135   5.773  0.4231 -0.1566  0.1309
   21MOL   H78217622   1.969   0.152   5.948 -0.9806  1.0412  1.0809
   21MOL   H78317623   2.074   0.302   5.755  0.9841  0.9193  0.5211
   21MOL   H78417624   1.919   0.386   5.762  1.2952 -0.3191 -0.4777
   21MOL   H78517625   2.076   0.341   6.012 -0.8770 -0.7300  0.8105
   21MOL   H78617626   1.957   0.461   5.989  0.1720 -2.4399  1.8334
   21MOL   H78717627   2.080   0.600   5.854  0.9519  0.8887  0.1925
   21MOL   H78817628   2.209   0.487   5.832  0.0254 -0.6766 -0.4577
   21MOL   H78917629   2.263   0.468   6.063 -0.0962 -0.0467  0.9935
   21MOL   H79017630   2.140   0.587   6.106 -0.9675  0.8549 -0.8954
   21MOL   H79117631   2.384   0.649   5.925  0.9190  0.6048  0.2018
   21MOL   H79217632   2.274   0.770   5.965 -1.0250 -1.4678 -0.8516
   21MOL   H79317633   2.319   0.778   6.191  1.4209  1.5453 -0.0674
   21MOL   H79417634   2.400   0.620   6.207  0.5405  0.0187  0.4635
   21MOL   H79517635   2.594   0.715   6.095 -1.9722 -0.6539 -1.3944
   21MOL   H79617636   2.510   0.877   6.095 -0.3741  1.5108  1.7440
   21MOL   H79717637   2.657   0.873   6.270 -0.4969 -0.0392 -0.1976
   21MOL   H79817638   2.509   0.870   6.344  0.8070  0.1487  0.5412
   21MOL   H79917639   2.608   0.715   6.340 -1.9348 -0.4673  1.0753
   21MOL   C80017640   1.370   0.196   6.116  0.3290  0.0005  0.5249
   21MOL   C80117641   1.265   0.078   6.105 -0.0717  0.2383 -0.1282
   21MOL   C80217642   1.128   0.111   6.157 -0.1009  0.1809  0.6659
   21MOL   C80317643   1.036   7.683   6.160  0.0524 -0.5011  0.2082
   21MOL   C80417644   0.924   7.686   6.056  0.0749  0.5053  0.2230
   21MOL   C80517645   0.828   7.573   6.070 -0.4247 -0.0509 -0.9600
   21MOL   C80617646   0.686   7.580   6.017  0.1471 -0.3584 -0.1799
   21MOL   C80717647   0.618   0.014   6.064 -0.0594 -0.0985  0.3686
   21MOL   C80817648   0.474   0.006   6.014 -0.1083 -0.3158 -0.7129
   21MOL   C80917649   0.389   0.119   6.073 -0.4005 -0.5399 -0.0123
   21MOL   C81017650   0.256   0.128   5.999 -0.2747 -0.7170 -0.1450
   21MOL   C81117651   0.134   0.187   6.073 -0.6643  0.2620 -0.3523
   21MOL   C81217652   0.014   0.210   5.983  0.1345  0.1633  0.7350
   21MOL   C81317653   0.017   0.347   5.920  0.4650 -0.1855 -0.3132
   21MOL   H81417654   1.341   0.271   6.043  1.8072 -0.1409 -0.2250
   21MOL   H81517655   1.361   0.249   6.211 -1.2660 -0.4454  0.6435
   21MOL   H81617656   1.311   0.001   6.167  0.2592  1.1748  0.8290
   21MOL   H81717657   1.091   0.188   6.091  1.3420 -0.2255 -0.6683
   21MOL   H81817658   1.141   0.158   6.254  2.6672 -1.9486  1.3952
   21MOL   H81917659   1.001   7.658   6.260  0.8939 -1.1716  0.3419
   21MOL   H82017660   1.091   7.593   6.134 -1.8008 -1.6934  0.3776
   21MOL   H82117661   0.869   0.083   6.068 -0.9827 -0.1664  0.6343
   21MOL   H82217662   0.978   7.682   5.961  0.2235  0.9541  0.2909
   21MOL   H82317663   0.810   7.546   6.174  1.2175  1.9524 -0.0997
   21MOL   H82417664   0.875   7.494   6.012 -1.2406  1.1089 -3.2878
   21MOL   H82517665   0.685   7.574   5.908 -1.6616 -1.1651 -0.1204
   21MOL   H82617666   0.636   7.489   6.049 -1.9623  0.1712 -1.8762
   21MOL   H82717667   0.612   0.004   6.172  3.9251 -0.5311  0.6088
   21MOL   H82817668   0.668   0.106   6.033 -0.0143  0.9169  3.2863
   21MOL   H82917669   0.478   0.014   5.906 -0.3992  1.7006 -0.6015
   21MOL   H83017670   0.432   7.608   6.051 -1.7697  1.3430  1.7516
   21MOL   H83117671   0.431   0.215   6.044  0.8488 -0.7739  0.9772
   21MOL   H83217672   0.380   0.104   6.181  1.1193  0.3377  0.2391
   21MOL   H83317673   0.279   0.199   5.919  1.4144  1.7738  2.4481
   21MOL   H83417674   0.237   0.035   5.946  1.4301 -0.8103 -0.6176
   21MOL   H83517675   0.166   0.281   6.119  0.3541 -0.7688  1.0786
   21MOL   H83617676   0.105   0.122   6.156  1.5692  0.3531  0.5330
   21MOL   H83717677   0.011   0.133   5.906 -0.1190  0.4203  0.4891
   21MOL   H83817678   7.615   0.201   6.036 -0.7677  2.3201 -0.4594
   21MOL   H83917679   7.695   0.420   5.998  0.0729 -0.3754 -0.2262
   21MOL   H84017680   0.115   0.373   5.879  0.6146  0.4729  0.4416
   21MOL   H84117681   7.649   0.358   5.832 -1.0706 -0.1230  0.8025
   21MOL   H84217682   1.272   0.045   6.002 -1.8570  1.0363 -0.5229
   22MOL     C117683   2.561   4.096   4.048 -0.0918 -0.0596 -0.3319
   22MOL     C217684   2.481   4.205   3.977 -0.9534  0.4769 -0.2326
   22MOL     C317685   2.384   4.279   4.077 -0.1307 -0.3148 -0.1463
   22MOL     C417686   2.439   4.343   4.205  0.4286  0.2971 -0.2308
   22MOL     C517687   2.330   4.388   4.292  0.2916  0.4583 -0.2067
   22MOL     C617688   2.384   4.458   4.418 -0.0443  0.6043  0.2442
   22MOL     C717689   2.451   4.587   4.393 -0.1219  0.0750  0.4699
   22MOL     C817690   2.510   4.660   4.517  0.5521  0.4461 -0.2052
   22MOL     C917691   2.527   4.805   4.505  0.3880 -0.2700  1.1977
   22MOL    C1017692   2.618   4.840   4.385  0.3167 -0.3441 -0.3486
   22MOL    C1117693   2.629   4.990   4.358 -0.6096  0.0912 -0.5072
   22MOL    C1217694   2.716   5.037   4.247 -0.7012 -0.0625 -0.2780
   22MOL    C1317695   2.678   4.996   4.108  0.3062 -0.3299  0.1497
   22MOL    C1417696   2.742   5.067   3.995  0.1785 -0.4660  0.0361
   22MOL    H1517697   2.493   4.017   4.081 -0.0763  0.0796  0.0385
   22MOL    H1617698   2.627   4.133   4.126 -1.2308 -0.9436  1.0812
   22MOL    H1717699   2.414   4.151   3.911  0.1422 -2.2351  0.7917
   22MOL    H1817700   2.314   4.344   4.024 -2.6767 -4.2287 -1.8782
   22MOL    H1917701   2.317   4.200   4.113 -0.9920  0.0102 -1.0169
   22MOL    H2017702   2.498   4.428   4.173  0.1285  1.0294  1.1338
   22MOL    H2117703   2.494   4.268   4.261 -0.3685  0.2241  0.4679
   22MOL    H2217704   2.276   4.297   4.319 -0.5869  0.4521 -1.8756
   22MOL    H2317705   2.258   4.450   4.238 -0.0863  0.7668  0.6367
   22MOL    H2417706   2.466   4.400   4.461  0.1803  0.0007 -0.9740
   22MOL    H2517707   2.311   4.467   4.499  1.8017 -1.6991  2.2909
   22MOL    H2617708   2.532   4.581   4.321 -2.5111  1.8650 -2.5024
   22MOL    H2717709   2.372   4.645   4.345  0.5982  0.4521 -0.2774
   22MOL    H2817710   2.608   4.623   4.546  0.8143 -1.0472 -2.8118
   22MOL    H2917711   2.453   4.640   4.607  0.7692  0.9279  0.0411
   22MOL    H3017712   2.429   4.849   4.487  0.5830 -0.2486  0.1610
   22MOL    H3117713   2.562   4.845   4.600 -0.4888 -1.8884  2.2162
   22MOL    H3217714   2.718   4.809   4.414  1.8348  1.9738 -2.8914
   22MOL    H3317715   2.593   4.788   4.292  2.6969  1.0818 -1.8296
   22MOL    H3417716   2.527   5.027   4.344 -0.4772  1.1924  1.2799
   22MOL    H3517717   2.651   5.040   4.453 -1.4291 -1.4534  0.5076
   22MOL    H3617718   2.820   5.018   4.271 -0.5843 -0.0231 -0.7418
   22MOL    H3717719   2.717   5.145   4.265  0.7501 -0.3317  1.2798
   22MOL    H3817720   2.706   4.890   4.106  3.6239  0.4953 -0.6405
   22MOL    H3917721   2.569   5.001   4.104  0.3076 -0.2378  0.2266
   22MOL    H4017722   2.849   5.049   3.994  0.2233 -0.2211  0.3398
   22MOL    H4117723   2.714   5.006   3.908 -1.2279  0.0971  0.0719
   22MOL    H4217724   2.716   5.172   3.985  0.3962 -0.3619  0.5689
   22MOL    H4317725   2.632   4.044   3.985  0.7272 -1.7003  1.8586
   22MOL    C4417726   2.567   4.304   3.908 -0.7227 -0.4966 -0.0968
   22MOL    C4517727   2.650   4.262   3.787  0.2691  0.2233  0.0463
   22MOL    C4617728   2.749   4.374   3.747  0.4656 -0.0736 -0.0555
   22MOL    C4717729   2.875   4.395   3.833  0.4659 -0.1746  0.0873
   22MOL    C4817730   2.971   4.501   3.780 -0.6749 -0.3454  0.7960
   22MOL    C4917731   2.928   4.649   3.790  0.5329  0.4305 -0.4058
   22MOL    C5017732   2.910   4.704   3.928  0.0207 -0.3871  0.3674
   22MOL    C5117733   3.046   4.739   3.989 -0.3049  0.3415 -0.0985
   22MOL    C5217734   3.033   4.831   4.111 -0.1712  0.0887  0.1767
   22MOL    C5317735   3.160   4.848   4.191 -0.0966 -0.0147  0.5612
   22MOL    C5417736   3.255   4.961   4.141  0.2476 -0.0554  0.2998
   22MOL    C5517737   3.370   5.008   4.223  0.2152 -0.1147 -0.1650
   22MOL    C5617738   3.436   5.136   4.169  0.3720  0.8853 -0.0394
   22MOL    C5717739   3.472   5.133   4.017  0.4014  0.3956  0.1976
   22MOL    H5817740   2.503   4.379   3.862 -0.6712 -0.1730  0.3597
   22MOL    H5917741   2.628   4.357   3.981 -0.0831  2.1184 -2.4162
   22MOL    H6017742   2.716   4.180   3.816  1.9786  2.0518  1.4527
   22MOL    H6117743   2.791   4.359   3.647 -2.2988 -1.1427 -1.1011
   22MOL    H6217744   2.699   4.470   3.741  0.3449 -0.1443 -0.1845
   22MOL    H6317745   2.936   4.305   3.843  2.3641  0.8572 -1.6333
   22MOL    H6417746   2.825   4.418   3.927  0.2152 -1.6828  0.3284
   22MOL    H6517747   3.011   4.486   3.680  0.6184 -2.0432  1.5503
   22MOL    H6617748   3.059   4.500   3.844 -0.9978  0.9603  1.2727
   22MOL    H6717749   2.997   4.705   3.727  1.5385 -2.4489 -1.9763
   22MOL    H6817750   2.837   4.652   3.729  1.2640  0.6654 -1.4884
   22MOL    H6917751   2.852   4.797   3.929  0.6890  0.0484 -0.6638
   22MOL    H7017752   2.861   4.626   3.986  0.3767 -1.5274 -0.8399
   22MOL    H7117753   3.107   4.789   3.913 -0.4385  1.0213  0.2387
   22MOL    H7217754   3.103   4.648   4.009 -3.1418 -1.5768 -0.4010
   22MOL    H7317755   2.998   4.930   4.082  0.7605  0.5405  0.5783
   22MOL    H7417756   2.953   4.793   4.176  1.3229 -2.0781  0.8022
   22MOL    H7517757   3.209   4.751   4.204 -0.2268 -0.1397  0.1163
   22MOL    H7617758   3.118   4.883   4.286  0.0013  1.8635 -0.0747
   22MOL    H7717759   3.195   5.053   4.135 -2.5365 -1.7213  1.5209
   22MOL    H7817760   3.287   4.941   4.039 -0.5736  0.2406 -0.0271
   22MOL    H7917761   3.329   5.023   4.323 -4.2158 -0.1899 -1.8364
   22MOL    H8017762   3.444   4.930   4.239  1.8621  1.1699 -1.3830
   22MOL    H8117763   3.530   5.164   4.215  0.6885 -2.3313  1.3909
   22MOL    H8217764   3.376   5.224   4.193 -1.1356 -0.4153  1.0967
   22MOL    H8317765   3.537   5.219   4.005 -0.7454  1.1079 -0.9238
   22MOL    H8417766   3.383   5.130   3.955 -0.5626 -1.0537  1.5984
   22MOL    H8517767   3.522   5.040   3.989  0.2147 -0.2546  1.9608
   22MOL    C8617768   2.562   4.222   3.668  0.3252 -0.3244  0.3278
   22MOL    C8717769   2.634   4.143   3.556  0.2052 -0.4773 -0.4779
   22MOL    C8817770   2.584   4.174   3.413  0.6257  0.2336 -0.2516
   22MOL    C8917771   2.632   4.313   3.353  0.7603  0.0056  0.3624
   22MOL    C9017772   2.557   4.346   3.225  0.1048 -0.2271 -0.2356
   22MOL    C9117773   2.599   4.488   3.181 -0.3008 -0.4019  0.5945
   22MOL    C9217774   2.504   4.531   3.068  0.1639 -0.1494  0.2821
   22MOL    C9317775   2.535   4.673   3.008  0.1724  0.0862 -0.6919
   22MOL    C9417776   2.459   4.695   2.876  0.8168  0.0793  0.2302
   22MOL    C9517777   2.471   4.843   2.833 -0.2477  0.0026 -0.0715
   22MOL    C9617778   2.478   4.843   2.679  0.4236  0.2197 -0.2616
   22MOL    C9717779   2.474   4.989   2.631 -0.1036 -0.3322  0.4184
   22MOL    C9817780   2.463   4.991   2.480 -0.3401 -0.7302 -0.1307
   22MOL    C9917781   2.498   5.126   2.420 -0.2494 -0.1874 -0.2383
   22MOL   H10017782   2.471   4.167   3.691 -0.1000 -0.9512 -2.6274
   22MOL   H10117783   2.523   4.315   3.624 -0.2192 -1.1901 -1.0483
   22MOL   H10217784   2.736   4.182   3.559 -0.8208  2.2473  2.9765
   22MOL   H10317785   2.608   4.094   3.344  1.5407 -0.2991  0.6503
   22MOL   H10417786   2.476   4.172   3.409  0.6883 -0.8683 -1.3602
   22MOL   H10517787   2.614   4.388   3.430  1.3349 -0.7777  1.2805
   22MOL   H10617788   2.738   4.312   3.328  0.8480 -1.2547  0.7533
   22MOL   H10717789   2.450   4.339   3.246  0.7392 -1.3183  3.0058
   22MOL   H10817790   2.578   4.280   3.141 -1.6176 -2.3074  0.9015
   22MOL   H10917791   2.703   4.470   3.152 -0.0427  0.6782  0.8373
   22MOL   H11017792   2.585   4.562   3.259 -0.7768  0.0592  0.0717
   22MOL   H11117793   2.498   4.464   2.981  0.0774  0.5777 -0.2799
   22MOL   H11217794   2.402   4.528   3.106  0.8864  0.6252  2.3215
   22MOL   H11317795   2.642   4.682   2.991  0.0780 -2.1949 -2.7942
   22MOL   H11417796   2.521   4.756   3.077  1.6441  0.0391 -0.3051
   22MOL   H11517797   2.482   4.616   2.803  0.3627  0.6544 -0.5422
   22MOL   H11617798   2.352   4.686   2.891  0.5595  0.6493 -1.2004
   22MOL   H11717799   2.560   4.895   2.869 -0.9732  1.3315 -0.1576
   22MOL   H11817800   2.380   4.894   2.865 -0.9705 -0.7568 -0.8969
   22MOL   H11917801   2.573   4.799   2.647  0.2172 -0.4321  0.0087
   22MOL   H12017802   2.397   4.785   2.636  1.5538 -0.6850 -1.2284
   22MOL   H12117803   2.396   5.048   2.680  0.5988 -0.6279  1.9295
   22MOL   H12217804   2.566   5.039   2.661 -0.4226 -0.2407  1.2545
   22MOL   H12317805   2.371   4.946   2.444  1.2203 -2.8368 -1.6548
   22MOL   H12417806   2.531   4.924   2.428  2.6476  0.9801  1.4010
   22MOL   H12517807   2.497   5.136   2.312 -1.9482  3.8240  0.0831
   22MOL   H12617808   2.417   5.192   2.451 -0.6490 -1.6867  2.0126
   22MOL   H12717809   2.598   5.155   2.452 -1.0861 -0.2513  2.5325
   22MOL   C12817810   2.652   3.993   3.588  0.6403  0.5537  0.7468
   22MOL   C12917811   2.770   3.915   3.521  0.5268  0.6148  0.1409
   22MOL   C13017812   2.896   3.954   3.597 -0.0667  1.1083 -0.5505
   22MOL   C13117813   3.029   3.929   3.517  0.3753 -0.2351  0.5608
   22MOL   C13217814   3.157   3.989   3.583  0.5121  0.4512 -0.3863
   22MOL   C13317815   3.173   4.139   3.556 -0.7447  0.3809 -0.2108
   22MOL   C13417816   3.310   4.203   3.602  0.0388 -0.7913  0.1244
   22MOL   C13517817   3.332   4.342   3.550 -0.3468 -0.2153  0.3211
   22MOL   C13617818   3.468   4.394   3.594 -0.3514 -0.6103  0.0979
   22MOL   C13717819   3.474   4.543   3.563  0.0151 -0.3668 -0.0442
   22MOL   C13817820   3.614   4.600   3.582  0.5306 -0.3007 -0.5056
   22MOL   C13917821   3.636   4.750   3.565 -0.6093 -0.5279  0.5228
   22MOL   C14017822   3.780   4.794   3.559 -0.9744 -0.0937  0.1162
   22MOL   C14117823   3.832   4.781   3.702  0.1942  0.0856 -0.4870
   22MOL   H14217824   2.648   3.972   3.695 -0.9192  0.0971  0.6201
   22MOL   H14317825   2.555   3.953   3.558  1.3027  0.4581 -1.3299
   22MOL   H14417826   2.777   3.971   3.428 -0.8731 -1.8322 -1.4697
   22MOL   H14517827   2.886   4.055   3.635 -1.3999  0.7989 -0.0350
   22MOL   H14617828   2.894   3.895   3.690 -0.3520  1.6060 -0.2414
   22MOL   H14717829   3.040   3.822   3.497  1.4235 -0.2083  0.9523
   22MOL   H14817830   3.017   3.961   3.414  3.0582  0.0461  0.2941
   22MOL   H14917831   3.169   3.965   3.688 -3.7225  0.9748  0.3367
   22MOL   H15017832   3.237   3.939   3.528 -0.3246 -0.4058 -0.8374
   22MOL   H15117833   3.180   4.148   3.447  2.7957  0.4864 -0.0281
   22MOL   H15217834   3.091   4.201   3.593 -1.3243 -0.6807  0.3117
   22MOL   H15317835   3.307   4.195   3.710 -0.3755 -0.7401  0.1163
   22MOL   H15417836   3.385   4.136   3.558  2.3817  1.7589  0.0650
   22MOL   H15517837   3.323   4.331   3.442 -0.6740 -0.6828  0.3904
   22MOL   H15617838   3.257   4.412   3.586 -1.6219 -1.0417 -0.6822
   22MOL   H15717839   3.481   4.372   3.700  0.6167 -2.8371 -0.4440
   22MOL   H15817840   3.550   4.342   3.545  0.4635  1.8873 -1.2914
   22MOL   H15917841   3.395   4.591   3.620 -1.5683 -1.2722 -1.4133
   22MOL   H16017842   3.443   4.560   3.459 -0.4967  2.0067  0.4719
   22MOL   H16117843   3.629   4.576   3.687 -1.9092 -1.9689 -0.4870
   22MOL   H16217844   3.690   4.545   3.527  2.0036  1.7325 -0.5575
   22MOL   H16317845   3.590   4.762   3.468 -0.2002  0.0979  0.3997
   22MOL   H16417846   3.575   4.817   3.625 -0.0034 -0.2030  0.7881
   22MOL   H16517847   3.834   4.730   3.490 -0.6322 -1.0882  1.3005
   22MOL   H16617848   3.780   4.895   3.518 -1.8903  0.6831  1.9553
   22MOL   H16717849   3.930   4.828   3.701 -0.0374  0.5776 -1.3451
   22MOL   H16817850   3.781   4.842   3.777  1.0152 -0.3770  0.4506
   22MOL   H16917851   3.849   4.677   3.728 -1.0530 -0.1802 -0.7093
   22MOL   C17017852   2.742   3.763   3.508  0.9971  0.4878 -0.5357
   22MOL   C17117853   2.790   3.696   3.378 -1.0639  0.3094  1.0660
   22MOL   C17217854   2.814   3.545   3.410  0.1549 -0.2678 -0.1949
   22MOL   C17317855   2.880   3.464   3.302  0.2962 -0.2871 -0.4251
   22MOL   C17417856   2.907   3.323   3.356 -0.4353 -0.3387 -0.0947
   22MOL   C17517857   2.978   3.232   3.249  0.0776 -0.0296  0.1849
   22MOL   C17617858   3.119   3.266   3.231  0.5810 -0.6824  0.0556
   22MOL   C17717859   3.201   3.158   3.163  0.6423 -0.0232 -0.6603
   22MOL   C17817860   3.326   3.219   3.103  0.4573  0.0312  0.4574
   22MOL   C17917861   3.420   3.267   3.213  0.3360 -0.2161  0.2109
   22MOL   C18017862   3.549   3.311   3.143  0.3889 -0.2921 -0.2345
   22MOL   C18117863   3.635   3.401   3.235  0.4439  1.0439  0.2039
   22MOL   C18217864   3.765   3.451   3.171 -0.5685 -0.4402 -0.0569
   22MOL   C18317865   3.808   3.594   3.207 -0.3385  0.1248 -0.1326
   22MOL   H18417866   2.635   3.745   3.506  1.2066 -0.7573 -0.6339
   22MOL   H18517867   2.784   3.713   3.595 -0.4872  1.7742  0.9583
   22MOL   H18617868   2.893   3.729   3.360 -1.1863  0.1607  0.0991
   22MOL   H18717869   2.866   3.534   3.505 -0.5615 -2.5232 -0.0302
   22MOL   H18817870   2.720   3.498   3.438  1.0182 -2.5627 -1.0047
   22MOL   H18917871   2.810   3.455   3.218  1.6750  0.9979 -1.7410
   22MOL   H19017872   2.965   3.526   3.274 -0.5488  1.2398  0.2738
   22MOL   H19117873   2.977   3.327   3.439 -0.2908 -1.4004 -0.1590
   22MOL   H19217874   2.811   3.286   3.391 -0.7597 -1.8559 -2.4766
   22MOL   H19317875   2.937   3.227   3.148 -0.3510  0.7288  0.3130
   22MOL   H19417876   2.976   3.129   3.284  0.0596 -0.2120 -0.3457
   22MOL   H19517877   3.165   3.301   3.324 -1.2404  1.3048  0.2477
   22MOL   H19617878   3.130   3.354   3.168 -0.0489 -0.2843  0.4946
   22MOL   H19717879   3.143   3.109   3.085 -2.3464  0.1434  1.3391
   22MOL   H19817880   3.223   3.079   3.236  2.8214  1.2828  0.1375
   22MOL   H19917881   3.299   3.299   3.034  0.2521 -1.1102 -0.8158
   22MOL   H20017882   3.385   3.149   3.044 -1.2243 -1.5506  0.5885
   22MOL   H20117883   3.441   3.187   3.283  0.2632 -0.1545  0.3050
   22MOL   H20217884   3.376   3.348   3.272 -1.4872  1.2048 -2.9359
   22MOL   H20317885   3.525   3.371   3.054  0.0374  0.4923  0.3823
   22MOL   H20417886   3.608   3.225   3.111 -0.0464 -1.4411  1.9514
   22MOL   H20517887   3.574   3.489   3.259  1.2354  1.9266 -0.9498
   22MOL   H20617888   3.669   3.355   3.327  1.1504  0.2055 -0.4687
   22MOL   H20717889   3.855   3.390   3.186 -0.2434  0.7441  3.2345
   22MOL   H20817890   3.752   3.462   3.063 -0.8070  0.0235  0.0180
   22MOL   H20917891   3.872   3.590   3.295 -0.2226 -1.3587 -0.2762
   22MOL   H21017892   3.721   3.652   3.238 -1.8484 -1.6879 -0.9647
   22MOL   H21117893   3.859   3.636   3.121  1.9819 -1.1193  0.5859
   22MOL   C21217894   2.703   3.728   3.255  0.0789 -0.1302  0.1101
   22MOL   C21317895   2.781   3.752   3.126 -0.2433  0.0090 -0.1904
   22MOL   C21417896   2.700   3.718   2.999  0.5889 -0.3490 -0.0068
   22MOL   C21517897   2.779   3.678   2.869 -0.3659  0.2250 -0.5765
   22MOL   C21617898   2.704   3.642   2.747  0.0242  0.0045  0.4591
   22MOL   C21717899   2.619   3.517   2.750 -0.2437  0.5679 -0.2924
   22MOL   C21817900   2.579   3.459   2.615 -0.6218  0.2820  0.2277
   22MOL   C21917901   2.517   3.320   2.618 -0.4122  0.3716 -0.0394
   22MOL   C22017902   2.460   3.283   2.473  0.4917  0.1470  0.2420
   22MOL   C22117903   2.372   3.158   2.480  0.2660  0.3029  0.0090
   22MOL   C22217904   2.459   3.044   2.528 -0.2715  0.0962  0.4152
   22MOL   C22317905   2.367   2.922   2.553  0.3111 -0.1274 -0.4593
   22MOL   C22417906   2.458   2.815   2.616 -0.3094  0.0227 -0.2127
   22MOL   C22517907   2.544   2.742   2.519 -0.1698 -0.0408 -1.1614
   22MOL   H22617908   2.658   3.827   3.263 -1.4927 -0.6840 -1.5409
   22MOL   H22717909   2.614   3.667   3.240 -0.8635  1.1732  0.3735
   22MOL   H22817910   2.856   3.672   3.125 -1.4349 -1.2158  3.0717
   22MOL   H22917911   2.631   3.637   3.021  0.9127 -0.6068  0.0638
   22MOL   H23017912   2.643   3.805   2.967  1.1457 -0.0278 -0.1355
   22MOL   H23117913   2.849   3.599   2.894  0.1972  0.7933 -0.3423
   22MOL   H23217914   2.839   3.763   2.837  0.9255 -0.9494 -1.3205
   22MOL   H23317915   2.779   3.624   2.671 -0.6828 -1.1512  0.0188
   22MOL   H23417916   2.651   3.728   2.706 -3.4071 -2.8708 -1.4293
   22MOL   H23517917   2.536   3.552   2.810  0.5330  0.9101  0.5915
   22MOL   H23617918   2.677   3.445   2.808  0.7922  0.3249 -1.5924
   22MOL   H23717919   2.501   3.529   2.585 -1.9803 -0.5909  1.6726
   22MOL   H23817920   2.654   3.462   2.536 -0.2258  0.0012  0.5933
   22MOL   H23917921   2.603   3.257   2.642 -0.2685 -0.5438 -2.7587
   22MOL   H24017922   2.453   3.308   2.705 -0.4310 -0.2758 -0.1390
   22MOL   H24117923   2.544   3.258   2.409 -0.8256  1.6080 -2.1045
   22MOL   H24217924   2.407   3.356   2.411 -1.0347 -0.4381  0.8339
   22MOL   H24317925   2.292   3.173   2.553 -0.3702 -2.2389 -0.0998
   22MOL   H24417926   2.313   3.146   2.390 -1.6253  0.8815  1.1422
   22MOL   H24517927   2.518   3.066   2.617  1.6170  0.8140 -0.9638
   22MOL   H24617928   2.530   3.018   2.449 -0.2128 -2.4878  1.2767
   22MOL   H24717929   2.329   2.882   2.459 -3.2106  0.0219  0.8385
   22MOL   H24817930   2.283   2.940   2.620  0.9481 -3.4622  1.3695
   22MOL   H24917931   2.379   2.750   2.656 -2.2465  2.0873 -0.6094
   22MOL   H25017932   2.517   2.843   2.703 -0.2957 -0.1748 -0.1573
   22MOL   H25117933   2.491   2.681   2.445 -0.7788 -0.4131 -0.4323
   22MOL   H25217934   2.611   2.798   2.454  1.1492 -0.9543 -0.6062
   22MOL   H25317935   2.624   2.679   2.558 -1.3518 -1.6858 -1.3011
   22MOL   C25417936   2.866   3.883   3.111 -0.1337 -0.1291  0.2235
   22MOL   C25517937   3.008   3.869   3.045  0.2819  0.4425 -0.2849
   22MOL   C25617938   3.053   3.997   2.974 -0.0796 -0.1386  0.3727
   22MOL   C25717939   3.050   4.125   3.065 -0.4538 -0.3690 -0.1040
   22MOL   C25817940   3.164   4.217   3.000 -0.0246  0.3684 -0.5471
   22MOL   C25917941   3.168   4.352   3.064 -0.2301  0.2217 -0.2939
   22MOL   C26017942   3.254   4.466   2.995  0.2062  0.8655  0.4454
   22MOL   C26117943   3.239   4.594   3.069 -0.1846  0.2276  0.0254
   22MOL   C26217944   3.309   4.724   3.027 -0.2231 -0.1573  0.3078
   22MOL   C26317945   3.270   4.846   3.118 -0.0388 -0.2893 -0.4710
   22MOL   C26417946   3.303   4.832   3.271  0.1970 -0.5539  0.0058
   22MOL   C26517947   3.258   4.967   3.343 -0.4068  0.2154 -0.3926
   22MOL   C26617948   3.280   4.974   3.492  0.9247  0.3875 -0.4532
   22MOL   C26717949   3.209   5.086   3.562 -0.1993 -0.3484 -0.3539
   22MOL   H26817950   2.871   3.932   3.208 -0.3906  1.9843 -0.7977
   22MOL   H26917951   2.801   3.950   3.054 -0.2930 -0.8432 -0.4413
   22MOL   H27017952   3.001   3.798   2.962 -1.1385 -0.8053  0.8724
   22MOL   H27117953   3.000   4.007   2.879  0.7444 -2.7419 -0.4094
   22MOL   H27217954   3.155   3.983   2.939 -0.0729 -0.8886  0.6732
   22MOL   H27317955   3.082   4.105   3.167  3.6334 -1.7811 -1.5681
   22MOL   H27417956   2.952   4.175   3.066  0.7463  2.1205 -1.3344
   22MOL   H27517957   3.135   4.231   2.896 -1.8018 -0.2068 -0.1516
   22MOL   H27617958   3.265   4.177   3.005  0.3357  1.3961  0.8352
   22MOL   H27717959   3.207   4.350   3.166  0.5312  1.0154 -0.5618
   22MOL   H27817960   3.069   4.395   3.075 -1.1873 -2.1032  0.6606
   22MOL   H27917961   3.361   4.444   2.996  0.0445 -0.0025  3.0945
   22MOL   H28017962   3.218   4.482   2.893  1.1193  2.7799  0.4134
   22MOL   H28117963   3.264   4.561   3.170 -3.6549 -1.7308  0.3317
   22MOL   H28217964   3.132   4.609   3.085  0.0607  0.6091  1.3841
   22MOL   H28317965   3.416   4.705   3.025  0.3524  2.7441  0.8700
   22MOL   H28417966   3.276   4.750   2.926 -0.2999  0.3612  0.4620
   22MOL   H28517967   3.163   4.862   3.101 -0.3762 -0.3987  1.4252
   22MOL   H28617968   3.311   4.942   3.087  0.5351 -0.1578  0.6660
   22MOL   H28717969   3.410   4.819   3.289  0.4488  1.3863  0.0280
   22MOL   H28817970   3.242   4.757   3.322 -1.7284  1.7511  1.2427
   22MOL   H28917971   3.311   5.051   3.298  1.1615 -1.0504 -0.9791
   22MOL   H29017972   3.153   4.991   3.327 -0.2631  0.6245 -0.7521
   22MOL   H29117973   3.244   4.881   3.536 -1.8763  1.4154 -0.4674
   22MOL   H29217974   3.385   4.977   3.518  0.7862 -2.5517  0.6832
   22MOL   H29317975   3.272   5.119   3.645 -0.8071 -1.5642  0.6115
   22MOL   H29417976   3.116   5.056   3.611 -0.7647  0.1627 -1.1264
   22MOL   H29517977   3.185   5.171   3.500 -1.1066 -0.1025  0.3161
   22MOL   C29617978   3.109   3.821   3.149  0.2035  0.0628  0.4721
   22MOL   C29717979   3.254   3.772   3.113 -0.9196 -0.2037 -0.0445
   22MOL   C29817980   3.347   3.771   3.234 -0.6464  0.8438 -0.4091
   22MOL   C29917981   3.389   3.908   3.286  0.0106 -0.4132  0.2017
   22MOL   C30017982   3.475   3.994   3.188 -0.4934  0.6074  0.1554
   22MOL   C30117983   3.529   4.121   3.251  0.0950 -0.2413 -0.1589
   22MOL   C30217984   3.581   4.227   3.158  0.4298  0.2293  0.0105
   22MOL   C30317985   3.636   4.347   3.241 -0.4007  0.5324 -0.1340
   22MOL   C30417986   3.700   4.452   3.149  0.2793 -0.5801  0.0872
   22MOL   C30517987   3.729   4.584   3.223 -0.1157  0.6835  0.6861
   22MOL   C30617988   3.752   4.700   3.125 -0.2575 -0.3824  0.2246
   22MOL   C30717989   3.770   4.823   3.201 -0.4300 -0.9091  0.6395
   22MOL   C30817990   3.790   4.952   3.120 -0.7421  0.0098  0.1897
   22MOL   C30917991   3.672   4.997   3.035  0.0267 -0.2817 -0.0557
   22MOL   H31017992   3.056   3.744   3.206  0.5056 -0.4541  0.0526
   22MOL   H31117993   3.113   3.899   3.225  0.5715  0.9073 -0.4027
   22MOL   H31217994   3.296   3.842   3.041 -2.2298  0.1242 -0.5086
   22MOL   H31317995   3.438   3.714   3.218 -0.3604  1.0153  0.5878
   22MOL   H31417996   3.299   3.718   3.317  3.2965 -0.7070  0.9965
   22MOL   H31517997   3.436   3.890   3.382 -0.9917  0.1408  0.7952
   22MOL   H31617998   3.300   3.970   3.293  1.0059  1.4297 -2.4576
   22MOL   H31717999   3.569   3.945   3.164 -2.0329 -2.3287 -0.1248
   22MOL   H31818000   3.414   4.003   3.099 -0.9499 -2.6786  0.0549
   22MOL   H31918001   3.602   4.095   3.328  0.9796 -1.8603 -1.5016
   22MOL   H32018002   3.448   4.166   3.307 -0.8303 -1.3478 -0.6006
   22MOL   H32118003   3.665   4.193   3.098  0.5800  2.3012 -0.9819
   22MOL   H32218004   3.499   4.246   3.089  0.8081  1.2035 -0.1832
   22MOL   H32318005   3.713   4.320   3.313 -1.0862 -1.9012 -0.2684
   22MOL   H32418006   3.552   4.389   3.297 -0.5946  1.5560 -1.1602
   22MOL   H32518007   3.788   4.407   3.105 -0.0193 -0.4558 -0.6378
   22MOL   H32618008   3.640   4.482   3.064  1.6009  0.2651 -0.5760
   22MOL   H32718009   3.819   4.565   3.282 -0.3116  1.2419  1.1777
   22MOL   H32818010   3.648   4.597   3.296 -1.2940 -1.5288 -0.2118
   22MOL   H32918011   3.658   4.719   3.073  0.1538  1.4537  0.0968
   22MOL   H33018012   3.834   4.672   3.058  2.0868  0.1390  2.8121
   22MOL   H33118013   3.856   4.804   3.264 -0.2864  1.6449  1.2537
   22MOL   H33218014   3.685   4.835   3.268 -0.2096 -0.8165  0.9023
   22MOL   H33318015   3.878   4.934   3.059 -0.5147 -0.1307  0.5565
   22MOL   H33418016   3.812   5.030   3.193  1.3353  0.3037 -0.6920
   22MOL   H33518017   3.702   5.081   2.973  0.9795 -2.7816 -3.1630
   22MOL   H33618018   3.648   4.915   2.967  1.4656 -0.5053 -0.3174
   22MOL   H33718019   3.583   5.025   3.092 -0.1348  0.6200 -0.7397
   22MOL   C33818020   3.251   3.642   3.035 -0.0053 -0.6284 -0.0443
   22MOL   C33918021   3.281   3.657   2.877  0.0100  0.4269  0.6004
   22MOL   C34018022   3.424   3.630   2.847 -0.3605 -0.0583  0.2516
   22MOL   C34118023   3.518   3.736   2.898 -0.7914 -0.1620  0.1448
   22MOL   C34218024   3.670   3.716   2.875  0.3056  0.1700  0.4155
   22MOL   C34318025   3.757   3.841   2.908  0.9908 -0.7476  0.2079
   22MOL   C34418026   3.909   3.823   2.868  0.4153  0.0488  0.7353
   22MOL   C34518027   3.996   3.936   2.930 -0.0209  0.0556  0.3671
   22MOL   C34618028   3.973   4.078   2.867  0.2077  0.1871  0.6320
   22MOL   C34718029   4.075   4.185   2.900 -0.6480 -0.2864 -0.4697
   22MOL   C34818030   4.042   4.315   2.827  0.0186 -0.6526 -0.2826
   22MOL   C34918031   4.162   4.414   2.808 -0.1089  0.6371  0.1215
   22MOL   C35018032   4.222   4.473   2.932  0.1484 -0.5440 -0.1693
   22MOL   C35118033   4.111   4.559   2.994  0.1828  0.4429 -0.5527
   22MOL   H35218034   3.321   3.568   3.074  0.8056 -1.5280 -2.9942
   22MOL   H35318035   3.156   3.590   3.048  0.7123 -1.6618  1.1516
   22MOL   H35418036   3.247   3.753   2.836 -2.3401 -0.9013 -0.6622
   22MOL   H35518037   3.460   3.545   2.904 -0.7263  0.6630  1.5834
   22MOL   H35618038   3.446   3.607   2.742 -1.7361 -0.6952  0.0887
   22MOL   H35718039   3.502   3.743   3.006  0.3918  0.5197  0.2851
   22MOL   H35818040   3.485   3.822   2.838 -1.0394 -0.8859 -0.7690
   22MOL   H35918041   3.695   3.689   2.773  0.3495  2.8678 -0.3269
   22MOL   H36018042   3.712   3.624   2.916 -1.9776 -0.1493  2.1659
   22MOL   H36118043   3.725   3.929   2.853 -3.3460 -3.7272 -2.3039
   22MOL   H36218044   3.738   3.860   3.014 -0.1743 -0.0057 -0.1360
   22MOL   H36318045   3.935   3.724   2.906  0.0844 -0.6124 -0.7109
   22MOL   H36418046   3.934   3.818   2.762  0.2631  0.3637  0.6854
   22MOL   H36518047   3.975   3.940   3.037 -1.4799  0.4510  0.0803
   22MOL   H36618048   4.097   3.909   2.900 -0.0476  1.2356 -0.8226
   22MOL   H36718049   3.982   4.073   2.759  0.0429  0.9939  0.5734
   22MOL   H36818050   3.870   4.114   2.878 -0.4942 -1.3083 -0.7779
   22MOL   H36918051   4.097   4.187   3.006 -0.5457 -1.7599 -0.4538
   22MOL   H37018052   4.167   4.156   2.850 -1.3741 -0.4230 -1.7618
   22MOL   H37118053   3.959   4.370   2.871  2.2533  2.3188  0.4107
   22MOL   H37218054   4.013   4.284   2.727 -1.4887  1.3468 -0.5076
   22MOL   H37318055   4.123   4.489   2.738 -0.7649 -1.1701 -1.4931
   22MOL   H37418056   4.237   4.370   2.742  2.0652  1.2293  2.1504
   22MOL   H37518057   4.251   4.400   3.008 -1.0492 -2.6433 -1.6792
   22MOL   H37618058   4.312   4.534   2.919  1.2618 -1.8211  1.3451
   22MOL   H37718059   4.022   4.504   3.026 -1.1301  1.8797 -1.6403
   22MOL   H37818060   4.150   4.590   3.091  0.3484 -0.3724 -0.3620
   22MOL   H37918061   4.077   4.652   2.948  0.5050  1.2769  0.8311
   22MOL   C38018062   3.206   3.542   2.803  0.4790 -0.0829 -0.0057
   22MOL   C38118063   3.205   3.555   2.647 -0.5926 -0.0706  0.2324
   22MOL   C38218064   3.180   3.417   2.588  0.3745  0.2777 -0.1703
   22MOL   C38318065   3.303   3.313   2.592  0.4170 -0.1878  0.4205
   22MOL   C38418066   3.264   3.165   2.598  0.1498  0.7578  0.2415
   22MOL   C38518067   3.219   3.112   2.733 -0.1102  0.4635 -0.6332
   22MOL   C38618068   3.162   2.970   2.724 -0.3645  0.0459 -0.3617
   22MOL   C38718069   3.114   2.911   2.861 -0.0632  0.0986  0.3286
   22MOL   C38818070   3.070   2.764   2.851  1.3345  0.0337 -0.9089
   22MOL   C38918071   3.003   2.738   2.984  0.3862  0.2272  0.1920
   22MOL   C39018072   2.955   2.599   3.007  0.2415  0.5464  0.5042
   22MOL   C39118073   2.886   2.533   2.878 -0.0150  0.0989 -0.4683
   22MOL   C39218074   2.813   2.397   2.888  0.7853 -0.0315  0.2334
   22MOL   C39318075   2.896   2.287   2.944 -0.7039 -0.6326  0.7290
   22MOL   H39418076   3.103   3.534   2.838  0.1179  0.3855 -0.9572
   22MOL   H39518077   3.256   3.447   2.826 -1.3218 -0.8477  0.8291
   22MOL   H39618078   3.298   3.593   2.605 -0.2265  0.1210  1.1838
   22MOL   H39718079   3.139   3.435   2.489 -0.3993  1.2280  0.3184
   22MOL   H39818080   3.095   3.368   2.634 -0.0647  1.1352 -0.0582
   22MOL   H39918081   3.379   3.334   2.667  1.0743 -1.1328  0.0386
   22MOL   H40018082   3.355   3.332   2.499 -0.1685  0.5937  0.2496
   22MOL   H40118083   3.347   3.107   2.560 -1.9588 -0.2056 -3.0403
   22MOL   H40218084   3.200   3.149   2.512  0.7908 -2.6562  0.3523
   22MOL   H40318085   3.148   3.174   2.789  0.9002  1.3404 -0.3101
   22MOL   H40418086   3.300   3.115   2.806 -0.2337  0.0407 -0.4774
   22MOL   H40518087   3.076   2.972   2.657 -1.1214  1.8246  0.6369
   22MOL   H40618088   3.239   2.910   2.676  0.3600  1.2364 -0.7074
   22MOL   H40718089   3.206   2.922   2.918  0.2566 -2.0716  0.2578
   22MOL   H40818090   3.038   2.976   2.906  0.9160  0.5928  1.3183
   22MOL   H40918091   3.014   2.747   2.760  0.6664  2.0830 -0.8930
   22MOL   H41018092   3.154   2.694   2.842 -0.4154 -2.1683 -0.5760
   22MOL   H41118093   2.918   2.806   2.996 -0.2833 -0.2804 -1.4570
   22MOL   H41218094   3.065   2.769   3.067  1.2541  0.3398 -0.4938
   22MOL   H41318095   3.049   2.545   3.021  0.7435  0.5736 -2.3845
   22MOL   H41418096   2.893   2.591   3.096  0.4593  1.7591  0.7648
   22MOL   H41518097   2.957   2.521   2.797 -0.3023  0.1767 -0.7314
   22MOL   H41618098   2.803   2.597   2.847 -1.0397  0.3880  2.6825
   22MOL   H41718099   2.719   2.402   2.944  0.4166  0.4495 -0.4193
   22MOL   H41818100   2.779   2.360   2.792 -1.7167 -0.5495  1.2723
   22MOL   H41918101   2.986   2.255   2.893 -1.0722 -0.5124 -0.0137
   22MOL   H42018102   2.836   2.199   2.965  2.3258 -2.7523  0.7334
   22MOL   H42118103   2.928   2.313   3.045  1.0119  0.5392 -0.0977
   22MOL   C42218104   3.095   3.649   2.601 -0.0333 -0.6857  0.3250
   22MOL   C42318105   3.130   3.746   2.488  0.8061  0.3959 -0.1188
   22MOL   C42418106   3.228   3.847   2.530  0.2314 -0.4577 -0.7147
   22MOL   C42518107   3.177   3.954   2.623  0.4658  0.0141 -0.4466
   22MOL   C42618108   3.252   4.085   2.632  0.3063  0.8457 -0.2236
   22MOL   C42718109   3.390   4.076   2.701  1.3953  0.4350  0.0772
   22MOL   C42818110   3.459   4.210   2.688 -0.0405  0.5805  0.2482
   22MOL   C42918111   3.599   4.219   2.762 -0.1648  0.2907 -0.0921
   22MOL   C43018112   3.647   4.359   2.804  0.0027  1.3249  0.1101
   22MOL   C43118113   3.698   4.441   2.682 -0.0868 -0.0923  0.1408
   22MOL   C43218114   3.731   4.579   2.727  0.3285 -0.9857  0.7239
   22MOL   C43318115   3.771   4.675   2.616 -0.0104  0.1156  0.6097
   22MOL   C43418116   3.828   4.806   2.655  0.2900  0.0324  0.4227
   22MOL   C43518117   3.878   4.882   2.536  0.0056 -0.4697  0.4791
   22MOL   H43618118   3.062   3.715   2.680  0.4825  0.6546 -0.5669
   22MOL   H43718119   3.008   3.587   2.580  0.9586 -1.9236 -0.2148
   22MOL   H43818120   3.030   3.788   2.478  0.3112 -1.2485 -2.5672
   22MOL   H43918121   3.271   3.898   2.444  0.8423  4.6887  2.3709
   22MOL   H44018122   3.305   3.801   2.593  1.1104  1.9438  0.0534
   22MOL   H44118123   3.080   3.992   2.592  1.3114  2.1848 -0.5226
   22MOL   H44218124   3.177   3.922   2.728  3.1167  0.9508 -0.1171
   22MOL   H44318125   3.187   4.157   2.680  0.2289  0.1281  0.7584
   22MOL   H44418126   3.273   4.115   2.529  1.1995  3.6837  0.7400
   22MOL   H44518127   3.450   3.994   2.660  1.0584 -0.0156  0.4767
   22MOL   H44618128   3.385   4.050   2.807  0.9180  0.2472  0.0089
   22MOL   H44718129   3.480   4.237   2.584  1.7684  3.0237  1.2165
   22MOL   H44818130   3.400   4.292   2.728 -0.5871  0.2968  0.0331
   22MOL   H44918131   3.597   4.144   2.841 -0.2916  1.1929  0.7695
   22MOL   H45018132   3.675   4.172   2.699  0.9523 -0.0374  1.4881
   22MOL   H45118133   3.569   4.418   2.852  0.0850  1.5751 -0.0598
   22MOL   H45218134   3.727   4.371   2.876  0.5037  2.2282 -0.5891
   22MOL   H45318135   3.784   4.382   2.651 -1.3002 -2.8087  1.7549
   22MOL   H45418136   3.631   4.431   2.597  0.4403 -1.5830 -0.1020
   22MOL   H45518137   3.657   4.629   2.788  0.0453  0.7487 -0.9997
   22MOL   H45618138   3.816   4.581   2.796  2.3731  0.3323 -1.7495
   22MOL   H45718139   3.688   4.694   2.548 -0.3294  0.0677  0.9819
   22MOL   H45818140   3.843   4.628   2.548 -0.5432  1.0131 -0.5979
   22MOL   H45918141   3.747   4.855   2.707  0.0890  1.3098 -1.0623
   22MOL   H46018142   3.912   4.790   2.722  0.9539  2.4915  0.2245
   22MOL   H46118143   3.800   4.912   2.466  0.1334 -2.0808 -0.3770
   22MOL   H46218144   3.957   4.837   2.475 -0.2399 -0.8863  0.4707
   22MOL   H46318145   3.920   4.973   2.580 -1.4974  0.3789  0.2113
   22MOL   C46418146   3.170   3.675   2.356  0.5076  1.0232  0.0825
   22MOL   C46518147   3.181   3.753   2.216  0.4523 -0.6729 -0.9221
   22MOL   C46618148   3.227   3.663   2.101  0.4458 -0.5306  0.8787
   22MOL   C46718149   3.271   3.751   1.975  0.1262 -0.4511 -0.2218
   22MOL   C46818150   3.352   3.666   1.880  0.3091 -0.2195 -0.8327
   22MOL   C46918151   3.427   3.741   1.772  0.5240 -0.3537  0.5282
   22MOL   C47018152   3.514   3.642   1.688 -0.1210  0.5654  0.1353
   22MOL   C47118153   3.594   3.700   1.568  0.0586 -0.1852 -0.0542
   22MOL   C47218154   3.638   3.603   1.453 -0.0968 -0.0050  0.0538
   22MOL   C47318155   3.760   3.516   1.459  0.2285  0.2570  0.2714
   22MOL   C47418156   3.897   3.584   1.446 -0.2976  1.0757 -0.3040
   22MOL   C47518157   4.017   3.486   1.471  0.3920 -0.0239 -0.0851
   22MOL   C47618158   4.157   3.545   1.435  0.0874 -0.1103 -0.7511
   22MOL   C47718159   4.174   3.572   1.290 -0.6658 -0.1358 -0.4466
   22MOL   H47818160   3.109   3.586   2.339 -0.4003  1.2908  1.7657
   22MOL   H47918161   3.269   3.638   2.382 -0.4334 -0.6041  1.4907
   22MOL   H48018162   3.250   3.832   2.245  1.6497 -3.0896  3.2731
   22MOL   H48118163   3.311   3.604   2.138  1.5487  1.0279  0.9178
   22MOL   H48218164   3.153   3.593   2.062  0.9158 -0.4220 -0.2153
   22MOL   H48318165   3.328   3.836   2.013 -1.0903  1.0926 -1.7719
   22MOL   H48418166   3.179   3.788   1.931  0.8489 -0.4309 -1.7407
   22MOL   H48518167   3.267   3.617   1.833 -0.1098 -0.0181 -0.2913
   22MOL   H48618168   3.426   3.608   1.936 -0.6368 -0.6133  0.0291
   22MOL   H48718169   3.344   3.784   1.716  0.1519 -0.3551  1.0787
   22MOL   H48818170   3.502   3.811   1.808 -0.0444  0.5547 -0.0430
   22MOL   H48918171   3.583   3.585   1.751 -1.4536  0.2799  1.3804
   22MOL   H49018172   3.446   3.568   1.646  0.4894  0.9065 -1.4909
   22MOL   H49118173   3.532   3.773   1.516  1.5198  0.3794 -1.0419
   22MOL   H49218174   3.685   3.754   1.596  0.1422  0.9079 -2.3456
   22MOL   H49318175   3.548   3.542   1.454 -0.0836 -0.0109  1.2159
   22MOL   H49418176   3.637   3.655   1.357 -1.4018  0.5675  0.3656
   22MOL   H49518177   3.759   3.460   1.552 -1.0696 -1.0542 -0.5134
   22MOL   H49618178   3.744   3.437   1.385 -0.0746  0.9584 -0.4191
   22MOL   H49718179   3.910   3.629   1.347 -0.4583 -1.1816 -1.3886
   22MOL   H49818180   3.918   3.669   1.511  1.1392  1.1126 -0.7970
   22MOL   H49918181   4.004   3.401   1.405 -1.0511  1.1638 -1.3851
   22MOL   H50018182   4.014   3.456   1.576  2.7150 -2.9007 -0.8074
   22MOL   H50118183   4.179   3.641   1.481  0.4828 -0.5810  0.0316
   22MOL   H50218184   4.240   3.483   1.466 -0.2881 -0.9190 -1.3467
   22MOL   H50318185   4.123   3.665   1.267 -1.5807  0.3406  3.1592
   22MOL   H50418186   4.276   3.573   1.251 -0.8759  0.1768 -0.9918
   22MOL   H50518187   4.116   3.496   1.238  1.2486 -0.5356 -2.0573
   22MOL   C50618188   3.046   3.821   2.189 -0.2209 -0.0724 -0.3787
   22MOL   C50718189   3.030   3.968   2.238  0.1429 -0.0376  0.2068
   22MOL   C50818190   3.123   4.070   2.165 -0.6412  0.4767  0.2480
   22MOL   C50918191   3.148   4.199   2.246  0.3163 -0.1701 -0.4439
   22MOL   C51018192   3.237   4.299   2.172  0.5440 -1.0270 -0.3421
   22MOL   C51118193   3.270   4.424   2.244  0.3234  0.0070  1.1528
   22MOL   C51218194   3.369   4.502   2.162  0.1935  0.3899 -0.1991
   22MOL   C51318195   3.409   4.623   2.241 -0.3813 -0.5071 -0.5633
   22MOL   C51418196   3.508   4.726   2.179 -0.6282  0.3271 -0.3002
   22MOL   C51518197   3.531   4.851   2.267 -0.1241  0.2135  0.0741
   22MOL   C51618198   3.627   4.961   2.205 -0.7170 -0.0248 -0.5174
   22MOL   C51718199   3.621   5.098   2.284  0.7367  0.3945 -0.0622
   22MOL   C51818200   3.714   5.209   2.215 -0.0694 -0.4014 -0.2203
   22MOL   C51918201   3.860   5.205   2.272 -0.5774 -0.4888 -0.2582
   22MOL   H52018202   2.970   3.753   2.227  0.1697  0.7808  1.9566
   22MOL   H52118203   3.025   3.830   2.082  0.5840 -1.6424 -0.6906
   22MOL   H52218204   3.053   3.969   2.344 -2.3178 -2.2829  0.7962
   22MOL   H52318205   3.223   4.030   2.150 -1.3455 -1.6754  1.1094
   22MOL   H52418206   3.080   4.100   2.069  1.7586  0.2029 -0.9359
   22MOL   H52518207   3.053   4.250   2.263  1.1300  1.7321 -1.4731
   22MOL   H52618208   3.195   4.180   2.342  0.5030  1.1406 -0.2626
   22MOL   H52718209   3.184   4.328   2.082 -3.0138 -0.5363  1.7904
   22MOL   H52818210   3.329   4.255   2.135  0.4032 -1.3723 -0.2877
   22MOL   H52918211   3.320   4.399   2.337  0.7664  1.2272  1.2559
   22MOL   H53018212   3.194   4.496   2.273  0.8068  2.2352 -2.6836
   22MOL   H53118213   3.457   4.445   2.132  0.5457  0.1313  1.2934
   22MOL   H53218214   3.328   4.536   2.066 -1.4526  1.5847  0.8925
   22MOL   H53318215   3.454   4.595   2.337  1.2368  0.5849 -0.9853
   22MOL   H53418216   3.318   4.677   2.267 -0.3301 -0.5034 -0.3876
   22MOL   H53518217   3.466   4.753   2.083  0.6508 -0.7275 -1.1700
   22MOL   H53618218   3.605   4.685   2.152 -0.9040  0.0958 -0.9373
   22MOL   H53718219   3.432   4.894   2.286 -1.2850 -1.7246 -1.3931
   22MOL   H53818220   3.577   4.821   2.362  2.5824 -0.0831 -1.2955
   22MOL   H53918221   3.731   4.927   2.204 -0.6074  0.3445 -2.3445
   22MOL   H54018222   3.610   4.990   2.102 -1.7803  1.0509 -0.0535
   22MOL   H54118223   3.653   5.070   2.384 -0.5146 -0.5839  0.0848
   22MOL   H54218224   3.516   5.129   2.289  0.2652 -0.8570 -1.8181
   22MOL   H54318225   3.679   5.308   2.245  1.9384  0.0779  0.6773
   22MOL   H54418226   3.703   5.205   2.107 -1.9961 -1.4661 -0.0047
   22MOL   H54518227   3.923   5.291   2.247 -0.5977 -1.1534 -2.7112
   22MOL   H54618228   3.852   5.211   2.381 -0.5291 -1.5035 -0.1984
   22MOL   H54718229   3.906   5.107   2.257  0.0959 -0.3696  0.8925
   22MOL   C54818230   2.876   4.008   2.239  0.3559 -0.0826  0.0767
   22MOL   C54918231   2.796   3.951   2.368  0.4168  0.3861 -0.1160
   22MOL   C55018232   2.805   4.064   2.478 -0.4894 -0.0647 -0.2931
   22MOL   C55118233   2.772   4.026   2.620  0.6212  0.0039  0.4357
   22MOL   C55218234   2.722   4.150   2.702 -0.6538 -0.2132 -0.2545
   22MOL   C55318235   2.829   4.261   2.724  0.0021 -0.1382  0.7227
   22MOL   C55418236   2.788   4.383   2.810  0.0276 -0.1125  0.5113
   22MOL   C55518237   2.901   4.479   2.847  0.3300  0.7519  0.6074
   22MOL   C55618238   2.884   4.618   2.777  0.2357 -0.0104  0.1326
   22MOL   C55718239   2.966   4.731   2.847  1.0933  0.8423  0.1687
   22MOL   C55818240   2.953   4.866   2.787  0.4231  0.5806  0.3303
   22MOL   C55918241   3.036   4.968   2.859  0.2854  0.1779  0.6180
   22MOL   C56018242   3.026   5.096   2.786 -0.6185  0.1413 -0.9714
   22MOL   C56118243   3.087   5.209   2.862 -0.0190  0.2086 -0.5398
   22MOL   H56218244   2.861   4.115   2.228  0.6628  0.0811  1.1554
   22MOL   H56318245   2.836   3.962   2.149  1.0442  0.1976 -0.3828
   22MOL   H56418246   2.847   3.865   2.410  1.8408  1.0754 -0.4103
   22MOL   H56518247   2.903   4.112   2.469 -0.9246  0.8281 -0.3205
   22MOL   H56618248   2.738   4.147   2.455  0.1572  0.5497  0.0207
   22MOL   H56718249   2.853   3.964   2.659 -1.0027 -2.5260 -0.1698
   22MOL   H56818250   2.681   3.968   2.609 -0.8992  1.9038  2.4475
   22MOL   H56918251   2.626   4.188   2.667 -0.9969  0.2441  1.1686
   22MOL   H57018252   2.698   4.127   2.805  1.4949 -1.1377  0.0681
   22MOL   H57118253   2.875   4.279   2.626 -1.8308 -0.3183 -0.1970
   22MOL   H57218254   2.909   4.215   2.781  0.0536 -0.9727 -0.0055
   22MOL   H57318255   2.713   4.446   2.760  0.5341 -0.2821 -0.4875
   22MOL   H57418256   2.745   4.353   2.905  1.0355  1.8810  1.6418
   22MOL   H57518257   2.992   4.419   2.843 -1.3201 -1.9073  1.2961
   22MOL   H57618258   2.890   4.506   2.952 -0.6078  2.4026  0.1014
   22MOL   H57718259   2.784   4.657   2.796  0.2902 -0.0366  0.4857
   22MOL   H57818260   2.891   4.615   2.668  0.0315  1.6952  0.0633
   22MOL   H57918261   2.931   4.736   2.950  2.0378  0.0901  0.5336
   22MOL   H58018262   3.067   4.690   2.848  1.0375  0.6964 -0.2176
   22MOL   H58118263   2.851   4.900   2.773  0.6578  1.0540 -0.2566
   22MOL   H58218264   2.988   4.860   2.683 -1.2882  1.9369 -0.3442
   22MOL   H58318265   2.995   4.980   2.959 -2.1466  0.2440 -0.3436
   22MOL   H58418266   3.143   4.951   2.869  0.2783  0.0821  0.5327
   22MOL   H58518267   3.074   5.093   2.688 -0.0530 -0.4796 -0.6812
   22MOL   H58618268   2.920   5.117   2.770 -0.7830 -0.2727 -0.4300
   22MOL   H58718269   3.186   5.183   2.898  0.8163  1.3541 -1.9489
   22MOL   H58818270   3.085   5.301   2.803  0.2300  1.1035  0.8370
   22MOL   H58918271   3.016   5.230   2.942  1.2404  0.7672  0.4392
   22MOL   C59018272   2.651   3.898   2.335  0.2574 -0.3608 -0.0920
   22MOL   C59118273   2.649   3.768   2.249  0.3468 -0.3947 -0.3610
   22MOL   C59218274   2.631   3.647   2.337 -0.1899  0.3656  0.2424
   22MOL   C59318275   2.663   3.515   2.266  0.1123  0.4350 -0.3887
   22MOL   C59418276   2.814   3.478   2.266  0.9056  0.4855  0.4242
   22MOL   C59518277   2.829   3.329   2.231 -0.2980 -0.4972  0.1969
   22MOL   C59618278   2.975   3.282   2.253  0.0799  0.3282 -0.3082
   22MOL   C59718279   3.008   3.136   2.221  0.1309  0.1685 -0.1944
   22MOL   C59818280   2.944   3.037   2.318 -0.5804 -0.0316  0.8263
   22MOL   C59918281   2.988   2.890   2.291  0.1509 -0.5972  0.1690
   22MOL   C60018282   2.911   2.792   2.392 -0.0298 -0.1343  0.2514
   22MOL   C60118283   2.946   2.636   2.376 -0.2108 -0.2761  0.3647
   22MOL   C60218284   2.870   2.541   2.467 -0.4329 -0.3320 -0.8772
   22MOL   C60318285   2.918   2.398   2.441 -0.0296 -0.0213  0.5294
   22MOL   H60418286   2.599   3.981   2.287 -2.3547 -0.4729  2.3816
   22MOL   H60518287   2.591   3.869   2.421  0.3520 -0.7031 -0.1386
   22MOL   H60618288   2.745   3.768   2.196  1.8600 -1.5481  2.2645
   22MOL   H60718289   2.538   3.648   2.393 -1.6602  1.9694 -2.1172
   22MOL   H60818290   2.704   3.649   2.418 -0.0234  2.6401  0.0508
   22MOL   H60918291   2.637   3.514   2.160  1.6532  1.9472 -0.8150
   22MOL   H61018292   2.602   3.441   2.317 -0.7918 -0.3518 -2.5230
   22MOL   H61118293   2.858   3.507   2.362 -1.1239  1.2911  1.1455
   22MOL   H61218294   2.859   3.547   2.196  0.6101 -0.5897 -0.8417
   22MOL   H61318295   2.798   3.315   2.127  0.0791 -0.8906  0.1368
   22MOL   H61418296   2.769   3.267   2.297 -0.1155 -0.1339  0.7066
   22MOL   H61518297   3.047   3.335   2.189  0.9141 -2.3626 -1.6616
   22MOL   H61618298   3.010   3.311   2.352  3.0003  0.2483 -1.2698
   22MOL   H61718299   2.988   3.110   2.117  2.9760 -1.2817 -0.4308
   22MOL   H61818300   3.117   3.128   2.231  0.3395  2.7242  0.0564
   22MOL   H61918301   2.978   3.065   2.417  1.7164  3.6813 -0.8940
   22MOL   H62018302   2.836   3.050   2.317 -0.6836 -0.9252 -0.2407
   22MOL   H62118303   2.965   2.855   2.190  0.9307  1.3776 -0.7145
   22MOL   H62218304   3.097   2.889   2.291  0.1450 -2.0904 -0.1705
   22MOL   H62318305   2.805   2.801   2.372 -0.3677  0.9938  2.3461
   22MOL   H62418306   2.932   2.820   2.495 -0.5681 -1.4458  0.7328
   22MOL   H62518307   3.051   2.621   2.400 -0.4221 -1.3645  0.5998
   22MOL   H62618308   2.927   2.594   2.277 -1.0646 -1.8546  1.1772
   22MOL   H62718309   2.884   2.572   2.571  0.2422 -3.3641  0.0019
   22MOL   H62818310   2.764   2.553   2.444 -0.4204  1.1075 -0.2417
   22MOL   H62918311   2.917   2.342   2.534 -1.3672 -0.4420  0.2662
   22MOL   H63018312   3.014   2.384   2.390  0.8626  0.0548  2.1457
   22MOL   H63118313   2.855   2.350   2.366 -0.1190  1.0009 -0.0586
   22MOL   C63218314   2.533   3.774   2.143 -0.4412 -0.5291  0.4867
   22MOL   C63318315   2.570   3.830   2.004  0.1627  0.2637 -0.1606
   22MOL   C63418316   2.630   3.723   1.912 -0.6457 -0.5669 -0.3178
   22MOL   C63518317   2.786   3.712   1.905 -0.1417  0.4393 -0.1754
   22MOL   C63618318   2.832   3.613   1.796 -0.5785 -0.6155  1.0077
   22MOL   C63718319   2.885   3.481   1.852  0.7049  0.4614 -0.0005
   22MOL   C63818320   2.958   3.399   1.744  0.1391 -0.4861 -0.1976
   22MOL   C63918321   2.993   3.258   1.802  0.0435  0.4884  0.4051
   22MOL   C64018322   3.032   3.162   1.688  0.3491  0.3063 -0.2928
   22MOL   C64118323   3.095   3.033   1.744  0.2846  0.2332 -0.3398
   22MOL   C64218324   2.987   2.943   1.805 -0.5854  0.2502 -0.0482
   22MOL   C64318325   3.051   2.818   1.875 -0.5007  0.0006 -0.5056
   22MOL   C64418326   2.942   2.711   1.899 -0.7454  0.0009 -0.8726
   22MOL   C64518327   3.005   2.608   1.990 -0.1055  0.0357  0.4204
   22MOL   H64618328   2.446   3.821   2.189  1.3252  0.8321  2.5273
   22MOL   H64718329   2.503   3.671   2.123 -0.8622 -0.2269 -0.4797
   22MOL   H64818330   2.644   3.910   2.011  1.7645 -1.1892 -0.2684
   22MOL   H64918331   2.589   3.625   1.936  0.0367 -1.4233 -2.5250
   22MOL   H65018332   2.601   3.750   1.810  0.0689  1.2743 -0.0614
   22MOL   H65118333   2.830   3.681   2.000  0.7384  0.1445 -0.6677
   22MOL   H65218334   2.826   3.810   1.878 -1.1242  0.4201 -1.7549
   22MOL   H65318335   2.924   3.665   1.767 -0.2484 -1.8875 -0.2707
   22MOL   H65418336   2.753   3.592   1.723 -0.1288  0.0028  0.3320
   22MOL   H65518337   2.954   3.498   1.935  1.8078 -0.3791 -0.7305
   22MOL   H65618338   2.797   3.423   1.880 -0.1874  1.6415 -0.3132
   22MOL   H65718339   2.910   3.402   1.646  0.8912 -0.9951 -0.5783
   22MOL   H65818340   3.052   3.452   1.727 -1.1131  1.8728  0.0098
   22MOL   H65918341   2.907   3.230   1.862  0.7759  0.3532  1.3908
   22MOL   H66018342   3.080   3.269   1.867  0.2296 -1.5554  0.5399
   22MOL   H66118343   3.113   3.208   1.632  0.6107  0.8190  0.5055
   22MOL   H66218344   2.952   3.143   1.616  0.8233  0.0150 -0.7439
   22MOL   H66318345   3.149   2.981   1.665  0.1975 -0.0386 -0.2219
   22MOL   H66418346   3.168   3.067   1.817  0.7690 -0.5407 -0.4571
   22MOL   H66518347   2.923   3.001   1.871 -0.6335  0.9107 -0.6699
   22MOL   H66618348   2.928   2.907   1.720  1.5822  1.2044 -2.0172
   22MOL   H66718349   3.092   2.847   1.971  0.4672 -0.2493 -0.8436
   22MOL   H66818350   3.139   2.777   1.826 -0.2034  0.2570 -0.1935
   22MOL   H66918351   2.908   2.669   1.804 -1.3401 -2.0125  0.2054
   22MOL   H67018352   2.851   2.750   1.945  0.1389 -0.5589  1.4396
   22MOL   H67118353   2.934   2.526   1.999 -0.0820 -0.0880 -0.4832
   22MOL   H67218354   3.102   2.568   1.960 -0.1059 -0.0234  0.4975
   22MOL   H67318355   3.036   2.636   2.091 -0.2564  0.8735  0.2439
   22MOL   C67418356   2.447   3.897   1.949  0.0988 -0.4983 -0.0549
   22MOL   C67518357   2.427   4.041   2.011  0.7583  0.1892  0.2286
   22MOL   C67618358   2.497   4.159   1.934 -0.4771  0.6649  0.1404
   22MOL   C67718359   2.628   4.201   2.006 -0.2779 -0.3262  0.1130
   22MOL   C67818360   2.694   4.311   1.926  0.0661  0.1771 -0.1274
   22MOL   C67918361   2.825   4.362   1.997 -0.6849  0.7858 -0.1751
   22MOL   C68018362   2.869   4.500   1.954  0.2130  0.1052 -0.3514
   22MOL   C68118363   3.005   4.552   1.997 -0.0126  0.2136 -0.9227
   22MOL   C68218364   3.009   4.699   1.966  0.9458 -0.7251  1.0076
   22MOL   C68318365   3.149   4.756   1.954  0.4310  0.2850 -0.4413
   22MOL   C68418366   3.150   4.909   1.939  0.2981 -0.4816 -0.1702
   22MOL   C68518367   3.288   4.973   1.959  0.2960 -0.6747 -0.2470
   22MOL   C68618368   3.296   5.121   1.907  0.7131 -0.3217 -0.0800
   22MOL   C68718369   3.433   5.193   1.935  0.0502  0.5713  0.0565
   22MOL   H68818370   2.361   3.834   1.971 -1.6338  0.3910 -3.8775
   22MOL   H68918371   2.449   3.910   1.841 -3.4551 -2.4887 -0.4198
   22MOL   H69018372   2.470   4.045   2.111  0.5007  0.2155  0.3381
   22MOL   H69118373   2.521   4.131   1.832  1.8170 -1.5962  1.2426
   22MOL   H69218374   2.436   4.248   1.918 -2.3738 -0.7124 -0.5353
   22MOL   H69318375   2.606   4.231   2.109  2.0064  0.0571  0.5131
   22MOL   H69418376   2.699   4.119   2.009  1.0526  0.7796 -0.6648
   22MOL   H69518377   2.730   4.266   1.834 -0.7748 -1.5343  0.3661
   22MOL   H69618378   2.627   4.395   1.911  1.1017  0.9144 -0.6871
   22MOL   H69718379   2.822   4.364   2.106 -0.2372  1.0710 -0.1639
   22MOL   H69818380   2.898   4.282   1.988  1.3108  2.5812 -0.2820
   22MOL   H69918381   2.869   4.509   1.845 -0.3758  1.7394 -0.2245
   22MOL   H70018382   2.792   4.564   1.999  0.7948  0.3878  0.2401
   22MOL   H70118383   3.025   4.517   2.099 -1.4101  0.6543 -0.4792
   22MOL   H70218384   3.078   4.499   1.936 -0.1293  0.5805 -1.3873
   22MOL   H70318385   2.964   4.719   1.869 -0.1539 -1.8175  1.2735
   22MOL   H70418386   2.947   4.752   2.038  2.4336  0.1131  1.6790
   22MOL   H70518387   3.211   4.702   1.883 -0.4061 -1.3191  0.0353
   22MOL   H70618388   3.192   4.739   2.053 -1.0078  0.7488  0.2796
   22MOL   H70718389   3.081   4.961   2.006  0.3748  1.0351 -1.2549
   22MOL   H70818390   3.125   4.925   1.835  0.3197 -0.1822 -0.1298
   22MOL   H70918391   3.368   4.913   1.917  1.2286 -0.4067  1.1196
   22MOL   H71018392   3.300   4.979   2.067  1.0250  2.0271 -0.4253
   22MOL   H71118393   3.285   5.124   1.798 -0.9889 -1.3749  0.0434
   22MOL   H71218394   3.213   5.167   1.960 -0.2772 -1.5787 -0.4927
   22MOL   H71318395   3.433   5.291   1.889 -0.0331 -0.2857 -1.8118
   22MOL   H71418396   3.460   5.195   2.041  0.0651  0.0565  0.0656
   22MOL   H71518397   3.502   5.129   1.880  0.0583 -0.6934  1.4738
   22MOL   C71618398   2.280   4.069   2.030  1.1460  1.1832  1.0172
   22MOL   C71718399   2.241   4.196   2.109 -0.3462  0.7093 -0.3504
   22MOL   C71818400   2.095   4.243   2.082  0.3785 -0.1047  0.8093
   22MOL   C71918401   2.055   4.280   1.931  0.8093  0.1378 -1.3023
   22MOL   C72018402   1.911   4.341   1.924  0.1430 -0.7942 -0.1733
   22MOL   C72118403   1.907   4.491   1.957  0.4450  0.2810 -0.3840
   22MOL   C72218404   1.772   4.530   1.996  0.9318 -0.7038  0.1553
   22MOL   C72318405   1.673   4.523   1.873  0.3675  0.2194 -0.4347
   22MOL   C72418406   1.549   4.608   1.892  0.1845 -0.4856  0.2474
   22MOL   C72518407   1.459   4.594   1.773  0.1284 -0.2010 -0.4367
   22MOL   C72618408   1.327   4.665   1.796  0.2162  0.1343  0.2851
   22MOL   C72718409   1.229   4.656   1.678 -0.3228 -0.1075 -0.5412
   22MOL   C72818410   1.093   4.720   1.715  0.1335 -0.5062 -0.9011
   22MOL   C72918411   0.984   4.704   1.613 -0.1674 -0.0573  0.1381
   22MOL   H73018412   2.240   4.093   1.931  1.8677 -0.2915  0.3604
   22MOL   H73118413   2.229   3.981   2.069  0.4547  0.8066 -0.6785
   22MOL   H73218414   2.299   4.279   2.070 -0.3286  0.1163 -1.6123
   22MOL   H73318415   2.078   4.336   2.137 -0.7812 -1.0807  2.1404
   22MOL   H73418416   2.020   4.175   2.121  0.3282  0.0363  0.9564
   22MOL   H73518417   2.129   4.342   1.881  1.7827 -0.5213 -0.6899
   22MOL   H73618418   2.047   4.187   1.875 -0.8830 -0.8025  0.4150
   22MOL   H73718419   1.863   4.312   1.831  0.0477  0.4229 -0.5186
   22MOL   H73818420   1.854   4.289   2.001 -1.2768  0.6084 -0.2384
   22MOL   H73918421   1.987   4.504   2.031 -3.3960 -2.4441  4.5292
   22MOL   H74018422   1.929   4.561   1.876 -2.2861  0.4598 -1.0053
   22MOL   H74118423   1.744   4.453   2.068  1.2829 -1.4101 -0.4535
   22MOL   H74218424   1.776   4.630   2.039  2.6335 -0.8319  0.3151
   22MOL   H74318425   1.651   4.419   1.849 -2.0091  0.1121  1.9786
   22MOL   H74418426   1.722   4.562   1.784  1.5432  1.7019  0.8476
   22MOL   H74518427   1.495   4.585   1.984  0.2578 -1.0556  0.1507
   22MOL   H74618428   1.578   4.713   1.898  2.9442 -1.0568 -1.7837
   22MOL   H74718429   1.520   4.621   1.687 -0.2680  1.2455 -0.2806
   22MOL   H74818430   1.439   4.489   1.753  0.4766  0.2996 -3.5483
   22MOL   H74918431   1.276   4.613   1.877  0.5129 -0.0548  0.3524
   22MOL   H75018432   1.331   4.766   1.836  0.5825  0.8067 -1.3908
   22MOL   H75118433   1.279   4.708   1.596  0.1603 -0.4107 -0.4388
   22MOL   H75218434   1.217   4.553   1.645  0.0819  0.0964 -1.3417
   22MOL   H75318435   1.106   4.826   1.737 -1.6338 -0.5765  0.5873
   22MOL   H75418436   1.054   4.677   1.807  0.3293  3.1415  0.9810
   22MOL   H75518437   0.884   4.711   1.655  0.4796  0.6535  1.5770
   22MOL   H75618438   0.983   4.600   1.580 -0.6782 -1.0583  3.1699
   22MOL   H75718439   0.996   4.771   1.527 -0.7714 -1.8862 -1.4030
   22MOL   C75818440   2.261   4.165   2.262 -0.0158 -0.2812 -0.6340
   22MOL   C75918441   2.291   4.288   2.348  0.4297  0.1916 -0.5402
   22MOL   C76018442   2.284   4.267   2.499  0.5864 -0.1956  0.1329
   22MOL   C76118443   2.300   4.398   2.578 -0.5639  0.1507  0.1539
   22MOL   C76218444   2.270   4.378   2.726 -0.4042 -0.1239  0.1496
   22MOL   C76318445   2.335   4.260   2.806 -0.0159 -0.1942 -0.3044
   22MOL   C76418446   2.257   4.225   2.938  0.4229  0.0147 -0.3927
   22MOL   C76518447   2.311   4.101   3.008  0.0740  0.5803  0.1239
   22MOL   C76618448   2.247   4.067   3.147  0.6677 -0.4382 -0.0547
   22MOL   C76718449   2.311   3.949   3.226  0.4084 -0.5757  0.4715
   22MOL   C76818450   2.242   3.926   3.356  0.3754 -0.4777  0.1123
   22MOL   C76918451   2.283   3.801   3.430 -0.1241  0.1042 -0.7060
   22MOL   C77018452   2.181   3.769   3.533 -0.0073 -0.5889  0.3503
   22MOL   C77118453   2.225   3.653   3.626 -0.0481  0.8115  0.2180
   22MOL   H77218454   2.169   4.117   2.296  0.6433 -0.2915  1.1865
   22MOL   H77318455   2.327   4.080   2.280  0.9695  0.5365 -0.3122
   22MOL   H77418456   2.203   4.351   2.335 -0.0354 -0.3318  0.0444
   22MOL   H77518457   2.194   4.218   2.535  0.4533 -2.9931 -3.7503
   22MOL   H77618458   2.359   4.193   2.526 -0.1174 -0.3839  1.6323
   22MOL   H77718459   2.401   4.439   2.574  0.3777 -2.1724 -0.1346
   22MOL   H77818460   2.228   4.469   2.536 -2.5470 -0.9704  1.5572
   22MOL   H77918461   2.161   4.375   2.726 -0.3745 -2.0165  0.7647
   22MOL   H78018462   2.273   4.472   2.782 -2.8485 -0.6760  1.2968
   22MOL   H78118463   2.438   4.293   2.820 -0.3948  0.7221  0.3532
   22MOL   H78218464   2.335   4.170   2.743  0.3613 -0.1880 -0.3146
   22MOL   H78318465   2.257   4.314   3.001  2.1389  0.0590 -0.4172
   22MOL   H78418466   2.152   4.211   2.914  0.5204  1.5653 -1.8266
   22MOL   H78518467   2.418   4.124   3.015 -0.2817  2.5704 -0.5075
   22MOL   H78618468   2.301   4.021   2.936  2.7693  0.4029 -0.1217
   22MOL   H78718469   2.138   4.059   3.144  0.5644  0.5078  0.7178
   22MOL   H78818470   2.273   4.146   3.218 -1.1253  0.6738 -0.5931
   22MOL   H78918471   2.417   3.963   3.250  1.1680 -1.1464 -2.4145
   22MOL   H79018472   2.308   3.865   3.157 -1.8446 -1.0813  1.1453
   22MOL   H79118473   2.261   4.012   3.420 -1.7007  0.3113 -0.2935
   22MOL   H79218474   2.133   3.919   3.352  0.3826 -0.6596  0.2242
   22MOL   H79318475   2.304   3.709   3.375 -0.9869 -0.0065 -0.8432
   22MOL   H79418476   2.380   3.823   3.476  0.2082  0.9305 -1.7824
   22MOL   H79518477   2.152   3.853   3.597  0.9731  0.3914 -0.4822
   22MOL   H79618478   2.091   3.737   3.481 -0.2398 -1.4943  1.2766
   22MOL   H79718479   2.312   3.679   3.687 -0.1090 -0.7774  1.0183
   22MOL   H79818480   2.142   3.616   3.686  0.6296 -1.9910 -0.4534
   22MOL   H79918481   2.261   3.565   3.572 -0.1583  0.5636  0.5436
   22MOL   C80018482   2.420   4.373   2.304 -0.3707  0.2358  0.1525
   22MOL   C80118483   2.551   4.307   2.356  0.6380 -0.0672  0.1683
   22MOL   C80218484   2.677   4.399   2.338  0.5357 -0.1593 -0.3864
   22MOL   C80318485   2.671   4.540   2.401 -0.3593  0.2460  0.7815
   22MOL   C80418486   2.804   4.611   2.376 -0.2358 -0.0912 -0.2820
   22MOL   C80518487   2.791   4.763   2.399 -0.6016 -0.5245  0.6854
   22MOL   C80618488   2.923   4.832   2.407  0.1745  0.0508  0.3644
   22MOL   C80718489   2.912   4.979   2.433 -0.7563  0.3147  0.0514
   22MOL   C80818490   3.055   5.050   2.427  0.1796 -0.0126  0.4525
   22MOL   C80918491   3.058   5.203   2.416 -0.0008 -0.6123  0.2872
   22MOL   C81018492   3.200   5.255   2.402  0.0759 -1.0549  0.0593
   22MOL   C81118493   3.206   5.409   2.396 -0.4031  0.0362 -0.3804
   22MOL   C81218494   3.262   5.458   2.261 -0.7494  0.7099  0.0043
   22MOL   C81318495   3.311   5.601   2.274  0.1417  0.5332 -0.3961
   22MOL   H81418496   2.407   4.472   2.346  1.0018  0.4811  0.0221
   22MOL   H81518497   2.428   4.372   2.195 -0.9986 -1.8515  0.0911
   22MOL   H81618498   2.563   4.203   2.326 -0.5977 -0.7177  1.8704
   22MOL   H81718499   2.679   4.413   2.229 -0.4120 -0.7458 -0.4900
   22MOL   H81818500   2.768   4.344   2.360 -0.1125 -1.8602 -1.8363
   22MOL   H81918501   2.642   4.532   2.506  0.4264 -1.1050  0.9078
   22MOL   H82018502   2.594   4.603   2.357  0.5996  0.7916 -0.1517
   22MOL   H82118503   2.878   4.574   2.447 -0.3165 -2.5894 -1.4238
   22MOL   H82218504   2.839   4.578   2.278 -1.0873  0.3048 -0.7302
   22MOL   H82318505   2.743   4.780   2.496 -0.8941 -1.8069  0.7792
   22MOL   H82418506   2.725   4.812   2.328  0.3063  0.1335  0.2916
   22MOL   H82518507   2.997   4.788   2.475  1.6841 -0.7859 -1.7659
   22MOL   H82618508   2.970   4.813   2.310  3.3414 -3.3223  2.4196
   22MOL   H82718509   2.852   5.025   2.355 -0.7290 -0.4455 -0.4154
   22MOL   H82818510   2.881   5.005   2.535  0.5092  2.9326 -0.1980
   22MOL   H82918511   3.128   5.024   2.504  0.6590  0.3980  0.1452
   22MOL   H83018512   3.097   5.024   2.329 -0.9022  0.4643 -0.1522
   22MOL   H83118513   3.008   5.258   2.496  0.4632  0.0641  0.1128
   22MOL   H83218514   3.001   5.238   2.330 -2.7526  0.9516  2.6673
   22MOL   H83318515   3.253   5.208   2.485  0.1730 -3.2623 -1.1936
   22MOL   H83418516   3.232   5.215   2.305  0.7025 -0.0262 -0.1696
   22MOL   H83518517   3.260   5.456   2.478 -0.4814 -0.0635 -0.2718
   22MOL   H83618518   3.102   5.442   2.402 -0.1663  0.6486  0.4929
   22MOL   H83718519   3.352   5.411   2.222 -1.0050  0.9952 -0.9688
   22MOL   H83818520   3.186   5.460   2.182 -0.6665 -1.0159 -0.1388
   22MOL   H83918521   3.364   5.636   2.186  0.1886  1.9779  0.1805
   22MOL   H84018522   3.232   5.674   2.293 -1.3223 -1.1721  0.2425
   22MOL   H84118523   3.380   5.601   2.359  0.4684 -0.4632 -0.6641
   22MOL   H84218524   2.535   4.306   2.463  1.2078 -0.0645  0.2563
   23MOL     C118525   3.583   2.071   2.648 -0.5823  0.3648  0.0661
   23MOL     C218526   3.527   1.979   2.535  0.2515 -0.6012  0.4431
   23MOL     C318527   3.525   2.028   2.389 -0.0064  0.2360 -0.0527
   23MOL     C418528   3.469   2.169   2.364  0.1373 -0.0521 -0.3648
   23MOL     C518529   3.475   2.223   2.222 -0.0901 -0.3909  0.4289
   23MOL     C618530   3.420   2.369   2.193 -1.2220  0.4288 -0.1009
   23MOL     C718531   3.272   2.375   2.202  0.1988  0.0093  0.3005
   23MOL     C818532   3.194   2.283   2.106  0.1677 -0.3104  0.3371
   23MOL     C918533   3.050   2.263   2.153  0.3620 -0.0870 -0.5180
   23MOL    C1018534   2.972   2.152   2.081 -0.1901 -0.4227  0.3842
   23MOL    C1118535   2.833   2.131   2.149  0.6454 -0.4551 -0.0444
   23MOL    C1218536   2.743   2.021   2.090  0.3206 -0.5149 -0.2786
   23MOL    C1318537   2.602   2.002   2.145  0.1391  0.1240 -0.4488
   23MOL    C1418538   2.528   2.132   2.170  0.3983 -0.3722  0.0959
   23MOL    H1518539   3.581   2.025   2.747  0.0537 -0.4026 -0.2748
   23MOL    H1618540   3.528   2.165   2.653  0.4103  0.9078  0.9924
   23MOL    H1718541   3.425   1.952   2.563  0.8264 -1.9118  1.3534
   23MOL    H1818542   3.628   2.035   2.356  0.0621  0.3594  0.1873
   23MOL    H1918543   3.472   1.959   2.323  0.2115 -0.8444  0.8883
   23MOL    H2018544   3.528   2.229   2.433 -1.2600  0.8966  0.0262
   23MOL    H2118545   3.371   2.177   2.411  0.4229  0.3680  0.1720
   23MOL    H2218546   3.427   2.150   2.156  2.5035 -1.6636 -0.1057
   23MOL    H2318547   3.577   2.227   2.185 -0.6563  1.7412 -1.0044
   23MOL    H2418548   3.437   2.397   2.089  1.0222 -0.8138 -0.0923
   23MOL    H2518549   3.471   2.448   2.248  1.1135 -1.1381  0.0520
   23MOL    H2618550   3.243   2.364   2.307 -3.1710  0.8459 -0.4731
   23MOL    H2718551   3.226   2.473   2.190  0.9575  0.1844 -1.3421
   23MOL    H2818552   3.236   2.185   2.084  1.3812  0.2389  0.1932
   23MOL    H2918553   3.188   2.337   2.011 -0.6767  1.1526  1.1906
   23MOL    H3018554   3.060   2.211   2.249  1.9065  0.5519 -0.3218
   23MOL    H3118555   3.006   2.362   2.164  0.5722  0.0141 -0.5974
   23MOL    H3218556   2.977   2.183   1.976 -1.1332 -1.6494 -0.0481
   23MOL    H3318557   3.038   2.065   2.084 -0.3230 -0.5782 -0.7433
   23MOL    H3418558   2.851   2.128   2.256  1.4648 -1.0425 -0.1989
   23MOL    H3518559   2.784   2.228   2.138  3.1020  0.7658 -0.5827
   23MOL    H3618560   2.802   1.929   2.087  0.9371 -0.1086 -0.8527
   23MOL    H3718561   2.728   2.037   1.983  0.0675  2.5638  0.1853
   23MOL    H3818562   2.539   1.940   2.081  2.4747 -1.4591 -1.2789
   23MOL    H3918563   2.606   1.948   2.240  1.6162 -1.6416 -1.4691
   23MOL    H4018564   2.500   2.187   2.080  0.3184 -2.8369 -1.4210
   23MOL    H4118565   2.433   2.101   2.213  0.7908 -1.9783 -0.1598
   23MOL    H4218566   2.585   2.201   2.232  1.2739 -1.4417  0.4939
   23MOL    H4318567   3.687   2.091   2.627 -0.0181 -2.3577  0.0583
   23MOL    C4418568   3.603   1.839   2.527  1.0881 -0.0366  0.0818
   23MOL    C4518569   3.554   1.738   2.636 -0.1756 -0.1726 -0.3472
   23MOL    C4618570   3.655   1.619   2.639  0.8218  0.0287 -0.4685
   23MOL    C4718571   3.639   1.504   2.742 -0.2307 -1.3281  0.7218
   23MOL    C4818572   3.749   1.395   2.735  0.3170 -0.1794  0.1728
   23MOL    C4918573   3.719   1.269   2.820 -0.0509  0.3850 -0.0637
   23MOL    C5018574   3.576   1.212   2.800  0.0852  0.5415 -0.2747
   23MOL    C5118575   3.547   1.072   2.880  0.1087 -0.3280  0.1949
   23MOL    C5218576   3.402   1.033   2.868 -0.3408 -0.4302 -0.1532
   23MOL    C5318577   3.362   0.898   2.916  0.1507  0.0422 -0.6322
   23MOL    C5418578   3.382   0.868   3.064 -0.0826 -0.1045 -0.0341
   23MOL    C5518579   3.247   0.847   3.147  0.3843  0.4837  0.1180
   23MOL    C5618580   3.174   0.723   3.101 -0.2659 -0.5232  0.0170
   23MOL    C5718581   3.034   0.707   3.154  0.6446  0.1412 -0.1288
   23MOL    H5818582   3.599   1.797   2.426 -2.4562 -1.3997  0.7504
   23MOL    H5918583   3.710   1.863   2.531  0.9870  0.3729  0.3670
   23MOL    H6018584   3.548   1.781   2.735  0.2623 -0.1867 -0.3125
   23MOL    H6118585   3.649   1.577   2.538  2.2585 -2.1747  0.3325
   23MOL    H6218586   3.756   1.659   2.644  1.0543 -0.7128  0.7726
   23MOL    H6318587   3.542   1.458   2.723 -0.8384  0.4376 -0.5696
   23MOL    H6418588   3.637   1.542   2.844 -0.0082  0.0781  0.2127
   23MOL    H6518589   3.841   1.447   2.759 -0.2643  0.6238  0.7081
   23MOL    H6618590   3.772   1.362   2.634 -2.1167 -0.4170 -0.3352
   23MOL    H6718591   3.789   1.186   2.820 -0.8852 -0.3452  1.5184
   23MOL    H6818592   3.711   1.294   2.926  1.2806 -1.4550  0.4905
   23MOL    H6918593   3.502   1.285   2.832 -0.6330  0.1969 -1.1189
   23MOL    H7018594   3.548   1.209   2.694 -1.4342  0.3185  0.1171
   23MOL    H7118595   3.556   1.096   2.986  1.5317 -1.4925  0.3543
   23MOL    H7218596   3.603   0.984   2.849  1.1487  0.1887  0.5785
   23MOL    H7318597   3.341   1.100   2.929 -3.2085 -3.1733  0.1089
   23MOL    H7418598   3.371   1.047   2.765  0.9225  0.1854 -0.4596
   23MOL    H7518599   3.420   0.823   2.863  0.6166 -0.0731  0.0404
   23MOL    H7618600   3.259   0.877   2.886 -0.2656  1.0504  0.0433
   23MOL    H7718601   3.427   0.955   3.112 -0.6398  0.6505 -0.8633
   23MOL    H7818602   3.465   0.799   3.078 -0.6284 -0.7355  0.1173
   23MOL    H7918603   3.271   0.835   3.253 -0.2092  3.3621  0.5958
   23MOL    H8018604   3.172   0.926   3.149 -1.0803 -0.8557 -0.7923
   23MOL    H8118605   3.228   0.632   3.126 -2.3768 -1.5234  1.0045
   23MOL    H8218606   3.168   0.725   2.992 -0.0172  2.8876  0.0022
   23MOL    H8318607   2.980   0.629   3.101  0.2089 -0.2385  0.8618
   23MOL    H8418608   2.989   0.806   3.138 -2.9125 -1.2429  0.8499
   23MOL    H8518609   3.014   0.689   3.260  1.5205  1.7492  0.3238
   23MOL    C8618610   3.411   1.680   2.590 -0.6132 -0.1837  0.6538
   23MOL    C8718611   3.311   1.640   2.703  0.0847  0.1966 -0.7261
   23MOL    C8818612   3.206   1.540   2.652 -0.5839 -0.0050  0.4776
   23MOL    C8918613   3.267   1.394   2.665 -0.4399  0.3375  0.0728
   23MOL    C9018614   3.188   1.292   2.583 -0.0652 -0.0183 -0.4679
   23MOL    C9118615   3.204   1.310   2.433  0.4121  0.1220  0.0892
   23MOL    C9218616   3.134   1.201   2.340 -0.3882  0.2833 -0.4267
   23MOL    C9318617   3.215   1.172   2.217 -0.4217  0.0575  0.3178
   23MOL    C9418618   3.147   1.076   2.115 -0.2610 -0.0583 -0.2026
   23MOL    C9518619   3.201   1.077   1.969  0.3784  0.6025 -0.0862
   23MOL    C9618620   3.331   0.996   1.964 -0.2025 -0.1712  0.1071
   23MOL    C9718621   3.389   0.973   1.823 -0.1300 -0.5573  0.0760
   23MOL    C9818622   3.535   0.932   1.827  0.3352 -0.3999 -0.2009
   23MOL    C9918623   3.594   0.884   1.690 -0.4238 -0.1271 -0.3130
   23MOL   H10018624   3.352   1.745   2.525 -1.2622 -0.4022  1.0212
   23MOL   H10118625   3.430   1.600   2.518 -1.9705 -1.8115  2.0500
   23MOL   H10218626   3.365   1.594   2.786 -0.7411 -2.6789 -1.7500
   23MOL   H10318627   3.118   1.559   2.714 -0.8993  2.1574 -0.5881
   23MOL   H10418628   3.178   1.568   2.550 -1.2928 -2.6301 -0.1050
   23MOL   H10518629   3.368   1.391   2.625 -0.1435  1.1110  0.7448
   23MOL   H10618630   3.271   1.367   2.771 -3.0383 -0.9834 -0.1241
   23MOL   H10718631   3.082   1.299   2.608  0.2872  0.2806  0.9418
   23MOL   H10818632   3.217   1.192   2.616 -0.4133 -0.2876 -0.9643
   23MOL   H10918633   3.306   1.332   2.401  0.2263 -1.9524 -2.0236
   23MOL   H11018634   3.155   1.405   2.412  0.5254  0.4152  1.1170
   23MOL   H11118635   3.123   1.107   2.395  2.4769 -1.2576 -2.2979
   23MOL   H11218636   3.032   1.227   2.313 -1.2570 -2.7568 -0.2534
   23MOL   H11318637   3.313   1.138   2.249 -0.6826  0.8994  2.0367
   23MOL   H11418638   3.233   1.260   2.155 -0.9342 -0.9475 -1.3075
   23MOL   H11518639   3.144   0.972   2.149  2.3015 -0.8622 -2.2088
   23MOL   H11618640   3.041   1.099   2.109 -1.0455 -3.0867  1.2173
   23MOL   H11718641   3.216   1.174   1.921 -0.2922  0.3098 -0.9161
   23MOL   H11818642   3.129   1.020   1.909  2.2401 -1.0816 -0.8024
   23MOL   H11918643   3.410   1.050   2.017 -0.3814  0.6335 -0.4202
   23MOL   H12018644   3.312   0.903   2.017 -0.1532 -0.9556 -1.2327
   23MOL   H12118645   3.332   0.891   1.779 -0.0512 -0.9069  0.6147
   23MOL   H12218646   3.376   1.061   1.759 -1.6054 -1.2939 -0.6744
   23MOL   H12318647   3.551   0.856   1.904  0.1453 -1.5578 -1.2933
   23MOL   H12418648   3.597   1.017   1.854 -2.4780  1.8398 -0.6086
   23MOL   H12518649   3.540   0.798   1.650  0.3400  0.1112 -1.8865
   23MOL   H12618650   3.580   0.951   1.605  3.9285 -0.6230 -1.5503
   23MOL   H12718651   3.699   0.854   1.697  0.3086  2.6348  1.0568
   23MOL   C12818652   3.241   1.766   2.774 -0.3737 -0.2964  0.3506
   23MOL   C12918653   3.181   1.725   2.912  0.3058  0.2208  0.1568
   23MOL   C13018654   3.251   1.800   3.027 -0.4408  0.7248  0.5239
   23MOL   C13118655   3.392   1.769   3.058  0.2192  0.3374  0.3455
   23MOL   C13218656   3.443   1.850   3.177  0.4136  0.1447 -0.1695
   23MOL   C13318657   3.598   1.856   3.171 -0.5220  0.5451  0.2419
   23MOL   C13418658   3.670   1.951   3.061 -0.4640  0.8724 -0.6735
   23MOL   C13518659   3.812   1.977   3.097  0.4022 -0.4210 -0.3961
   23MOL   C13618660   3.898   2.044   2.989 -0.1391 -0.6298  0.1653
   23MOL   C13718661   4.045   2.045   3.026  0.1721 -0.2503  0.3333
   23MOL   C13818662   4.123   2.142   2.930  0.5373 -0.0412 -0.5061
   23MOL   C13918663   4.269   2.168   2.966 -0.5531  0.0653 -0.0953
   23MOL   C14018664   4.360   2.057   2.904 -0.2050  0.5985  0.0147
   23MOL   C14118665   4.506   2.098   2.925  0.1604 -0.2417  0.6676
   23MOL   H14218666   3.310   1.849   2.785  0.6809 -1.0074 -0.7179
   23MOL   H14318667   3.157   1.797   2.712 -0.5224  0.4425  0.9173
   23MOL   H14418668   3.205   1.620   2.923  0.8157  0.3114 -0.0819
   23MOL   H14518669   3.244   1.908   3.021 -0.0149  0.6204 -2.4423
   23MOL   H14618670   3.197   1.782   3.120 -1.6599  0.3952 -0.2367
   23MOL   H14718671   3.407   1.662   3.072 -0.5604  0.1250 -0.4455
   23MOL   H14818672   3.453   1.802   2.974 -0.3148 -0.2491 -0.2709
   23MOL   H14918673   3.419   1.954   3.155 -2.6547 -0.2945  0.9311
   23MOL   H15018674   3.395   1.821   3.270 -0.1937 -1.5000 -0.9699
   23MOL   H15118675   3.629   1.899   3.266  2.3277 -0.4810 -0.1600
   23MOL   H15218676   3.636   1.754   3.160 -1.9076 -0.2004  2.2248
   23MOL   H15318677   3.663   1.902   2.964 -0.8129  0.0816 -0.2534
   23MOL   H15418678   3.614   2.045   3.060  0.2365  1.2966 -3.1388
   23MOL   H15518679   3.823   2.016   3.198  1.8027  0.0852 -0.7281
   23MOL   H15618680   3.848   1.875   3.111 -1.0021 -0.6553  1.6490
   23MOL   H15718681   3.870   1.992   2.898 -1.3428 -1.0487  0.7653
   23MOL   H15818682   3.860   2.144   2.969 -0.6989 -1.0190 -0.7032
   23MOL   H15918683   4.091   1.947   3.034  3.6646  1.1690 -1.6513
   23MOL   H16018684   4.037   2.097   3.122  0.9402  0.7751 -0.1501
   23MOL   H16118685   4.119   2.093   2.833 -1.3366  0.0982 -0.5283
   23MOL   H16218686   4.072   2.239   2.924 -2.4802 -1.6272 -1.7809
   23MOL   H16318687   4.292   2.262   2.916 -1.8257 -0.9230 -2.6685
   23MOL   H16418688   4.283   2.190   3.071 -0.9718 -0.5815  0.1054
   23MOL   H16518689   4.345   1.957   2.945 -0.1060  0.2599 -0.7768
   23MOL   H16618690   4.342   2.045   2.797  2.5664  0.0718 -0.4031
   23MOL   H16718691   4.561   2.079   3.017  0.6628  1.3261  0.7026
   23MOL   H16818692   4.565   2.047   2.848 -0.9397  1.4780 -1.3758
   23MOL   H16918693   4.519   2.206   2.912 -0.8836 -0.3884 -1.8312
   23MOL   C17018694   3.023   1.732   2.920  0.1355 -0.6352 -0.5285
   23MOL   C17118695   2.963   1.641   3.036  0.3763  0.0549  0.5692
   23MOL   C17218696   2.822   1.683   3.089 -0.1837 -0.4159 -0.3420
   23MOL   C17318697   2.824   1.791   3.202  0.2056 -0.2743 -0.0671
   23MOL   C17418698   2.689   1.857   3.225  0.9140  0.7250 -0.1491
   23MOL   C17518699   2.691   1.969   3.324 -0.0218  0.3688  0.1783
   23MOL   C17618700   2.719   2.104   3.268  0.4454  0.2556 -1.4871
   23MOL   C17718701   2.679   2.212   3.361 -0.2845 -0.6200  0.0969
   23MOL   C17818702   2.684   2.345   3.292 -0.3515 -0.3490  0.3076
   23MOL   C17918703   2.647   2.471   3.360 -0.0478  0.4489  0.0915
   23MOL   C18018704   2.499   2.477   3.382 -0.6652 -0.2915 -0.0876
   23MOL   C18118705   2.438   2.613   3.418 -0.3018 -0.0923  0.0936
   23MOL   C18218706   2.484   2.692   3.542 -0.1334  0.0898  0.0268
   23MOL   C18318707   2.433   2.837   3.535  0.1743 -0.0709 -0.5323
   23MOL   H18418708   2.981   1.708   2.822 -2.0405  1.9234 -0.2862
   23MOL   H18518709   2.996   1.836   2.939  3.2521 -0.1350  1.4535
   23MOL   H18618710   3.036   1.637   3.117 -0.3035 -2.2571  1.1249
   23MOL   H18718711   2.751   1.703   3.009  0.2150  0.4632 -0.4918
   23MOL   H18818712   2.776   1.601   3.143 -1.7561  0.3197 -0.5575
   23MOL   H18918713   2.856   1.749   3.297  2.5412 -1.3226 -1.2633
   23MOL   H19018714   2.908   1.853   3.168  0.5318 -1.1689 -0.9429
   23MOL   H19118715   2.654   1.884   3.126 -0.8404  0.2742  0.3374
   23MOL   H19218716   2.621   1.781   3.263  2.7790 -0.5581  0.6515
   23MOL   H19318717   2.766   1.958   3.402 -1.2226  1.0286  1.4439
   23MOL   H19418718   2.597   1.969   3.379 -0.2241 -2.7911 -0.0343
   23MOL   H19518719   2.660   2.128   3.179 -0.5384  2.0401 -0.3821
   23MOL   H19618720   2.825   2.113   3.243  1.0162 -3.4180 -0.6261
   23MOL   H19718721   2.738   2.216   3.452 -1.2401 -2.9872  0.8674
   23MOL   H19818722   2.576   2.201   3.396 -0.0265 -0.9922  0.7378
   23MOL   H19918723   2.616   2.343   3.207 -0.7846 -1.4651  0.6651
   23MOL   H20018724   2.781   2.357   3.243 -1.5774 -0.5834 -2.2601
   23MOL   H20118725   2.671   2.567   3.313 -2.4698  1.8617  1.6082
   23MOL   H20218726   2.701   2.475   3.454  1.0750  0.9714 -0.5616
   23MOL   H20318727   2.467   2.396   3.447  0.1410 -0.5701 -0.0334
   23MOL   H20418728   2.454   2.448   3.287 -0.2914  1.5950 -0.8819
   23MOL   H20518729   2.456   2.684   3.338  0.4297 -0.6013 -0.2015
   23MOL   H20618730   2.330   2.603   3.425 -0.5611  1.6097 -1.1371
   23MOL   H20718731   2.434   2.645   3.627 -1.3234  0.0010 -0.7209
   23MOL   H20818732   2.589   2.706   3.568 -0.7641  1.9301  1.7549
   23MOL   H20918733   2.325   2.825   3.531  0.3329 -1.6706 -0.2443
   23MOL   H21018734   2.471   2.894   3.450  1.7399  1.1943  0.9751
   23MOL   H21118735   2.471   2.892   3.622 -0.8529 -0.6591  0.2966
   23MOL   C21218736   2.960   1.490   2.988  0.2308 -0.4765 -0.0015
   23MOL   C21318737   2.973   1.379   3.096 -0.3337 -0.6889 -0.0820
   23MOL   C21418738   2.915   1.250   3.039 -0.1426 -0.0817  0.0099
   23MOL   C21518739   2.990   1.189   2.914 -1.0120  0.4392 -0.0715
   23MOL   C21618740   2.936   1.058   2.874 -0.3620 -0.1470 -0.5751
   23MOL   C21718741   2.968   1.011   2.734  0.6256  0.0310  0.5731
   23MOL   C21818742   2.908   0.879   2.680  0.3988 -0.3391  0.0685
   23MOL   C21918743   2.926   0.862   2.531 -0.1416 -0.6438  1.1791
   23MOL   C22018744   2.820   0.951   2.450  0.3976 -1.3169 -0.7313
   23MOL   C22118745   2.839   0.925   2.299 -0.4143 -0.0982  1.0775
   23MOL   C22218746   2.734   0.992   2.213  0.3333 -0.2475 -0.6995
   23MOL   C22318747   2.772   1.000   2.067  1.0665  1.0544  0.1084
   23MOL   C22418748   2.823   0.868   2.002  0.0057 -0.9349  0.2780
   23MOL   C22518749   2.832   0.868   1.847 -0.0246  0.1995  0.1774
   23MOL   H22618750   3.041   1.478   2.916 -0.9999  1.1055 -1.7136
   23MOL   H22718751   2.862   1.477   2.941 -1.6011  0.4508  3.3783
   23MOL   H22818752   2.913   1.408   3.182 -2.1924 -2.0842 -0.8800
   23MOL   H22918753   2.922   1.171   3.114 -0.5275  0.8150  0.9985
   23MOL   H23018754   2.813   1.262   3.004 -0.1215 -0.4150 -0.1744
   23MOL   H23118755   3.091   1.161   2.946 -1.3601 -1.6253 -0.7721
   23MOL   H23218756   2.991   1.261   2.833 -1.4588 -0.3013 -0.7341
   23MOL   H23318757   2.828   1.074   2.863 -0.3453 -0.1381 -0.7365
   23MOL   H23418758   2.944   0.984   2.954 -0.0452  1.6099  1.0567
   23MOL   H23518759   3.075   1.006   2.718  0.6706 -0.3552  0.9935
   23MOL   H23618760   2.930   1.094   2.674  1.4410 -0.9717 -1.3716
   23MOL   H23718761   2.946   0.793   2.734  1.9008  0.2202 -0.0818
   23MOL   H23818762   2.800   0.875   2.694  0.5717 -1.1542  1.2657
   23MOL   H23918763   3.030   0.880   2.503 -0.9110  1.9461 -0.2294
   23MOL   H24018764   2.912   0.761   2.493  1.8149 -0.8531  0.9789
   23MOL   H24118765   2.833   1.056   2.478 -1.9234 -2.1874  4.0818
   23MOL   H24218766   2.716   0.922   2.469 -0.3261  0.6257 -1.5101
   23MOL   H24318767   2.938   0.957   2.264 -0.5484  0.0772  0.8615
   23MOL   H24418768   2.855   0.819   2.276  0.5686 -0.2059  2.1969
   23MOL   H24518769   2.730   1.097   2.243 -1.4921 -0.6712  0.6379
   23MOL   H24618770   2.643   0.934   2.228  2.1162 -2.5907  1.4908
   23MOL   H24718771   2.841   1.083   2.053  1.9297  0.1140 -1.4229
   23MOL   H24818772   2.678   1.022   2.016  0.9979 -1.0911 -0.7414
   23MOL   H24918773   2.763   0.784   2.034 -0.4479 -1.0923 -0.9466
   23MOL   H25018774   2.927   0.862   2.034  0.2352 -0.5569 -0.3845
   23MOL   H25118775   2.732   0.895   1.815 -0.3564 -0.1091  0.9582
   23MOL   H25218776   2.909   0.942   1.823  0.5342  0.6519  3.1973
   23MOL   H25318777   2.875   0.773   1.817 -1.0831 -1.0482  2.5025
   23MOL   C25418778   3.116   1.368   3.147 -0.0710 -0.4706 -0.2437
   23MOL   C25518779   3.149   1.268   3.268 -0.0389  0.4222 -0.0751
   23MOL   C25618780   3.296   1.223   3.262 -1.0555  0.6513 -0.7443
   23MOL   C25718781   3.389   1.342   3.288 -0.2103  0.0554 -0.3962
   23MOL   C25818782   3.538   1.308   3.310  0.1017  0.4340 -0.4722
   23MOL   C25918783   3.621   1.440   3.312  0.2810  0.2142 -0.2679
   23MOL   C26018784   3.775   1.433   3.332  0.0750  0.4303  0.2550
   23MOL   C26118785   3.845   1.373   3.194  0.0470 -1.0044 -0.0096
   23MOL   C26218786   3.999   1.379   3.196  0.7076  0.1624  0.3408
   23MOL   C26318787   4.066   1.308   3.075 -0.2804 -0.2578  0.4616
   23MOL   C26418788   4.038   1.155   3.075 -0.0578 -0.1297 -0.3664
   23MOL   C26518789   4.133   1.074   2.991  0.0968  0.0744  0.1739
   23MOL   C26618790   4.099   0.926   2.975 -0.3491  0.3776 -0.5676
   23MOL   C26718791   3.985   0.898   2.884 -0.2427 -0.6092  0.4001
   23MOL   H26818792   3.142   1.463   3.194  1.2700 -2.1980  2.6794
   23MOL   H26918793   3.185   1.345   3.065  0.9966  1.3394  0.1072
   23MOL   H27018794   3.102   1.171   3.251  0.4444  0.3665 -1.0890
   23MOL   H27118795   3.309   1.160   3.174  2.2270  1.2493 -0.7360
   23MOL   H27218796   3.310   1.152   3.343 -4.0434  1.0348  0.1967
   23MOL   H27318797   3.347   1.403   3.368 -1.4708  0.1935 -1.1631
   23MOL   H27418798   3.387   1.408   3.201  0.3691 -0.8224 -1.0891
   23MOL   H27518799   3.577   1.230   3.245  1.0253 -0.0853  0.6940
   23MOL   H27618800   3.550   1.256   3.405 -2.1462  3.0758  1.3223
   23MOL   H27718801   3.580   1.497   3.396 -0.6983  1.0277 -1.2755
   23MOL   H27818802   3.609   1.501   3.222  2.4571  0.3893 -0.4558
   23MOL   H27918803   3.809   1.534   3.353 -1.7953  1.0879  0.1267
   23MOL   H28018804   3.809   1.382   3.423  2.1273  1.8779  0.3356
   23MOL   H28118805   3.818   1.430   3.105  0.9960  0.4613  0.6378
   23MOL   H28218806   3.815   1.271   3.170 -2.6722 -0.1396 -0.4163
   23MOL   H28318807   4.018   1.486   3.187 -1.5482  0.6102  0.6011
   23MOL   H28418808   4.043   1.336   3.286 -1.0763 -2.4317  0.0496
   23MOL   H28518809   4.174   1.325   3.073 -0.4808  1.1624 -3.0579
   23MOL   H28618810   4.034   1.347   2.978 -0.2382 -0.6138  0.3033
   23MOL   H28718811   3.935   1.134   3.047 -0.4642 -1.1008  1.7861
   23MOL   H28818812   4.041   1.110   3.174 -2.9354 -2.9615 -1.4767
   23MOL   H28918813   4.150   1.121   2.894 -0.0515  0.0019  0.1129
   23MOL   H29018814   4.229   1.066   3.043 -1.2793 -2.5159  2.4240
   23MOL   H29118815   4.188   0.871   2.945  1.1733  1.8127  1.2321
   23MOL   H29218816   4.070   0.899   3.076  0.6628  1.6116  0.0692
   23MOL   H29318817   3.898   0.960   2.910  0.4777  0.5848  0.0139
   23MOL   H29418818   3.959   0.793   2.889 -1.3007 -0.3040  1.8369
   23MOL   H29518819   4.010   0.924   2.781 -1.1612  0.2441  0.3810
   23MOL   C29618820   3.114   1.323   3.416 -0.3004  0.0520 -0.1229
   23MOL   C29718821   2.967   1.278   3.448 -0.3723  0.0714 -0.2205
   23MOL   C29818822   2.970   1.135   3.502  0.6993 -0.2738 -0.1844
   23MOL   C29918823   2.839   1.054   3.516  0.1461  0.2518  0.4141
   23MOL   C30018824   2.863   0.900   3.528 -0.7734 -0.6518 -0.3530
   23MOL   C30118825   2.910   0.854   3.664  0.3950  0.5700 -0.8090
   23MOL   C30218826   2.938   0.702   3.675 -0.3458  0.1248 -0.1625
   23MOL   C30318827   2.993   0.665   3.817 -0.2872 -0.3972  0.3123
   23MOL   C30418828   3.052   0.520   3.827 -0.0758 -0.8561  0.6888
   23MOL   C30518829   3.140   0.497   3.955  0.2821  0.5415  0.2454
   23MOL   C30618830   3.225   0.370   3.936 -1.3011 -0.2115  0.1180
   23MOL   C30718831   3.150   0.235   3.945  0.8724  0.0380  0.2844
   23MOL   C30818832   3.251   0.117   3.946 -0.0039  0.1472  0.3107
   23MOL   C30918833   3.164   7.684   3.972 -0.0149  0.2250 -0.8655
   23MOL   H31018834   3.126   1.430   3.401  0.4540 -0.1755 -1.2295
   23MOL   H31118835   3.184   1.279   3.487 -1.3022 -1.7349 -0.1920
   23MOL   H31218836   2.912   1.259   3.356 -0.4105 -0.0169 -0.1798
   23MOL   H31318837   3.004   1.154   3.604 -2.4179 -0.1444  0.8661
   23MOL   H31418838   3.058   1.079   3.469  0.0422 -0.8688 -0.9472
   23MOL   H31518839   2.776   1.081   3.432  0.0760 -1.9811 -0.2817
   23MOL   H31618840   2.784   1.081   3.606 -1.3563 -0.8577 -0.1667
   23MOL   H31718841   2.778   0.839   3.496 -0.4078 -0.0037 -2.7182
   23MOL   H31818842   2.937   0.870   3.454 -1.2302  1.9590 -1.9266
   23MOL   H31918843   2.834   0.884   3.737  0.9870 -0.1249  0.0958
   23MOL   H32018844   2.998   0.910   3.694 -0.3796  2.2082 -1.5183
   23MOL   H32118845   2.846   0.649   3.648 -0.1918 -0.7358  0.9663
   23MOL   H32218846   3.003   0.675   3.592  0.2185 -4.2926  1.5726
   23MOL   H32318847   2.909   0.680   3.885 -1.0648 -1.1449 -0.4782
   23MOL   H32418848   3.071   0.734   3.848 -2.1897  2.0295 -0.1847
   23MOL   H32518849   2.976   0.443   3.829 -1.0416 -0.0268 -2.5951
   23MOL   H32618850   3.113   0.500   3.739  0.7333 -0.9007  1.2524
   23MOL   H32718851   3.077   0.496   4.044  0.8279  2.5680  0.6932
   23MOL   H32818852   3.209   0.579   3.973  1.8661 -0.7508  0.1189
   23MOL   H32918853   3.297   0.369   4.018 -2.0062 -0.8503  0.7388
   23MOL   H33018854   3.288   0.378   3.847  0.9867 -1.9196  1.5214
   23MOL   H33118855   3.086   0.217   3.859 -0.8209  0.3097  1.4806
   23MOL   H33218856   3.079   0.234   4.027  0.4471  1.8113 -0.0501
   23MOL   H33318857   3.328   0.137   4.021  0.7930 -0.3451 -0.3795
   23MOL   H33418858   3.300   0.121   3.849  0.4245 -0.8723  0.4846
   23MOL   H33518859   3.221   7.599   4.009  0.2441  0.5880 -0.4253
   23MOL   H33618860   3.078   0.006   4.036  0.1620 -0.6915 -0.3639
   23MOL   H33718861   3.127   7.647   3.877 -1.0963  1.0870 -0.7872
   23MOL   C33818862   2.896   1.377   3.536 -0.8729  0.7938  0.0801
   23MOL   C33918863   2.828   1.494   3.464  0.5523 -0.4257 -0.0496
   23MOL   C34018864   2.693   1.458   3.398 -0.4009  0.1687  0.2825
   23MOL   C34118865   2.598   1.382   3.493  0.5470  0.1275 -0.8550
   23MOL   C34218866   2.458   1.354   3.436 -0.2059  0.4614 -0.5475
   23MOL   C34318867   2.388   1.476   3.379  0.0181 -0.3814 -0.5499
   23MOL   C34418868   2.241   1.469   3.342  0.5094  0.5275  0.7515
   23MOL   C34518869   2.195   1.580   3.247 -0.8613  0.5056  0.1271
   23MOL   C34618870   2.047   1.608   3.259 -0.0799 -0.3494  0.4187
   23MOL   C34718871   2.004   1.744   3.187 -0.0157  1.5086 -0.3268
   23MOL   C34818872   1.978   1.864   3.287  0.2977  0.1574 -0.1627
   23MOL   C34918873   1.926   1.990   3.220  0.4716  1.0846 -0.0883
   23MOL   C35018874   1.801   1.980   3.139  0.7993  0.2111  0.3323
   23MOL   C35118875   1.672   1.914   3.200 -0.1655  0.3740 -0.0286
   23MOL   H35218876   2.821   1.328   3.597 -0.8840 -0.6983 -1.1111
   23MOL   H35318877   2.966   1.408   3.613 -1.3668 -0.5713  1.0839
   23MOL   H35418878   2.901   1.529   3.391  0.6481 -2.2389 -0.8626
   23MOL   H35518879   2.647   1.553   3.371 -3.1394 -0.2492  3.2384
   23MOL   H35618880   2.715   1.405   3.305 -0.4168  0.9124 -0.1507
   23MOL   H35718881   2.583   1.432   3.589  0.0011 -1.9413  0.1544
   23MOL   H35818882   2.641   1.284   3.508  1.0729  0.6176  0.8879
   23MOL   H35918883   2.392   1.310   3.511  0.3068 -0.2832 -0.5315
   23MOL   H36018884   2.466   1.286   3.351  1.5897 -0.1067  0.0560
   23MOL   H36118885   2.411   1.571   3.427 -0.8062  1.5642 -3.8003
   23MOL   H36218886   2.448   1.503   3.292  2.5930  0.8475  1.5523
   23MOL   H36318887   2.220   1.371   3.300 -3.4876  2.6139 -2.5043
   23MOL   H36418888   2.178   1.470   3.431 -0.1063  0.1088  0.3198
   23MOL   H36518889   2.243   1.668   3.289  0.1652 -0.1146  0.2542
   23MOL   H36618890   2.207   1.549   3.144 -4.4550  1.9391 -0.7847
   23MOL   H36718891   2.012   1.520   3.205 -1.9486 -0.6186  1.9812
   23MOL   H36818892   2.012   1.602   3.362  0.6126  1.6655  0.8053
   23MOL   H36918893   2.081   1.772   3.115  0.5396 -1.7402 -1.0622
   23MOL   H37018894   1.906   1.715   3.147  0.3833 -2.7301  1.4951
   23MOL   H37118895   2.072   1.883   3.339  0.6762 -1.1519 -0.3518
   23MOL   H37218896   1.916   1.815   3.362  2.3979 -1.5517  0.5104
   23MOL   H37318897   2.001   2.032   3.153 -0.5677  1.0510 -1.2754
   23MOL   H37418898   1.908   2.064   3.299 -0.3140  0.6978  0.1014
   23MOL   H37518899   1.775   2.081   3.108  1.6239 -0.7691 -3.8753
   23MOL   H37618900   1.822   1.921   3.049 -0.9239 -0.8862  0.6167
   23MOL   H37718901   1.575   1.955   3.170 -0.3072  1.0400  1.2951
   23MOL   H37818902   1.674   1.806   3.195  0.9727  0.4162 -0.7380
   23MOL   H37918903   1.679   1.939   3.306  1.6941 -0.6222  0.1060
   23MOL   C38018904   2.809   1.608   3.576  0.2251  0.9015  0.1632
   23MOL   C38118905   2.931   1.676   3.652  0.5462  0.1936  0.0757
   23MOL   C38218906   2.979   1.796   3.563  0.1855  0.2414 -0.2940
   23MOL   C38318907   3.116   1.845   3.593  0.3765  0.6609  0.0322
   23MOL   C38418908   3.230   1.744   3.564 -0.7467 -1.0953 -0.2456
   23MOL   C38518909   3.353   1.823   3.608  0.0140 -0.1349 -0.1508
   23MOL   C38618910   3.458   1.716   3.632  0.0213 -0.4807 -0.4906
   23MOL   C38718911   3.593   1.769   3.659  0.3995  0.1474 -0.2128
   23MOL   C38818912   3.667   1.839   3.544  0.0304 -0.0404  0.4107
   23MOL   C38918913   3.803   1.906   3.595  0.2791 -0.1024  0.0527
   23MOL   C39018914   3.878   1.975   3.482  0.6003  0.6606 -0.4876
   23MOL   C39118915   3.992   2.048   3.539  0.2459  0.4744 -0.4048
   23MOL   C39218916   4.077   2.123   3.428  0.8208 -0.1230 -0.5829
   23MOL   C39318917   4.215   2.180   3.473  0.1321  0.2278  0.2980
   23MOL   H39418918   2.745   1.567   3.654 -0.9170 -0.2632 -1.3437
   23MOL   H39518919   2.745   1.691   3.544 -1.8584  0.3662  2.8022
   23MOL   H39618920   3.012   1.605   3.668  0.2048 -0.0009  0.9867
   23MOL   H39718921   2.918   1.887   3.571  1.4159  1.0105  0.5260
   23MOL   H39818922   2.983   1.768   3.458 -1.9001  1.9318 -0.8809
   23MOL   H39918923   3.118   1.883   3.695 -1.0575  0.9449 -0.0327
   23MOL   H40018924   3.130   1.927   3.524  2.8389  0.4115  0.1945
   23MOL   H40118925   3.233   1.712   3.460  0.1346  0.2823 -0.6557
   23MOL   H40218926   3.222   1.655   3.626 -0.9475 -0.3651  0.7886
   23MOL   H40318927   3.343   1.881   3.700  0.5827 -2.6114  1.5279
   23MOL   H40418928   3.378   1.897   3.532  0.2470 -0.5462 -0.4751
   23MOL   H40518929   3.433   1.653   3.717  1.9552  0.3818  0.7708
   23MOL   H40618930   3.461   1.645   3.550 -4.2637 -0.9419 -0.3867
   23MOL   H40718931   3.590   1.834   3.747 -2.7398  0.0188 -0.1904
   23MOL   H40818932   3.647   1.680   3.693  2.0435  0.8148 -0.9899
   23MOL   H40918933   3.697   1.763   3.473 -1.3785  1.0760 -1.4076
   23MOL   H41018934   3.605   1.905   3.484 -0.5530 -3.1976 -2.5795
   23MOL   H41118935   3.873   1.835   3.637  1.8737 -0.5669 -3.2096
   23MOL   H41218936   3.776   1.976   3.674  0.7396  1.2367 -0.9526
   23MOL   H41318937   3.920   1.909   3.406 -0.2250  3.7027 -3.7449
   23MOL   H41418938   3.827   2.053   3.425  0.8122  0.2889 -1.1970
   23MOL   H41518939   4.061   1.985   3.594 -0.5325  0.8844  1.0507
   23MOL   H41618940   3.966   2.117   3.619 -3.5995  0.2755 -1.4039
   23MOL   H41718941   4.090   2.065   3.336 -0.7344 -1.1992 -0.1417
   23MOL   H41818942   4.013   2.204   3.392  0.3863 -0.7066 -1.1236
   23MOL   H41918943   4.282   2.105   3.515 -1.8289 -2.0702 -0.5310
   23MOL   H42018944   4.200   2.252   3.554 -0.6880 -1.5278  1.7526
   23MOL   H42118945   4.272   2.225   3.392  1.9874 -0.2413  1.3234
   23MOL   C42218946   2.894   1.731   3.788 -0.6785 -0.4649 -0.2532
   23MOL   C42318947   2.969   1.676   3.916  0.2359 -0.2258  0.5780
   23MOL   C42418948   2.964   1.784   4.031  0.1191 -0.3867  0.2746
   23MOL   C42518949   3.054   1.903   4.013  0.4448 -0.2134  0.4547
   23MOL   C42618950   3.045   1.996   4.139 -0.0753 -0.7738 -0.0923
   23MOL   C42718951   3.130   2.127   4.131 -0.3185 -0.5219 -0.0425
   23MOL   C42818952   3.120   2.213   4.264  0.6020 -0.4842  0.3305
   23MOL   C42918953   3.214   2.175   4.382 -0.4449 -0.8680 -0.4427
   23MOL   C43018954   3.179   2.219   4.522 -0.5480 -0.4160 -0.2630
   23MOL   C43118955   3.290   2.191   4.625 -0.4143 -0.7675  0.6546
   23MOL   C43218956   3.327   2.046   4.646 -0.6458  0.3669 -0.6329
   23MOL   C43318957   3.447   2.034   4.750 -0.1423  0.6662  0.2909
   23MOL   C43418958   3.509   1.896   4.763  0.3230  0.0795  0.2374
   23MOL   C43518959   3.619   1.892   4.873  0.4235 -0.1426  0.3751
   23MOL   H43618960   2.788   1.724   3.813 -0.2310  0.2864  1.9067
   23MOL   H43718961   2.904   1.839   3.792 -0.1848 -0.5706  1.2723
   23MOL   H43818962   3.072   1.676   3.881  0.0072  0.4605 -0.1071
   23MOL   H43918963   2.992   1.737   4.125 -0.4964 -0.1930  0.5590
   23MOL   H44018964   2.857   1.801   4.046  0.2272 -0.1624  0.7836
   23MOL   H44118965   3.155   1.875   3.985  1.1223  1.8959  0.6775
   23MOL   H44218966   3.034   1.961   3.922  0.4797 -0.0780  0.5329
   23MOL   H44318967   3.076   1.940   4.227 -2.8157 -0.8703  0.8537
   23MOL   H44418968   2.944   2.028   4.165 -0.3356 -1.2632 -0.4816
   23MOL   H44518969   3.104   2.192   4.048 -1.2566  1.1235  1.5099
   23MOL   H44618970   3.237   2.108   4.124  0.1067  0.6551  2.6261
   23MOL   H44718971   3.142   2.318   4.250 -1.9331 -0.0538 -0.6332
   23MOL   H44818972   3.019   2.197   4.303  0.9386 -1.6412  0.7515
   23MOL   H44918973   3.211   2.066   4.387 -0.9950 -0.8238  0.2646
   23MOL   H45018974   3.315   2.203   4.352  0.7345 -1.6591  2.5401
   23MOL   H45118975   3.152   2.324   4.517  1.5706  0.1899  0.3058
   23MOL   H45218976   3.085   2.175   4.556 -1.0434 -0.2262 -1.3639
   23MOL   H45318977   3.379   2.242   4.586 -1.0727  0.2907  0.5054
   23MOL   H45418978   3.273   2.238   4.721 -0.4612  0.6878 -0.0462
   23MOL   H45518979   3.236   1.992   4.672 -1.6574  1.2633 -2.2756
   23MOL   H45618980   3.358   2.002   4.551 -1.4669  1.6163 -1.4906
   23MOL   H45718981   3.400   2.047   4.848  0.0949 -0.3925  0.5565
   23MOL   H45818982   3.527   2.107   4.738  1.2182 -0.9053 -0.4878
   23MOL   H45918983   3.426   1.829   4.783  1.4967 -0.9155  1.8591
   23MOL   H46018984   3.552   1.869   4.667 -2.7920 -1.6083 -0.7634
   23MOL   H46118985   3.704   1.959   4.860 -0.4976  1.7700  3.6809
   23MOL   H46218986   3.662   1.793   4.888  0.8942  0.2665  1.8315
   23MOL   H46318987   3.576   1.914   4.971 -0.6167 -4.1865  0.9420
   23MOL   C46418988   2.922   1.533   3.961  0.8534 -0.1556  0.1437
   23MOL   C46518989   3.030   1.450   4.019 -0.9257  1.0074  0.3817
   23MOL   C46618990   2.967   1.330   4.099  0.1770  0.1659 -0.1819
   23MOL   C46718991   2.910   1.370   4.241 -0.3955  0.4200  0.0210
   23MOL   C46818992   2.845   1.256   4.325  0.4392  0.1576 -0.2714
   23MOL   C46918993   2.715   1.203   4.264 -0.2665  0.3532 -0.4229
   23MOL   C47018994   2.653   1.110   4.366  0.3989  0.0217  0.0917
   23MOL   C47118995   2.545   1.017   4.308  0.3065 -0.8012 -0.1880
   23MOL   C47218996   2.429   1.096   4.254 -0.3070 -0.0152 -0.2283
   23MOL   C47318997   2.333   1.000   4.171 -0.5545  1.0936  0.1292
   23MOL   C47418998   2.217   1.069   4.101 -0.0670 -0.3867 -0.6604
   23MOL   C47518999   2.122   0.977   4.025 -0.1615  0.0506  0.1204
   23MOL   C47619000   2.035   1.047   3.915  0.5285 -1.0084  0.0608
   23MOL   C47719001   1.927   0.957   3.860  0.6310 -0.4404  0.1476
   23MOL   H47819002   2.889   1.481   3.871 -0.0228 -1.3737  1.1401
   23MOL   H47919003   2.839   1.552   4.030  2.2975  0.3688  1.7752
   23MOL   H48019004   3.074   1.522   4.088 -1.5876 -0.1484  2.0635
   23MOL   H48119005   2.892   1.287   4.032  0.8302 -0.2234 -0.6649
   23MOL   H48219006   3.042   1.253   4.118  0.2410  0.4580  0.7427
   23MOL   H48319007   2.847   1.459   4.238  0.3818  0.9518 -0.6688
   23MOL   H48419008   2.999   1.409   4.290  0.3436 -2.0085  0.7098
   23MOL   H48519009   2.818   1.308   4.417  2.3213  3.3545 -1.4473
   23MOL   H48619010   2.910   1.170   4.344 -1.8799 -1.3241  1.2952
   23MOL   H48719011   2.648   1.286   4.241 -1.7660  0.0792  2.7829
   23MOL   H48819012   2.745   1.148   4.175 -1.9705  2.6612 -2.5242
   23MOL   H48919013   2.729   1.044   4.408  0.4380  0.0518  0.0688
   23MOL   H49019014   2.621   1.165   4.455 -0.1522  0.0205 -0.1015
   23MOL   H49119015   2.600   0.965   4.229  1.2422  1.0387 -0.7905
   23MOL   H49219016   2.524   0.937   4.379 -1.7691 -0.5518 -0.4999
   23MOL   H49319017   2.381   1.142   4.340 -2.4684 -0.1925 -1.2976
   23MOL   H49419018   2.465   1.180   4.195 -0.7601  1.3383  1.3782
   23MOL   H49519019   2.394   0.948   4.097 -0.3883  0.8848  0.4138
   23MOL   H49619020   2.296   0.930   4.246 -0.5850  1.2168  0.2298
   23MOL   H49719021   2.160   1.132   4.168  1.1639  0.3394 -0.2917
   23MOL   H49819022   2.268   1.132   4.028  0.5525  0.5666  0.5865
   23MOL   H49919023   2.059   0.922   4.095  0.1971 -0.1614  0.2779
   23MOL   H50019024   2.178   0.899   3.974  0.9943  0.5356  0.6492
   23MOL   H50119025   1.991   1.142   3.947  2.4180 -0.9097  2.5229
   23MOL   H50219026   2.110   1.080   3.844  1.3466  1.2699  1.9105
   23MOL   H50319027   1.978   0.876   3.807  1.0350  0.4561 -0.8733
   23MOL   H50419028   1.854   0.910   3.925  0.6521 -1.1384 -0.3339
   23MOL   H50519029   1.877   1.020   3.786  2.6588  0.8389 -0.1788
   23MOL   C50619030   3.132   1.403   3.917  1.1320 -0.2774  0.5162
   23MOL   C50719031   3.266   1.344   3.955  0.3540 -0.6547 -0.7830
   23MOL   C50819032   3.343   1.269   3.841 -0.3293 -0.2056  0.0894
   23MOL   C50919033   3.280   1.148   3.776  0.7651  0.1094  0.5033
   23MOL   C51019034   3.375   1.069   3.681  0.3590 -0.7081 -0.6762
   23MOL   C51119035   3.311   0.929   3.661  0.1598  0.4496 -0.3092
   23MOL   C51219036   3.403   0.831   3.585 -0.8103 -0.2693 -0.1473
   23MOL   C51319037   3.333   0.701   3.541 -0.2983  0.3356 -0.3941
   23MOL   C51419038   3.436   0.603   3.472  0.8000  0.1377  0.4546
   23MOL   C51519039   3.544   0.546   3.560 -0.5999  0.4578 -0.2194
   23MOL   C51619040   3.513   0.465   3.686 -0.4633  0.8888  0.0055
   23MOL   C51719041   3.633   0.426   3.783  0.2752 -0.3604 -0.2217
   23MOL   C51819042   3.584   0.328   3.895  0.1354 -0.3654  0.2053
   23MOL   C51919043   3.692   0.278   3.993 -0.1890  0.4790 -0.3937
   23MOL   H52019044   3.155   1.487   3.852 -0.0540  1.4049  2.2155
   23MOL   H52119045   3.076   1.331   3.857  0.0275  0.1658  1.0006
   23MOL   H52219046   3.252   1.265   4.028  0.3527 -1.3109 -1.4780
   23MOL   H52319047   3.384   1.336   3.765 -0.4830 -0.1532  0.0529
   23MOL   H52419048   3.440   1.239   3.881 -0.5607 -0.1418  0.7043
   23MOL   H52519049   3.266   1.078   3.858 -0.6308 -1.4404 -1.0181
   23MOL   H52619050   3.186   1.175   3.729  0.9738 -2.6736 -1.6079
   23MOL   H52719051   3.470   1.068   3.734 -1.2830 -1.4399  2.3725
   23MOL   H52819052   3.369   1.127   3.589 -1.2427  0.3254  0.0545
   23MOL   H52919053   3.214   0.939   3.612 -0.7883  2.4893  1.8533
   23MOL   H53019054   3.290   0.893   3.762  0.6745  2.7467  0.6484
   23MOL   H53119055   3.435   0.883   3.495 -0.3983 -1.5746 -0.7740
   23MOL   H53219056   3.490   0.798   3.642 -0.6561 -1.3253 -0.9695
   23MOL   H53319057   3.246   0.733   3.483 -1.4201 -0.5451  0.8051
   23MOL   H53419058   3.285   0.653   3.626  0.0582  0.2323 -0.2501
   23MOL   H53519059   3.476   0.657   3.386 -1.0537 -0.2968 -0.7239
   23MOL   H53619060   3.386   0.515   3.430  4.0055 -0.6147 -1.9852
   23MOL   H53719061   3.601   0.481   3.493 -0.6095 -0.1728  0.3759
   23MOL   H53819062   3.616   0.625   3.582 -2.2324  1.4209  1.8240
   23MOL   H53919063   3.435   0.520   3.738  1.3115  3.6317 -0.1043
   23MOL   H54019064   3.460   0.374   3.660 -0.1458  1.1043 -1.4758
   23MOL   H54119065   3.690   0.509   3.826  2.6167 -1.6407 -0.7973
   23MOL   H54219066   3.703   0.369   3.722  1.9437  0.1232  1.2156
   23MOL   H54319067   3.532   0.243   3.851 -0.2753  1.0365 -2.0624
   23MOL   H54419068   3.511   0.389   3.949  0.4841  0.4950 -0.2856
   23MOL   H54519069   3.732   0.362   4.049 -3.5338  0.6134  1.9726
   23MOL   H54619070   3.659   0.203   4.065 -0.6903  0.1356 -0.9710
   23MOL   H54719071   3.767   0.216   3.944 -2.3653 -2.7007  0.1273
   23MOL   C54819072   3.355   1.455   4.028  0.1063  0.4920 -0.3382
   23MOL   C54919073   3.486   1.401   4.099  0.2768 -0.9479 -0.2270
   23MOL   C55019074   3.582   1.508   4.145 -0.2093 -0.0626  0.0150
   23MOL   C55119075   3.635   1.594   4.036 -0.3137 -0.4437 -0.3703
   23MOL   C55219076   3.737   1.704   4.095  0.3908 -0.1257 -0.5246
   23MOL   C55319077   3.804   1.784   3.990 -0.2530  0.2760  0.3414
   23MOL   C55419078   3.930   1.854   4.047  0.5873  0.4201 -0.4262
   23MOL   C55519079   4.015   1.952   3.960  0.0710  0.7727 -0.4978
   23MOL   C55619080   4.154   1.973   4.030 -0.1081  0.5265  0.4073
   23MOL   C55719081   4.242   2.073   3.963 -0.2262  0.3944 -0.3357
   23MOL   C55819082   4.306   2.042   3.827  0.3301  0.4620 -0.1566
   23MOL   C55919083   4.421   1.949   3.849 -0.1250  0.0289 -0.0323
   23MOL   C56019084   4.473   1.887   3.717  0.2262  0.6325  0.7026
   23MOL   C56119085   4.555   1.985   3.633 -0.1476 -0.0407  0.0941
   23MOL   H56219086   3.381   1.531   3.955  2.2326 -0.1246 -0.2456
   23MOL   H56319087   3.291   1.514   4.094 -0.0148  0.0394 -0.0500
   23MOL   H56419088   3.541   1.345   4.022 -0.3254 -1.0736 -0.5677
   23MOL   H56519089   3.526   1.579   4.205  0.6529 -1.1917  2.2185
   23MOL   H56619090   3.662   1.463   4.204 -0.8516 -2.1824 -0.6809
   23MOL   H56719091   3.560   1.661   3.994  0.1347 -0.4151 -1.1359
   23MOL   H56819092   3.675   1.537   3.952  1.1071 -1.5169  1.0206
   23MOL   H56919093   3.682   1.751   4.176  0.2124 -1.7787  0.3423
   23MOL   H57019094   3.813   1.647   4.147 -1.3703 -3.4921 -1.4912
   23MOL   H57119095   3.729   1.852   3.950  1.4773  0.7318 -2.2216
   23MOL   H57219096   3.833   1.727   3.902 -1.4512  1.1494 -0.6348
   23MOL   H57319097   3.887   1.904   4.134 -2.0171 -0.1078 -1.3659
   23MOL   H57419098   3.996   1.782   4.094 -0.1324 -0.9221 -1.4413
   23MOL   H57519099   3.966   2.047   3.940  1.7390  1.5953 -0.7046
   23MOL   H57619100   4.029   1.899   3.866  3.5751  2.0605 -0.7471
   23MOL   H57719101   4.210   1.882   4.050  0.5057  0.5421 -1.1442
   23MOL   H57819102   4.137   2.024   4.125 -1.6354  2.2686 -0.7472
   23MOL   H57919103   4.176   2.158   3.945 -3.3238 -1.3536  2.3639
   23MOL   H58019104   4.320   2.090   4.037  1.3783 -2.5001 -1.2508
   23MOL   H58119105   4.330   2.135   3.776 -0.5347  0.8761  0.1904
   23MOL   H58219106   4.236   1.983   3.768 -0.3618 -0.6842  1.7519
   23MOL   H58319107   4.500   2.005   3.899 -1.1895  0.7689  0.8665
   23MOL   H58419108   4.398   1.865   3.915  0.5986 -0.5554 -0.5176
   23MOL   H58519109   4.540   1.807   3.747  0.3722  0.5203  0.0712
   23MOL   H58619110   4.406   1.820   3.663  1.2509  1.0632 -1.1563
   23MOL   H58719111   4.655   2.009   3.669 -0.8599 -0.1628  2.2536
   23MOL   H58819112   4.564   1.937   3.536  2.8033  0.4728  0.0644
   23MOL   H58919113   4.500   2.078   3.624  1.9766  1.2627  0.2176
   23MOL   C59019114   3.472   1.299   4.209  0.4148  0.6152 -0.6272
   23MOL   C59119115   3.436   1.340   4.352 -0.3366 -0.0201 -0.3700
   23MOL   C59219116   3.284   1.358   4.361 -0.2292 -0.2993 -0.2227
   23MOL   C59319117   3.242   1.456   4.475 -0.2373  0.0612  0.3900
   23MOL   C59419118   3.280   1.601   4.444 -0.4505 -0.7476 -0.4266
   23MOL   C59519119   3.213   1.713   4.521 -0.0141  0.2286 -0.2705
   23MOL   C59619120   3.063   1.735   4.493  0.3630 -0.2114 -0.1059
   23MOL   C59719121   3.002   1.852   4.585 -0.3616  0.0231  0.2500
   23MOL   C59819122   2.847   1.863   4.560  0.2961  0.0533  0.4543
   23MOL   C59919123   2.807   1.943   4.430 -0.6848  0.2754 -0.4723
   23MOL   C60019124   2.660   1.959   4.411 -1.1973 -0.0261 -0.0181
   23MOL   C60119125   2.621   2.048   4.290 -0.8649  0.2255  0.3169
   23MOL   C60219126   2.656   2.193   4.311 -0.3680 -0.0033 -0.1217
   23MOL   C60319127   2.590   2.287   4.208 -0.2657  0.8579  0.0373
   23MOL   H60419128   3.569   1.249   4.215  0.2977  0.4722  0.2161
   23MOL   H60519129   3.421   1.215   4.160  1.6808 -1.2189  1.1032
   23MOL   H60619130   3.467   1.440   4.382 -3.5325  0.9424 -0.0392
   23MOL   H60719131   3.236   1.261   4.368  1.6910 -1.2424  0.4770
   23MOL   H60819132   3.246   1.404   4.270 -2.4437 -2.0405 -0.2053
   23MOL   H60919133   3.303   1.425   4.560  1.9357 -2.3521 -1.9678
   23MOL   H61019134   3.137   1.437   4.498 -0.3478  0.3202  0.1018
   23MOL   H61119135   3.262   1.617   4.338 -0.7766  0.3914 -0.2071
   23MOL   H61219136   3.387   1.616   4.459 -0.5022 -0.0123 -0.7290
   23MOL   H61319137   3.265   1.805   4.494 -0.0784  0.0873 -0.8628
   23MOL   H61419138   3.241   1.705   4.626  2.2528 -1.3658 -0.9679
   23MOL   H61519139   3.057   1.766   4.388  1.7141 -1.6492 -0.6116
   23MOL   H61619140   3.006   1.643   4.492  0.7177 -0.4922  3.1022
   23MOL   H61719141   3.030   1.837   4.689 -0.5726  3.3912  0.8399
   23MOL   H61819142   3.055   1.944   4.562 -1.7944  0.9077  0.4378
   23MOL   H61919143   2.796   1.767   4.555  0.7198 -0.0977 -1.5943
   23MOL   H62019144   2.804   1.913   4.646 -0.4301 -1.1120  0.7909
   23MOL   H62119145   2.861   2.036   4.442  0.0970 -0.2386  0.0561
   23MOL   H62219146   2.846   1.896   4.340  0.4047  1.4486 -0.6160
   23MOL   H62319147   2.603   1.984   4.500 -0.8589  0.5825  0.0284
   23MOL   H62419148   2.618   1.860   4.390 -1.5499 -0.2222  1.5972
   23MOL   H62519149   2.515   2.035   4.265 -0.0618 -0.9299 -2.6619
   23MOL   H62619150   2.674   2.017   4.201  1.3275 -0.8234  1.9407
   23MOL   H62719151   2.616   2.221   4.408 -0.0067  0.5487 -0.1341
   23MOL   H62819152   2.763   2.213   4.315 -0.3773 -0.1822  1.0203
   23MOL   H62919153   2.487   2.257   4.193  0.0196  0.0708 -0.4074
   23MOL   H63019154   2.647   2.279   4.116  1.0723  1.9467  0.7499
   23MOL   H63119155   2.599   2.390   4.242 -3.0230  1.1068  0.0743
   23MOL   C63219156   3.486   1.236   4.458  0.4034  0.4265 -0.3535
   23MOL   C63319157   3.611   1.279   4.526 -0.1237  0.4202 -0.0484
   23MOL   C63419158   3.585   1.374   4.640  0.5502  0.0984 -0.0151
   23MOL   C63519159   3.683   1.496   4.674 -0.0892  0.1030 -0.0379
   23MOL   C63619160   3.688   1.599   4.565 -0.3445  0.0259 -0.1282
   23MOL   C63719161   3.803   1.700   4.585 -0.6527 -0.1191 -0.3155
   23MOL   C63819162   3.799   1.814   4.483 -0.2470 -0.0691  0.3475
   23MOL   C63919163   3.922   1.910   4.506 -0.0378  0.1113  0.7728
   23MOL   C64019164   3.924   2.044   4.424 -0.4068 -0.3924  0.1434
   23MOL   C64119165   4.050   2.132   4.443  0.5851 -0.1143  0.2501
   23MOL   C64219166   4.060   2.248   4.339  0.1600  0.1273  0.7122
   23MOL   C64319167   3.957   2.363   4.346 -0.9167 -0.0302  0.0188
   23MOL   C64419168   3.989   2.484   4.261  0.5012 -0.1087 -0.0788
   23MOL   C64519169   4.096   2.582   4.321 -0.0288  0.0589 -0.5277
   23MOL   H64619170   3.497   1.135   4.419  0.2824 -0.2929  1.4543
   23MOL   H64719171   3.414   1.215   4.537 -0.3082  2.8311 -0.3117
   23MOL   H64819172   3.670   1.335   4.454 -0.2472  0.5058 -0.0825
   23MOL   H64919173   3.495   1.432   4.621  1.2576  1.4914  0.8248
   23MOL   H65019174   3.571   1.312   4.729  2.0419 -0.9696 -0.4952
   23MOL   H65119175   3.788   1.472   4.691  0.2102  1.1105 -0.4499
   23MOL   H65219176   3.649   1.537   4.769 -0.7979  2.0069 -1.0984
   23MOL   H65319177   3.590   1.644   4.551 -0.3949 -0.1165 -0.2388
   23MOL   H65419178   3.705   1.543   4.473 -2.8154  0.2181 -0.7390
   23MOL   H65519179   3.782   1.736   4.686  0.1215 -0.8201  0.1092
   23MOL   H65619180   3.899   1.650   4.574 -0.5965 -0.3934  1.2617
   23MOL   H65719181   3.811   1.766   4.386 -0.0240 -2.5500  1.5869
   23MOL   H65819182   3.706   1.872   4.476 -0.0220  0.7702  3.4511
   23MOL   H65919183   4.019   1.863   4.499  2.1991  4.3454  1.5221
   23MOL   H66019184   3.913   1.935   4.612  1.1759 -3.6966  1.8196
   23MOL   H66119185   3.839   2.101   4.463 -1.4400 -2.3873  0.9174
   23MOL   H66219186   3.907   2.023   4.319  0.2104 -1.6862  0.3026
   23MOL   H66319187   4.044   2.174   4.543 -0.8285 -1.6909  0.8620
   23MOL   H66419188   4.135   2.063   4.441  1.1482  0.5742  0.3698
   23MOL   H66519189   4.150   2.309   4.354  1.5681 -1.7300  0.0261
   23MOL   H66619190   4.058   2.211   4.237  0.8776 -1.2722  1.1865
   23MOL   H66719191   3.946   2.398   4.449 -0.6769  0.5274 -0.1461
   23MOL   H66819192   3.858   2.327   4.317 -1.8221  2.3386  0.0675
   23MOL   H66919193   3.901   2.547   4.243 -1.3967 -1.8679  2.6185
   23MOL   H67019194   4.017   2.446   4.163 -1.1111 -2.7914  0.4580
   23MOL   H67119195   4.197   2.548   4.340 -0.6669 -1.4721  0.2337
   23MOL   H67219196   4.092   2.671   4.257 -0.2090  1.3000  1.1717
   23MOL   H67319197   4.058   2.620   4.416  3.4842 -0.4496  1.1457
   23MOL   C67419198   3.698   1.151   4.561 -0.2184  0.2068  0.4887
   23MOL   C67519199   3.778   1.097   4.442 -0.0388  0.8509  0.4653
   23MOL   C67619200   3.920   1.158   4.433 -0.1933  0.2862  0.1642
   23MOL   C67719201   3.922   1.300   4.363 -0.5844  0.3056  0.9283
   23MOL   C67819202   4.068   1.337   4.326 -0.5816 -0.1584 -0.0848
   23MOL   C67919203   4.068   1.437   4.212  0.0919  0.2622 -0.5058
   23MOL   C68019204   4.200   1.494   4.164 -0.2624 -0.7706 -0.0407
   23MOL   C68119205   4.245   1.609   4.254 -0.3856  0.0065  0.6573
   23MOL   C68219206   4.385   1.668   4.220 -0.3404 -0.1802  0.1211
   23MOL   C68319207   4.399   1.805   4.273 -0.2811 -0.0625  0.2352
   23MOL   C68419208   4.527   1.877   4.234  0.3322 -0.1718  0.1311
   23MOL   C68519209   4.517   2.018   4.300 -0.5086  0.4970  0.0647
   23MOL   C68619210   4.640   2.103   4.274  0.6995  0.3222  0.7772
   23MOL   C68719211   4.765   2.048   4.340 -0.5155 -0.1014 -0.3788
   23MOL   H68819212   3.643   1.073   4.613 -2.4070  1.2723 -0.1574
   23MOL   H68919213   3.768   1.179   4.640  0.7024 -3.0532  0.8720
   23MOL   H69019214   3.723   1.116   4.350 -1.9627 -0.3839  1.3248
   23MOL   H69119215   3.976   1.155   4.526  0.4450  0.3104 -0.2200
   23MOL   H69219216   3.988   1.097   4.374  0.1943  2.3859 -1.6535
   23MOL   H69319217   3.864   1.290   4.271 -0.1992  2.4678  0.4382
   23MOL   H69419218   3.867   1.380   4.413  0.0786  1.2288  0.1951
   23MOL   H69519219   4.111   1.390   4.411  1.2423  0.3008 -1.2699
   23MOL   H69619220   4.131   1.250   4.304 -0.2824 -0.4144  1.6781
   23MOL   H69719221   4.025   1.373   4.136 -0.6665 -1.3262  1.2228
   23MOL   H69819222   3.997   1.518   4.228 -0.8962 -0.8136  0.6946
   23MOL   H69919223   4.276   1.417   4.157  1.9032  1.0982  1.8500
   23MOL   H70019224   4.191   1.536   4.064  0.1375  0.7199  0.5300
   23MOL   H70119225   4.180   1.697   4.251 -0.1265  0.2168  1.3215
   23MOL   H70219226   4.239   1.571   4.356 -0.9553 -1.9279 -0.0803
   23MOL   H70319227   4.446   1.591   4.268 -1.3647 -1.3465 -0.4329
   23MOL   H70419228   4.391   1.660   4.112 -1.8204  0.8873 -0.0554
   23MOL   H70519229   4.399   1.797   4.382  0.2630 -0.6084  0.2056
   23MOL   H70619230   4.324   1.877   4.240 -0.3724 -0.5929 -0.7525
   23MOL   H70719231   4.525   1.891   4.126 -0.0485 -0.7582  0.0577
   23MOL   H70819232   4.612   1.821   4.272  1.5652  0.6511 -1.3362
   23MOL   H70919233   4.507   1.995   4.406 -0.0585 -1.4821 -0.2920
   23MOL   H71019234   4.428   2.078   4.280  0.7856  1.8283 -1.7670
   23MOL   H71119235   4.654   2.091   4.166  1.1131 -0.1868  0.8854
   23MOL   H71219236   4.616   2.207   4.297 -0.7342  0.2986 -0.4922
   23MOL   H71319237   4.776   1.943   4.314 -0.7062 -0.0138 -0.8114
   23MOL   H71419238   4.854   2.102   4.309  0.0141 -0.6559  0.1630
   23MOL   H71519239   4.759   2.058   4.449  2.4681  0.5065 -0.2406
   23MOL   C71619240   3.778   0.938   4.451 -0.1755 -0.2950  0.5808
   23MOL   C71719241   3.819   0.859   4.326  0.2221 -0.6889 -0.0451
   23MOL   C71819242   3.969   0.804   4.341 -0.3409  0.0337  0.8695
   23MOL   C71919243   4.052   0.796   4.213 -0.4602 -0.3365  0.5773
   23MOL   C72019244   4.069   0.924   4.133  0.1014  0.3281  0.3864
   23MOL   C72119245   4.172   0.932   4.031  0.5583 -0.2388  0.4370
   23MOL   C72219246   4.161   1.063   3.948  0.0305 -0.6735 -0.3504
   23MOL   C72319247   4.262   1.079   3.840 -0.5076 -0.0748  0.1719
   23MOL   C72419248   4.412   1.078   3.889 -0.0333  0.5033  0.3481
   23MOL   C72519249   4.511   1.154   3.798 -0.6254  0.7179 -0.1613
   23MOL   C72619250   4.649   1.172   3.853 -0.0125 -0.3033 -0.2480
   23MOL   C72719251   4.739   1.278   3.781  0.1065 -0.0310 -0.1626
   23MOL   C72819252   4.883   1.254   3.809 -0.0603  0.8501  0.2783
   23MOL   C72919253   4.969   1.358   3.744 -0.4984  0.0896  0.0521
   23MOL   H73019254   3.850   0.917   4.530  1.0094  1.3580 -0.0291
   23MOL   H73119255   3.683   0.909   4.496  0.5939 -2.8582  0.6259
   23MOL   H73219256   3.818   0.925   4.239  0.2955 -2.3911 -1.3492
   23MOL   H73319257   3.964   0.698   4.366 -1.0371 -0.4337 -1.0889
   23MOL   H73419258   4.018   0.861   4.419 -0.4569  1.6914 -0.2566
   23MOL   H73519259   4.151   0.764   4.247  0.0635  1.4950  0.8233
   23MOL   H73619260   4.028   0.715   4.145 -1.2989  1.5376 -1.4204
   23MOL   H73719261   3.987   0.931   4.062  0.0517  1.2606  0.5386
   23MOL   H73819262   4.059   1.017   4.188  0.0275 -0.5323  1.8364
   23MOL   H73919263   4.272   0.934   4.075  1.1099  1.0101 -0.8456
   23MOL   H74019264   4.165   0.847   3.962  0.4707 -2.0076  2.5781
   23MOL   H74119265   4.065   1.081   3.900 -0.3819  0.6444  0.9277
   23MOL   H74219266   4.169   1.143   4.022 -0.0596 -0.9042 -0.0900
   23MOL   H74319267   4.245   1.177   3.796  0.0917  1.3801  3.0838
   23MOL   H74419268   4.240   1.013   3.756 -0.0041  0.3498 -0.2974
   23MOL   H74519269   4.412   1.129   3.985  0.9305 -2.4872  1.9762
   23MOL   H74619270   4.447   0.975   3.893 -0.0874  0.5064  0.8874
   23MOL   H74719271   4.536   1.107   3.703  0.2565  1.2145 -0.1812
   23MOL   H74819272   4.465   1.250   3.773 -0.9656  0.1961 -1.6371
   23MOL   H74919273   4.659   1.191   3.959  0.8150 -1.7157 -0.0588
   23MOL   H75019274   4.692   1.075   3.825  0.2597  0.3260 -2.1116
   23MOL   H75119275   4.730   1.273   3.672 -0.5805 -0.5220 -0.0843
   23MOL   H75219276   4.713   1.381   3.807  0.4165  0.2370 -0.8826
   23MOL   H75319277   4.908   1.151   3.784 -0.4055  0.8981 -0.2693
   23MOL   H75419278   4.893   1.255   3.918  5.5299 -1.2632 -0.0551
   23MOL   H75519279   4.946   1.464   3.758 -0.1847  0.3295 -1.2459
   23MOL   H75619280   4.985   1.355   3.637  3.1138  0.7005  0.4969
   23MOL   H75719281   5.069   1.337   3.782  0.7892  0.5982 -2.9146
   23MOL   C75819282   3.720   0.736   4.312 -0.5355 -0.7506 -0.0108
   23MOL   C75919283   3.593   0.773   4.240  0.3109  1.1078 -0.4562
   23MOL   C76019284   3.595   0.746   4.094 -0.3282 -0.6747  0.0202
   23MOL   C76119285   3.679   0.850   4.026 -0.4699 -0.4705  0.6786
   23MOL   C76219286   3.663   0.864   3.875 -0.3955  0.1114  0.2888
   23MOL   C76319287   3.748   0.968   3.807  0.1277  0.5565  0.4883
   23MOL   C76419288   3.749   1.103   3.875 -0.3937 -0.0567  0.3994
   23MOL   C76519289   3.802   1.201   3.767  0.1946  0.2128 -0.4286
   23MOL   C76619290   3.840   1.337   3.831  0.5041  0.0095  0.1193
   23MOL   C76719291   3.839   1.444   3.720 -0.2441  0.5175  0.5546
   23MOL   C76819292   3.967   1.449   3.646 -0.4164 -0.1169 -0.2663
   23MOL   C76919293   4.085   1.517   3.728  0.0341  0.4053 -0.4588
   23MOL   C77019294   4.233   1.493   3.667  0.2818 -0.5617 -0.2982
   23MOL   C77119295   4.340   1.535   3.764 -0.6788 -0.1107 -0.9563
   23MOL   H77219296   3.771   0.649   4.269 -1.8900 -1.8453  0.5777
   23MOL   H77319297   3.700   0.706   4.414 -1.3066  1.2054  0.4328
   23MOL   H77419298   3.583   0.878   4.268 -1.3098  0.8402  0.0111
   23MOL   H77519299   3.640   0.648   4.078 -1.3278 -1.5943  2.6879
   23MOL   H77619300   3.492   0.748   4.058 -1.3306  1.2133  2.8690
   23MOL   H77719301   3.659   0.945   4.075  1.0205  0.4856 -0.5300
   23MOL   H77819302   3.785   0.825   4.033  0.3729  2.1660 -1.5271
   23MOL   H77919303   3.555   0.875   3.863 -0.7382 -1.6297  1.5014
   23MOL   H78019304   3.678   0.763   3.837 -2.7913 -0.7212  1.4778
   23MOL   H78119305   3.726   0.972   3.700 -2.5632 -1.0010  0.9405
   23MOL   H78219306   3.849   0.929   3.818 -0.3902 -0.8310  0.4637
   23MOL   H78319307   3.656   1.144   3.915 -0.5609 -1.6103  1.6285
   23MOL   H78419308   3.821   1.101   3.956 -0.8043 -0.0729  0.7663
   23MOL   H78519309   3.728   1.230   3.692 -0.0639  1.7735  0.3944
   23MOL   H78619310   3.883   1.147   3.718 -0.6527 -0.2677 -1.3114
   23MOL   H78719311   3.940   1.327   3.872  0.2489 -0.0349  0.7365
   23MOL   H78819312   3.782   1.365   3.918  0.6141  0.0600  0.1760
   23MOL   H78919313   3.812   1.543   3.756 -1.9154  0.2061  0.2274
   23MOL   H79019314   3.760   1.423   3.648  0.9823 -1.5079 -0.2569
   23MOL   H79119315   3.989   1.351   3.606 -0.1981 -1.0015  1.9474
   23MOL   H79219316   3.942   1.515   3.563 -1.7293  0.2512  0.4170
   23MOL   H79319317   4.067   1.624   3.744  2.3631  1.0070 -1.5583
   23MOL   H79419318   4.087   1.475   3.829 -0.7395  5.4344  1.8310
   23MOL   H79519319   4.255   1.387   3.652 -1.0393 -0.9530  0.4183
   23MOL   H79619320   4.249   1.538   3.569 -0.5898  1.3051  0.4049
   23MOL   H79719321   4.439   1.534   3.719 -0.0014 -3.5585  0.4458
   23MOL   H79819322   4.326   1.632   3.811 -0.1071 -0.8209  0.7350
   23MOL   H79919323   4.343   1.454   3.837 -2.8558  0.5321 -0.1223
   23MOL   C80019324   3.472   0.703   4.302  0.0455 -0.0519  0.1191
   23MOL   C80119325   3.477   0.544   4.312  0.3345 -1.0555  0.3923
   23MOL   C80219326   3.341   0.483   4.322 -0.1844 -0.2222  0.5324
   23MOL   C80319327   3.350   0.334   4.310 -0.0801 -0.4016 -0.1695
   23MOL   C80419328   3.217   0.258   4.333 -0.4354  0.1494 -0.6793
   23MOL   C80519329   3.242   0.106   4.340  0.1029  0.6491  0.3801
   23MOL   C80619330   3.117   0.024   4.360 -0.1258  0.7392  0.1578
   23MOL   C80719331   3.151   7.567   4.338 -1.0219  0.4929  0.1322
   23MOL   C80819332   3.021   7.496   4.306 -1.0956  0.3681  0.7842
   23MOL   C80919333   3.046   7.350   4.318 -0.0512  0.5055  0.7321
   23MOL   C81019334   2.921   7.267   4.290  0.5995  0.1444 -0.0798
   23MOL   C81119335   2.936   7.115   4.311  0.4443 -0.4166 -0.1549
   23MOL   C81219336   2.804   7.038   4.278  0.6167 -0.0955  0.3900
   23MOL   C81319337   2.821   6.887   4.314  0.0770 -0.1417 -0.6428
   23MOL   H81419338   3.386   0.747   4.252  1.3286 -0.1630 -2.2567
   23MOL   H81519339   3.451   0.742   4.402  1.7840 -0.6225  0.7206
   23MOL   H81619340   3.542   0.521   4.397  0.2554 -1.4990  0.3375
   23MOL   H81719341   3.271   0.529   4.252  0.5640  0.1020 -0.0039
   23MOL   H81819342   3.290   0.504   4.416  2.2543 -1.6021  2.2090
   23MOL   H81919343   3.430   0.296   4.373  0.1782 -2.2917 -1.5907
   23MOL   H82019344   3.392   0.303   4.215  0.8925  0.8719 -0.1623
   23MOL   H82119345   3.152   0.304   4.408  2.3117  1.6867  0.8851
   23MOL   H82219346   3.156   0.275   4.244 -0.9012 -0.5884 -0.4958
   23MOL   H82319347   3.311   0.083   4.421  0.5933 -1.0612 -0.5157
   23MOL   H82419348   3.295   0.065   4.255  1.8513  0.9856  1.2761
   23MOL   H82519349   3.071   0.047   4.457  0.5620 -1.0605  0.9392
   23MOL   H82619350   3.041   0.054   4.288 -1.5275 -0.6616  1.0203
   23MOL   H82719351   3.221   7.539   4.258  1.3442  0.2181  2.2173
   23MOL   H82819352   3.200   7.526   4.427  1.7032 -0.6808 -1.8244
   23MOL   H82919353   2.948   7.540   4.374 -1.2951  1.1347  0.0818
   23MOL   H83019354   2.980   7.531   4.211  0.2851 -0.6615 -0.2281
   23MOL   H83119355   3.082   7.326   4.417  0.1804 -1.0069  0.2880
   23MOL   H83219356   3.125   7.321   4.249 -1.4309  1.4142 -1.3127
   23MOL   H83319357   2.852   7.292   4.371 -0.6836  0.0022 -1.1272
   23MOL   H83419358   2.876   7.300   4.197  1.6684  1.7188 -0.0645
   23MOL   H83519359   2.971   7.097   4.412 -1.5064 -2.3315  0.2105
   23MOL   H83619360   3.019   7.078   4.250 -0.5083 -1.1815 -1.0113
   23MOL   H83719361   2.720   7.083   4.331  0.0294 -0.9823  0.2166
   23MOL   H83819362   2.789   7.051   4.171  1.3664  0.3590  0.3367
   23MOL   H83919363   2.898   6.843   4.251 -0.8938 -2.1418 -0.4648
   23MOL   H84019364   2.861   6.891   4.416  0.1405  1.7015 -0.7152
   23MOL   H84119365   2.734   6.821   4.310  0.9680 -1.2588 -1.8786
   23MOL   H84219366   3.515   0.504   4.218  1.3511  0.1873  0.2658
   24MOL     C119367   7.202   1.007   5.913 -0.3431 -0.4117  0.6450
   24MOL     C219368   7.291   1.125   5.870  0.6634 -0.4548  0.0725
   24MOL     C319369   7.194   1.249   5.843  0.0349  0.0130  0.0037
   24MOL     C419370   7.108   1.242   5.719  0.6001  0.1240  0.7445
   24MOL     C519371   7.043   1.374   5.685 -0.2454  0.4044 -0.8881
   24MOL     C619372   6.895   1.365   5.629 -0.2279 -0.1678 -0.9010
   24MOL     C719373   6.826   1.498   5.584 -0.4632 -0.2743 -0.5372
   24MOL     C819374   6.709   1.499   5.491  0.1068 -0.6908  0.0928
   24MOL     C919375   6.649   1.642   5.484 -0.4353  0.6450  0.3190
   24MOL    C1019376   6.530   1.663   5.385  0.4062  0.3620  0.2639
   24MOL    C1119377   6.453   1.792   5.413 -0.1360 -0.1400 -0.3946
   24MOL    C1219378   6.309   1.799   5.366  0.5120 -0.6606  0.4521
   24MOL    C1319379   6.247   1.940   5.382 -0.0655  0.8814  0.4376
   24MOL    C1419380   6.108   1.950   5.317  0.0784 -0.6214  0.2736
   24MOL    H1519381   7.155   1.029   6.009 -2.0341 -0.2586 -0.1834
   24MOL    H1619382   7.281   0.938   5.942  0.3242  0.3571  0.6783
   24MOL    H1719383   7.334   1.099   5.773  0.5563  1.7998 -0.6088
   24MOL    H1819384   7.129   1.266   5.929 -2.6470 -2.5105 -1.4494
   24MOL    H1919385   7.257   1.333   5.818  2.0515 -1.9080 -1.5285
   24MOL    H2019386   7.023   1.174   5.723  1.5988 -1.2598 -0.4717
   24MOL    H2119387   7.169   1.218   5.631  0.8366  0.0184  0.9381
   24MOL    H2219388   7.104   1.418   5.607 -0.8400  1.4797 -0.7531
   24MOL    H2319389   7.041   1.445   5.768 -2.5218 -0.4145 -0.1831
   24MOL    H2419390   6.834   1.319   5.707  1.0918  0.5525  0.5969
   24MOL    H2519391   6.890   1.305   5.539  0.6150  1.0601 -1.7716
   24MOL    H2619392   6.802   1.554   5.675  2.1670 -0.4215  0.2862
   24MOL    H2719393   6.903   1.553   5.530  0.2275 -0.1935  0.5065
   24MOL    H2819394   6.621   1.444   5.524 -2.6308  2.4295 -1.6910
   24MOL    H2919395   6.740   1.473   5.390 -1.5826  0.6080 -0.7926
   24MOL    H3019396   6.623   1.666   5.587  0.1247  0.9180  0.3979
   24MOL    H3119397   6.730   1.711   5.461  0.1528  1.2584  3.8926
   24MOL    H3219398   6.567   1.676   5.283 -1.0996  0.9440 -0.2128
   24MOL    H3319399   6.468   1.575   5.402  1.3624 -0.8408 -2.1517
   24MOL    H3419400   6.455   1.804   5.521 -0.4745  1.2342 -0.5273
   24MOL    H3519401   6.510   1.878   5.375  0.5223 -0.0468  0.7757
   24MOL    H3619402   6.250   1.722   5.417 -0.4650  0.5277  1.1564
   24MOL    H3719403   6.300   1.764   5.263  0.6947 -0.9273  0.5277
   24MOL    H3819404   6.223   1.961   5.486 -0.6548 -0.7360  0.6391
   24MOL    H3919405   6.322   2.012   5.349  0.0115  0.9444  0.7538
   24MOL    H4019406   6.073   2.053   5.325 -2.9711 -1.3554 -2.6613
   24MOL    H4119407   6.121   1.914   5.215 -2.4230  1.7603 -0.9337
   24MOL    H4219408   6.042   1.873   5.356  1.2197 -1.2627  0.9699
   24MOL    H4319409   7.133   0.956   5.844  0.3407  0.6949 -0.8793
   24MOL    C4419410   7.400   1.163   5.973 -0.0726 -0.1594 -0.2838
   24MOL    C4519411   7.543   1.145   5.923  0.0767 -0.3856 -0.1612
   24MOL    C4619412   7.611   1.056   6.029 -0.1145 -0.1062  0.5047
   24MOL    C4719413   0.057   0.994   5.998 -0.3419 -0.1201 -0.2065
   24MOL    C4819414   0.103   0.883   6.096 -0.1017 -0.2077 -0.2398
   24MOL    C4919415   0.254   0.850   6.083  0.5022  0.4742 -0.2511
   24MOL    C5019416   0.320   0.765   6.196  0.5414  0.6816  0.0170
   24MOL    C5119417   0.456   0.709   6.167 -0.2093 -0.1958  0.1798
   24MOL    C5219418   0.522   0.620   6.287 -0.8793 -0.6514  0.8318
   24MOL    C5319419   0.642   0.549   6.245 -0.2089 -0.0970 -0.4892
   24MOL    C5419420   0.685   0.454   6.354  0.2594  0.0773  0.7340
   24MOL    C5519421   0.820   0.394   6.308  0.1203 -0.5499  0.5449
   24MOL    C5619422   0.881   0.281   6.396 -0.7892 -0.3943  0.2300
   24MOL    C5719423   0.803   0.149   6.402 -0.1824 -0.0850 -0.1012
   24MOL    H5819424   7.385   1.270   5.988 -0.6913 -0.1391 -1.0007
   24MOL    H5919425   7.369   1.123   6.070  0.1023  1.1141  0.3023
   24MOL    H6019426   7.546   1.095   5.826  1.2417  0.7858 -0.7470
   24MOL    H6119427   7.615   1.119   6.118  2.2721  1.8269 -0.9139
   24MOL    H6219428   7.550   0.967   6.044  0.1130 -0.3753 -0.1648
   24MOL    H6319429   0.124   1.078   5.978 -0.6202 -0.0505 -0.8770
   24MOL    H6419430   0.056   0.935   5.907  1.1443 -0.4011 -0.0503
   24MOL    H6519431   0.034   0.801   6.079 -1.0854  1.1177 -2.9835
   24MOL    H6619432   0.088   0.916   6.198 -0.0419 -0.3615 -0.1806
   24MOL    H6719433   0.273   0.810   5.984 -1.2436  1.4833 -1.0120
   24MOL    H6819434   0.303   0.945   6.107 -1.5356  1.4478  0.1903
   24MOL    H6919435   0.310   0.828   6.284  2.0941 -0.0773  0.7446
   24MOL    H7019436   0.255   0.680   6.213  3.6426 -1.4366  1.6107
   24MOL    H7119437   0.519   0.796   6.146 -4.2385  2.4611 -1.5994
   24MOL    H7219438   0.438   0.648   6.078  1.9408  0.7761 -0.9610
   24MOL    H7319439   0.540   0.685   6.372  0.8886  1.8621 -1.3501
   24MOL    H7419440   0.439   0.554   6.311 -2.6574  0.9913 -0.6301
   24MOL    H7519441   0.723   0.621   6.232 -0.3484  0.3668  1.0763
   24MOL    H7619442   0.619   0.511   6.146 -1.0088  0.3072 -0.4640
   24MOL    H7719443   0.610   0.377   6.367  1.2079 -0.6951  1.7293
   24MOL    H7819444   0.702   0.508   6.447  3.4629  0.6720 -0.1219
   24MOL    H7919445   0.818   0.360   6.204 -1.3073  0.3132  0.2777
   24MOL    H8019446   0.895   0.472   6.318 -0.0186 -0.6266  2.2515
   24MOL    H8119447   0.904   0.319   6.495  3.3222 -0.5628 -0.5447
   24MOL    H8219448   0.982   0.251   6.368 -0.5241 -0.7981  1.5944
   24MOL    H8319449   0.864   0.068   6.440  0.4596  0.3579 -0.1827
   24MOL    H8419450   0.765   0.111   6.307  0.0823 -0.2284 -0.1499
   24MOL    H8519451   0.720   0.172   6.470 -0.7610 -2.2180 -0.0495
   24MOL    C8619452   7.620   1.280   5.915  0.1606  0.4114  0.1164
   24MOL    C8719453   7.569   1.375   5.802  0.5890 -0.2381  0.4670
   24MOL    C8819454   7.632   1.346   5.663  0.1487  0.5273  0.0950
   24MOL    C8919455   7.579   1.433   5.551 -0.1498 -0.0183 -0.0628
   24MOL    C9019456   7.596   1.363   5.413 -0.1607 -0.2759  0.1317
   24MOL    C9119457   7.543   1.452   5.297 -0.5364 -0.7781 -0.3462
   24MOL    C9219458   7.585   1.383   5.166  0.3042  0.4920 -0.0622
   24MOL    C9319459   0.031   1.346   5.144  0.3320 -0.5660 -0.3832
   24MOL    C9419460   0.114   1.476   5.142  0.5568 -0.6004 -0.5434
   24MOL    C9519461   0.269   1.450   5.155 -1.0317  0.1841 -0.1587
   24MOL    C9619462   0.341   1.393   5.037 -0.0673 -0.4109 -0.0002
   24MOL    C9719463   0.353   1.500   4.929 -0.1721 -0.0361 -0.4921
   24MOL    C9819464   0.422   1.449   4.807  0.6450 -0.0568 -0.1721
   24MOL    C9919465   0.406   1.550   4.688 -0.4006 -0.5014  0.1356
   24MOL   H10019466   7.601   1.324   6.013 -0.0597  0.4582  0.0537
   24MOL   H10119467   0.032   1.262   5.911  0.2572  0.9536  0.2733
   24MOL   H10219468   7.463   1.354   5.793  0.1962  0.9023  2.0741
   24MOL   H10319469   0.045   1.355   5.661  0.3089 -1.1063 -2.7733
   24MOL   H10419470   7.629   1.239   5.642 -3.6845  1.0620 -2.5766
   24MOL   H10519471   7.471   1.443   5.546 -0.3951 -3.0690 -1.7805
   24MOL   H10619472   7.622   1.533   5.561  1.7864 -0.9426  1.2995
   24MOL   H10719473   7.543   1.268   5.408 -0.3638 -0.0439 -2.8713
   24MOL   H10819474   0.007   1.347   5.395 -0.0975 -0.8508  0.9836
   24MOL   H10919475   7.599   1.545   5.301 -1.5513 -0.2049  0.8548
   24MOL   H11019476   7.438   1.478   5.311  0.4135  1.7612  2.7683
   24MOL   H11119477   7.536   1.287   5.150  3.2661 -1.4883  2.1713
   24MOL   H11219478   7.548   1.447   5.086  0.3181  0.9572  0.3002
   24MOL   H11319479   0.033   1.293   5.048 -1.0399 -0.7516 -0.3182
   24MOL   H11419480   0.068   1.260   5.200  3.5633 -0.9545 -2.9940
   24MOL   H11519481   0.103   1.542   5.056  2.3373  0.9935  0.4029
   24MOL   H11619482   0.100   1.544   5.227  0.7205  0.2514 -1.1935
   24MOL   H11719483   0.271   1.383   5.241  2.0621 -1.2718 -1.2568
   24MOL   H11819484   0.324   1.538   5.187 -1.1663  0.4829 -0.7317
   24MOL   H11919485   0.444   1.366   5.059  0.6071 -0.9430 -3.4615
   24MOL   H12019486   0.291   1.305   4.995  1.5020 -1.2621 -0.1207
   24MOL   H12119487   0.256   1.532   4.890  0.3304  0.6822 -1.1665
   24MOL   H12219488   0.411   1.587   4.961 -0.9428  0.7536 -1.2045
   24MOL   H12319489   0.380   1.357   4.768  0.4666  0.3156 -0.8829
   24MOL   H12419490   0.527   1.452   4.835  0.9994  0.2757 -1.4897
   24MOL   H12519491   0.457   1.528   4.594 -0.5314 -1.2567  0.2405
   24MOL   H12619492   0.300   1.567   4.667 -0.4775 -0.2664  0.7189
   24MOL   H12719493   0.455   1.645   4.709  0.5544 -1.3457  1.7578
   24MOL   C12819494   7.577   1.522   5.845 -0.0511 -0.1550  0.5412
   24MOL   C12919495   0.014   1.588   5.874 -0.4777  0.3899 -0.3645
   24MOL   C13019496   0.018   1.742   5.835  0.7768  0.3063  0.0296
   24MOL   C13119497   7.617   1.840   5.907 -0.3920 -0.0570 -0.2258
   24MOL   C13219498   7.651   1.976   5.872  0.2889  0.3123  0.3981
   24MOL   C13319499   7.544   2.078   5.925 -0.2360 -0.1554 -0.2692
   24MOL   C13419500   7.555   2.213   5.859 -0.2151  0.0016  0.3611
   24MOL   C13519501   7.435   2.311   5.865  0.2623 -0.1840 -0.3640
   24MOL   C13619502   7.470   2.459   5.830 -0.9053 -0.6848  0.2136
   24MOL   C13719503   7.338   2.546   5.820 -0.3453  0.1570 -0.1886
   24MOL   C13819504   7.376   2.679   5.744  0.8937 -0.4217 -0.7843
   24MOL   C13919505   7.252   2.772   5.702  0.7714 -0.2240 -0.1285
   24MOL   C14019506   7.299   2.896   5.636 -0.3767 -0.1294 -0.2163
   24MOL   C14119507   7.185   2.987   5.588  0.4574 -0.2350 -0.0600
   24MOL   H14219508   7.547   1.587   5.762 -0.3982 -0.8311  0.1281
   24MOL   H14319509   7.511   1.540   5.930 -2.7060 -1.4214 -1.1731
   24MOL   H14419510   0.092   1.543   5.812  1.1493  2.2509  0.2828
   24MOL   H14519511   0.121   1.776   5.844  1.0119 -0.2645 -0.4690
   24MOL   H14619512   7.685   1.748   5.730  0.5858  0.5726  0.0944
   24MOL   H14719513   7.514   1.815   5.883 -1.0192  0.9466  1.3803
   24MOL   H14819514   7.648   1.839   6.011  0.0430 -0.5415 -0.3577
   24MOL   H14919515   0.054   2.004   5.908  0.6221 -0.7364  0.3113
   24MOL   H15019516   7.655   1.982   5.764  1.5791  1.9803  0.5157
   24MOL   H15119517   7.442   2.040   5.915 -0.2509  0.4844 -3.0446
   24MOL   H15219518   7.559   2.096   6.031  1.1725  0.9915 -0.6471
   24MOL   H15319519   7.650   2.259   5.887 -0.1026  0.8867 -1.3826
   24MOL   H15419520   7.587   2.198   5.756  0.0595  0.8228  0.3197
   24MOL   H15519521   7.356   2.286   5.794  0.8668  1.0044 -1.4744
   24MOL   H15619522   7.406   2.309   5.970  2.0100  3.4213  0.2783
   24MOL   H15719523   7.537   2.514   5.896  1.2616 -0.3503 -2.1570
   24MOL   H15819524   7.511   2.456   5.729 -0.5754  0.1105  0.3189
   24MOL   H15919525   7.295   2.566   5.918 -1.4665 -2.2727 -0.1281
   24MOL   H16019526   7.261   2.484   5.774 -1.6946  1.3156  0.4748
   24MOL   H16119527   7.449   2.732   5.806 -0.0924  0.8209 -0.6562
   24MOL   H16219528   7.426   2.654   5.650 -0.2095 -0.7594 -1.2898
   24MOL   H16319529   7.170   2.717   5.657  1.4733  0.1158 -1.8584
   24MOL   H16419530   7.213   2.799   5.800  1.0537 -1.8257  0.4357
   24MOL   H16519531   7.357   2.944   5.715 -1.0004  1.2964 -0.6141
   24MOL   H16619532   7.360   2.878   5.548 -0.3776  0.4674 -0.3417
   24MOL   H16719533   7.120   2.940   5.514 -0.5853  1.9464 -0.5563
   24MOL   H16819534   7.106   3.018   5.656  1.1777  0.5709  0.4216
   24MOL   H16919535   7.227   3.079   5.549  1.0234 -1.3020 -2.0728
   24MOL   C17019536   0.073   1.575   6.017 -0.2255  0.5437  0.0692
   24MOL   C17119537   0.229   1.582   6.017 -0.1251 -0.1336 -0.0780
   24MOL   C17219538   0.273   1.666   6.137 -0.4298  0.5080 -0.5823
   24MOL   C17319539   0.248   1.820   6.114 -0.7190 -0.0054 -1.2210
   24MOL   C17419540   0.329   1.904   6.208  0.4180  0.3474 -0.2851
   24MOL   C17519541   0.295   2.055   6.224  0.9061  0.5268  0.0946
   24MOL   C17619542   0.165   2.091   6.288  0.5793  0.3112  0.3237
   24MOL   C17719543   0.138   2.246   6.301 -0.2616 -0.1537  0.0421
   24MOL   C17819544   0.097   2.317   6.174  0.0697  0.6516 -0.7383
   24MOL   C17919545   0.093   2.470   6.197 -0.2439 -0.2121  0.1348
   24MOL   C18019546   0.073   2.551   6.070  0.2948 -0.3346 -0.8887
   24MOL   C18119547   0.021   2.695   6.088 -0.4157 -0.6047  0.6084
   24MOL   C18219548   7.581   2.723   6.151  0.9306  0.4496 -0.2062
   24MOL   C18319549   7.533   2.870   6.175  0.0234  0.0150  0.8745
   24MOL   H18419550   0.055   1.480   6.066 -1.2282  0.1565 -1.0185
   24MOL   H18519551   0.038   1.656   6.082  1.2115  1.2870 -0.0620
   24MOL   H18619552   0.257   1.622   5.919 -1.0820  0.4485 -0.1136
   24MOL   H18719553   0.213   1.635   6.223 -0.8513 -1.1624 -1.4414
   24MOL   H18819554   0.376   1.642   6.165 -1.3503 -0.1464  2.3722
   24MOL   H18919555   0.284   1.851   6.016 -0.4187  1.8988 -0.5272
   24MOL   H19019556   0.142   1.844   6.122 -1.2215 -2.2382 -0.8472
   24MOL   H19119557   0.315   1.862   6.308 -2.1956  0.0454 -0.7381
   24MOL   H19219558   0.434   1.885   6.186 -0.2667 -2.3959 -1.3396
   24MOL   H19319559   0.291   2.096   6.122  0.3186 -1.7339 -0.8117
   24MOL   H19419560   0.371   2.107   6.281  1.0751  2.6521 -1.9515
   24MOL   H19519561   0.168   2.053   6.390  2.0098 -0.6368 -0.0511
   24MOL   H19619562   0.076   2.062   6.232  1.2831  0.2903 -0.7982
   24MOL   H19719563   0.229   2.291   6.341 -0.1444 -0.6987  0.3877
   24MOL   H19819564   0.053   2.257   6.369  0.3426  1.3802  0.5771
   24MOL   H19919565   7.694   2.280   6.146  0.4541  0.0050 -1.2822
   24MOL   H20019566   0.174   2.287   6.102  0.1816  1.3385 -0.9136
   24MOL   H20119567   0.185   2.504   6.244 -1.1468  1.6308  0.6593
   24MOL   H20219568   0.018   2.495   6.273  1.1679 -1.8368  2.1275
   24MOL   H20319569   0.016   2.488   6.001 -0.7544 -0.4986  0.0950
   24MOL   H20419570   0.174   2.552   6.031  1.2555 -1.6459  1.4503
   24MOL   H20519571   0.094   2.753   6.144 -1.1077  1.7891 -0.9052
   24MOL   H20619572   0.009   2.737   5.988  2.0572  0.9976  0.9481
   24MOL   H20719573   7.499   2.679   6.094  0.6752  0.2031  0.3467
   24MOL   H20819574   7.569   2.679   6.251 -2.1297 -0.2881 -0.8525
   24MOL   H20919575   7.430   2.869   6.209 -0.4629  0.3604 -0.5278
   24MOL   H21019576   7.537   2.919   6.077 -1.4687 -3.8116 -1.2056
   24MOL   H21119577   7.599   2.926   6.242 -1.4252  1.2923  1.2691
   24MOL   C21219578   0.293   1.443   6.018 -0.0024 -0.0853 -0.2220
   24MOL   C21319579   0.447   1.434   5.994  0.5140  0.4034  0.2785
   24MOL   C21419580   0.510   1.340   6.098 -0.2893 -0.6700 -0.1966
   24MOL   C21519581   0.664   1.343   6.106 -0.3669  0.1730 -0.3784
   24MOL   C21619582   0.723   1.227   6.023  0.2364 -0.2261  0.4784
   24MOL   C21719583   0.742   1.095   6.098  0.3341 -0.3849 -0.0340
   24MOL   C21819584   0.785   0.981   6.008 -0.0712  0.9100  0.7661
   24MOL   C21919585   0.687   0.930   5.898 -0.7832  0.2186 -0.0114
   24MOL   C22019586   0.741   0.797   5.841  0.0236  0.7167 -0.1601
   24MOL   C22119587   0.677   0.749   5.708  0.0441 -0.3707 -0.7412
   24MOL   C22219588   0.714   0.609   5.675  0.4557 -0.0353 -0.2071
   24MOL   C22319589   0.616   0.502   5.722  0.3082 -0.2751 -0.1506
   24MOL   C22419590   0.646   0.361   5.673 -0.2008 -0.1414  0.1382
   24MOL   C22519591   0.575   0.255   5.759  0.7602 -0.2436  0.2091
   24MOL   H22619592   0.249   1.381   5.940 -0.0479  0.2326 -0.4470
   24MOL   H22719593   0.261   1.396   6.111 -2.0756  0.8718 -0.4184
   24MOL   H22819594   0.491   1.530   6.022 -0.6714  0.5997  1.5143
   24MOL   H22919595   0.468   1.356   6.197 -1.1701  1.6628 -0.9171
   24MOL   H23019596   0.472   1.243   6.065 -0.3921 -0.7229  0.0769
   24MOL   H23119597   0.692   1.350   6.211  1.4832  0.0999 -0.8603
   24MOL   H23219598   0.694   1.437   6.058 -0.8754  0.8436  0.5961
   24MOL   H23319599   0.820   1.267   5.994  1.0717 -1.0875  1.9871
   24MOL   H23419600   0.664   1.206   5.934 -0.1406 -1.7720  1.0830
   24MOL   H23519601   0.652   1.077   6.157 -0.2469  2.4584  0.0057
   24MOL   H23619602   0.822   1.111   6.170 -0.5297 -0.3666  0.9356
   24MOL   H23719603   0.876   1.007   5.953 -1.4216  1.1512 -1.4435
   24MOL   H23819604   0.818   0.902   6.075 -0.5844 -0.6650 -0.8024
   24MOL   H23919605   0.583   0.907   5.918 -0.3834 -1.7512 -0.0616
   24MOL   H24019606   0.690   1.006   5.820 -1.0748  0.9247  0.6639
   24MOL   H24119607   0.726   0.724   5.921  1.1157  1.2333  0.5369
   24MOL   H24219608   0.850   0.807   5.839  0.0755  0.3690  0.8984
   24MOL   H24319609   0.569   0.758   5.720  0.2984  0.3821  1.1443
   24MOL   H24419610   0.713   0.817   5.631  3.2445  0.9046  1.7453
   24MOL   H24519611   0.819   0.603   5.703  0.4776  0.3554 -0.2068
   24MOL   H24619612   0.727   0.613   5.567  2.5993 -0.2405  0.0241
   24MOL   H24719613   0.511   0.517   5.699  0.1364 -0.8800  0.2143
   24MOL   H24819614   0.616   0.507   5.831 -1.3938 -1.3314 -0.0885
   24MOL   H24919615   0.755   0.350   5.668 -0.2277 -0.9838  1.2734
   24MOL   H25019616   0.609   0.365   5.571 -2.9089  1.0499  1.1306
   24MOL   H25119617   0.469   0.276   5.746  0.9833  1.1631  0.6097
   24MOL   H25219618   0.584   0.152   5.722  1.2505  0.0062 -0.3785
   24MOL   H25319619   0.588   0.260   5.867 -1.9852 -1.7818  0.6644
   24MOL   C25419620   0.478   1.396   5.845  0.0937  0.4573 -0.3878
   24MOL   C25519621   0.444   1.501   5.730  0.5157  0.1646 -0.7354
   24MOL   C25619622   0.506   1.629   5.755  0.1265 -0.8018  0.3802
   24MOL   C25719623   0.435   1.744   5.676 -0.4116  0.2513  0.3280
   24MOL   C25819624   0.426   1.876   5.742 -0.1955  0.2604 -0.0762
   24MOL   C25919625   0.326   1.973   5.673 -0.2921 -0.1923  0.5799
   24MOL   C26019626   0.328   2.116   5.735  0.0040 -0.0938  0.4799
   24MOL   C26119627   0.221   2.203   5.666 -0.5380 -0.6444 -0.8307
   24MOL   C26219628   0.249   2.351   5.715 -0.3982 -0.1834 -0.6359
   24MOL   C26319629   0.144   2.458   5.672  0.1053  0.2970  0.8094
   24MOL   C26419630   0.195   2.600   5.707  0.7419  0.0912 -0.2220
   24MOL   C26519631   0.113   2.716   5.643  0.5843  0.0146 -0.0477
   24MOL   C26619632   0.165   2.850   5.682 -0.3778 -0.1509  0.2435
   24MOL   C26719633   0.103   2.971   5.612 -0.7842 -0.4039  0.4398
   24MOL   H26819634   0.440   1.297   5.823  2.1064 -0.1595 -1.2129
   24MOL   H26919635   0.587   1.385   5.839  0.0875 -0.5394  0.9333
   24MOL   H27019636   0.336   1.511   5.720  0.6153  0.2978 -1.7893
   24MOL   H27119637   0.615   1.628   5.745  0.0125 -1.9354 -0.8501
   24MOL   H27219638   0.491   1.665   5.857 -0.5879 -1.5699  0.5491
   24MOL   H27319639   0.335   1.713   5.646 -1.0004  2.7145 -0.4096
   24MOL   H27419640   0.481   1.760   5.578 -3.4561  1.3721 -0.9934
   24MOL   H27519641   0.527   1.916   5.742  0.1538 -0.5788  1.3746
   24MOL   H27619642   0.398   1.866   5.847 -2.0385 -0.4334 -0.6218
   24MOL   H27719643   0.224   1.935   5.680 -0.5768  0.4546  0.0131
   24MOL   H27819644   0.352   1.994   5.570 -2.9892  0.0184 -0.0981
   24MOL   H27919645   0.306   2.112   5.841  1.9063 -1.1184  0.8578
   24MOL   H28019646   0.426   2.158   5.714  0.4509 -0.5948  1.5085
   24MOL   H28119647   0.123   2.165   5.695 -0.3532  1.3172  2.7146
   24MOL   H28219648   0.232   2.191   5.558  2.6146 -0.7436 -0.5228
   24MOL   H28319649   0.232   2.346   5.822 -0.7704 -2.6071 -0.7660
   24MOL   H28419650   0.352   2.377   5.691  0.0370 -2.1024 -0.9410
   24MOL   H28519651   0.041   2.440   5.703 -0.5869 -1.4114 -2.2496
   24MOL   H28619652   0.142   2.453   5.563 -0.9342 -2.6441  0.9084
   24MOL   H28719653   0.297   2.614   5.672 -0.0667  0.3631 -2.5252
   24MOL   H28819654   0.207   2.618   5.814 -1.4802  0.4836 -0.0216
   24MOL   H28919655   0.121   2.721   5.535 -2.1347 -0.5260 -0.2969
   24MOL   H29019656   0.007   2.710   5.669  0.0457 -0.2551 -2.2536
   24MOL   H29119657   0.147   2.866   5.788 -0.8554  2.7450 -0.2279
   24MOL   H29219658   0.274   2.857   5.679 -0.1636 -1.7029  2.8569
   24MOL   H29319659   7.691   2.959   5.595 -0.7052 -1.1203  0.4286
   24MOL   H29419660   0.147   2.989   5.514 -0.0993  0.5420  0.9199
   24MOL   H29519661   0.107   3.063   5.671  2.5312  0.3046 -0.7937
   24MOL   C29619662   0.497   1.452   5.592 -0.0266 -0.3378  0.1071
   24MOL   C29719663   0.485   1.307   5.557  0.0010 -0.1549 -0.0432
   24MOL   C29819664   0.342   1.258   5.542 -0.4006  0.2003 -0.1279
   24MOL   C29919665   0.336   1.103   5.530 -0.3795 -0.6300  0.3033
   24MOL   C30019666   0.193   1.055   5.545  0.2517 -0.1635  0.0459
   24MOL   C30119667   0.177   0.911   5.509  0.4269  0.0541 -0.4857
   24MOL   C30219668   0.255   0.816   5.611 -0.1454  0.3580  0.0447
   24MOL   C30319669   0.219   0.668   5.582  0.1529 -0.0657 -0.2701
   24MOL   C30419670   0.104   0.611   5.669 -0.3259  0.6426 -0.3153
   24MOL   C30519671   7.663   0.670   5.651  0.3077  0.6085  0.0110
   24MOL   C30619672   7.555   0.592   5.734  0.7236 -0.0962  0.1807
   24MOL   C30719673   7.422   0.655   5.723  0.2338  0.4416  0.2611
   24MOL   C30819674   7.320   0.604   5.819 -0.3913  0.0511  0.6037
   24MOL   C30919675   7.174   0.656   5.799  0.4501  0.1985  0.3319
   24MOL   H31019676   0.603   1.472   5.578 -0.0561 -1.8881 -2.6459
   24MOL   H31119677   0.444   1.505   5.512 -0.7528 -0.9004  0.2156
   24MOL   H31219678   0.513   1.237   5.635 -1.2376 -2.4892 -1.6333
   24MOL   H31319679   0.292   1.311   5.461  0.6352 -0.6198 -1.3403
   24MOL   H31419680   0.289   1.281   5.634  0.8763 -0.5677  0.8103
   24MOL   H31519681   0.392   1.053   5.610  0.8790  0.5538  0.1766
   24MOL   H31619682   0.375   1.058   5.439 -2.2446 -2.1111  0.2086
   24MOL   H31719683   0.158   1.068   5.647 -0.0242  3.3881 -0.4161
   24MOL   H31819684   0.127   1.116   5.482  0.7369 -0.2514 -0.5541
   24MOL   H31919685   0.204   0.895   5.404  1.7937 -0.1328 -0.1226
   24MOL   H32019686   0.071   0.888   5.505 -0.1547  2.6199 -0.6195
   24MOL   H32119687   0.363   0.828   5.607 -0.3072  1.5692 -0.8545
   24MOL   H32219688   0.229   0.841   5.714  1.6551  0.7598  0.4271
   24MOL   H32319689   0.307   0.612   5.612  1.1575  2.2528  1.1532
   24MOL   H32419690   0.211   0.644   5.475  0.9629 -1.0348 -0.1178
   24MOL   H32519691   0.093   0.506   5.642 -0.3263  0.4328  0.4834
   24MOL   H32619692   0.135   0.616   5.773 -2.0114  0.8936  0.1892
   24MOL   H32719693   7.641   0.676   5.544  1.6964  1.0027 -0.2649
   24MOL   H32819694   7.653   0.773   5.686 -2.3497  0.7235 -1.0048
   24MOL   H32919695   7.599   0.588   5.833  1.1763  1.6685  0.0623
   24MOL   H33019696   7.554   0.490   5.696 -2.9080 -0.5557  1.2846
   24MOL   H33119697   7.390   0.643   5.619 -1.9689  1.2568  0.8177
   24MOL   H33219698   7.433   0.761   5.743  1.3071  0.2192  0.8941
   24MOL   H33319699   7.334   0.637   5.922  1.6651 -2.2038  1.0975
   24MOL   H33419700   7.313   0.496   5.822  0.1070  0.0091  0.4270
   24MOL   H33519701   7.161   0.754   5.845  2.5378  0.9212 -0.5247
   24MOL   H33619702   7.164   0.672   5.692 -1.7966 -1.1007  0.3179
   24MOL   H33719703   7.103   0.578   5.826  1.4318 -0.4588  1.0392
   24MOL   C33819704   0.562   1.283   5.422 -0.4196 -0.6618  0.7598
   24MOL   C33919705   0.724   1.284   5.430 -0.0564 -0.8008  0.0898
   24MOL   C34019706   0.771   1.152   5.493 -0.2102 -0.4568  0.3383
   24MOL   C34119707   0.919   1.155   5.531  0.5504  0.4616 -0.7629
   24MOL   C34219708   0.963   1.055   5.643  0.1525  0.1475  0.4811
   24MOL   C34319709   1.111   1.074   5.685  0.6806  0.2307 -0.3899
   24MOL   C34419710   1.141   1.008   5.827 -0.0525  0.5954  0.7538
   24MOL   C34519711   1.282   1.024   5.876 -0.1439  0.0897  0.7843
   24MOL   C34619712   1.338   0.922   5.977  0.3420 -0.4363  0.5413
   24MOL   C34719713   1.483   0.951   6.015  0.3356  0.4932 -0.1851
   24MOL   C34819714   1.540   0.849   6.115 -0.7456  0.7691  0.1151
   24MOL   C34919715   1.675   0.889   6.179  0.8596  0.1176 -0.2229
   24MOL   C35019716   1.705   0.803   6.300 -0.4627 -0.0022  0.5277
   24MOL   C35119717   1.842   0.840   6.364  0.1619 -0.1702 -0.1610
   24MOL   H35219718   0.542   1.189   5.373 -1.7634  0.5964 -1.1482
   24MOL   H35319719   0.521   1.343   5.341  0.5036 -0.1477  0.6522
   24MOL   H35419720   0.757   1.369   5.490 -1.0195 -0.3918  0.0567
   24MOL   H35519721   0.714   1.132   5.584 -0.9506 -0.8962 -0.2084
   24MOL   H35619722   0.753   1.068   5.425  1.0627  0.5774 -1.3127
   24MOL   H35719723   0.946   1.256   5.563 -0.0645 -0.6807  3.6811
   24MOL   H35819724   0.979   1.118   5.448  1.9818  0.6266  0.1889
   24MOL   H35919725   0.948   0.951   5.614  1.0423 -0.1718  1.1464
   24MOL   H36019726   0.891   1.074   5.724 -2.0700  1.9175 -1.8282
   24MOL   H36119727   1.171   1.037   5.602 -2.1831 -3.4947 -0.9412
   24MOL   H36219728   1.131   1.180   5.702 -2.3292  0.4919  1.9517
   24MOL   H36319729   1.069   1.037   5.903 -0.3962 -1.0824  1.1034
   24MOL   H36419730   1.120   0.901   5.818 -1.2372  0.9901 -1.7399
   24MOL   H36519731   1.353   1.028   5.794 -0.6300 -0.7060  0.3223
   24MOL   H36619732   1.302   1.119   5.927  1.0056  0.6270 -0.6459
   24MOL   H36719733   1.279   0.915   6.068 -2.4217  0.2142 -1.1720
   24MOL   H36819734   1.314   0.822   5.939 -0.4912 -0.5049  1.2374
   24MOL   H36919735   1.551   0.954   5.930  2.1785 -0.3129  1.2422
   24MOL   H37019736   1.471   1.051   6.055  2.2149  0.4011  0.6172
   24MOL   H37119737   1.535   0.754   6.061  0.9124  0.3814  0.6245
   24MOL   H37219738   1.468   0.827   6.194 -0.5841 -0.5778 -0.1008
   24MOL   H37319739   1.663   0.991   6.216  4.1141  0.0925  1.0360
   24MOL   H37419740   1.752   0.894   6.102  0.4039 -3.4882 -0.9781
   24MOL   H37519741   1.628   0.813   6.377 -1.3968 -0.2917 -0.3696
   24MOL   H37619742   1.720   0.697   6.279  0.0668 -0.1508  1.6205
   24MOL   H37719743   1.856   0.948   6.363 -0.7877 -0.0376  0.5007
   24MOL   H37819744   1.859   0.797   6.463  1.6140 -2.0129 -1.1831
   24MOL   H37919745   1.918   0.793   6.301  2.6131  1.3345  1.6201
   24MOL   C38019746   0.792   1.317   5.292  0.5372  0.5063 -0.2054
   24MOL   C38119747   0.831   1.468   5.270 -0.1581  0.3972 -0.6424
   24MOL   C38219748   0.955   1.480   5.178  0.1208 -0.0940 -0.1201
   24MOL   C38319749   1.087   1.403   5.227  0.1697  0.6991  0.4817
   24MOL   C38419750   1.125   1.429   5.375  0.0338 -0.6463  0.4677
   24MOL   C38519751   1.262   1.369   5.414  0.0155 -0.4087 -0.0527
   24MOL   C38619752   1.304   1.425   5.556  0.4963  0.7616  0.0383
   24MOL   C38719753   1.421   1.344   5.618 -0.1949  0.5310  0.6873
   24MOL   C38819754   1.441   1.375   5.767  0.6810  0.6360  0.4426
   24MOL   C38919755   1.559   1.306   5.837  0.0583 -0.3463 -0.0725
   24MOL   C39019756   1.592   1.354   5.980  0.4683 -0.2587 -0.0272
   24MOL   C39119757   1.700   1.285   6.061  0.0331  0.8110  0.4209
   24MOL   C39219758   1.731   1.344   6.196  0.2729 -0.2601  0.2518
   24MOL   C39319759   1.814   1.261   6.292  0.1144  0.0081  0.0911
   24MOL   H39419760   0.747   1.285   5.198  2.1351  1.0889 -1.1963
   24MOL   H39519761   0.885   1.262   5.302 -0.0258 -0.4596 -0.2395
   24MOL   H39619762   0.858   1.522   5.360  0.5312 -2.6585  1.0323
   24MOL   H39719763   0.979   1.587   5.176  0.2289 -0.1452 -2.2625
   24MOL   H39819764   0.934   1.460   5.073  0.5604 -0.8675 -0.0649
   24MOL   H39919765   1.163   1.436   5.156 -0.1706 -1.8686 -1.1243
   24MOL   H40019766   1.077   1.294   5.221  3.4005  0.3472  0.3091
   24MOL   H40119767   1.054   1.375   5.438  0.8835 -2.1363  0.1503
   24MOL   H40219768   1.128   1.537   5.393 -0.7350 -0.6781  0.8003
   24MOL   H40319769   1.335   1.402   5.340 -2.8024  2.5347 -1.6941
   24MOL   H40419770   1.266   1.260   5.407  2.7457 -0.2711 -1.4874
   24MOL   H40519771   1.335   1.530   5.554  2.0612  0.2947 -0.5548
   24MOL   H40619772   1.214   1.408   5.615 -0.6650  1.0946 -1.6025
   24MOL   H40719773   1.409   1.239   5.591 -1.7284  0.6357  0.8988
   24MOL   H40819774   1.510   1.380   5.567 -0.3164 -0.9093 -0.5999
   24MOL   H40919775   1.462   1.481   5.779 -0.0253  0.7906  0.3377
   24MOL   H41019776   1.347   1.360   5.820  0.6283  0.2231  0.2345
   24MOL   H41119777   1.646   1.317   5.772  1.1622  1.1843  1.6013
   24MOL   H41219778   1.525   1.203   5.834  1.2504 -0.7050 -2.1322
   24MOL   H41319779   1.614   1.461   5.986 -0.9631 -0.0230  1.3188
   24MOL   H41419780   1.504   1.346   6.043 -0.5231  2.0864 -1.0356
   24MOL   H41519781   1.796   1.292   6.009 -0.1693 -1.0852 -0.2607
   24MOL   H41619782   1.675   1.180   6.074  1.4148  0.1250 -2.0894
   24MOL   H41719783   1.787   1.436   6.176 -0.4650  0.5877  1.9889
   24MOL   H41819784   1.646   1.395   6.242 -0.2673  0.1237 -1.1358
   24MOL   H41919785   1.852   1.314   6.379  2.4107 -1.6174  0.1286
   24MOL   H42019786   1.908   1.227   6.251 -0.4491 -0.4357 -0.8448
   24MOL   H42119787   1.758   1.174   6.329  2.2937 -0.5726  2.1476
   24MOL   C42219788   0.712   1.545   5.205 -0.5173  0.4801  0.0383
   24MOL   C42319789   0.723   1.701   5.215 -0.2712  0.1431 -0.2536
   24MOL   C42419790   0.651   1.771   5.102  0.2981  0.4200 -0.3146
   24MOL   C42519791   0.732   1.768   4.969 -0.6126  0.0359 -0.3246
   24MOL   C42619792   0.653   1.838   4.858 -0.4265 -0.6913 -0.6412
   24MOL   C42719793   0.708   1.837   4.710  0.1730  0.5956  0.3743
   24MOL   C42819794   0.814   1.943   4.692 -0.0418 -0.3873  0.2955
   24MOL   C42919795   0.851   1.970   4.550 -0.6380 -0.3349 -0.0534
   24MOL   C43019796   0.976   2.070   4.537 -0.6033 -0.3172 -0.6039
   24MOL   C43119797   0.978   2.189   4.634  0.3640 -0.5754 -0.4675
   24MOL   C43219798   1.051   2.314   4.571 -0.2274  0.8191 -0.0649
   24MOL   C43319799   1.011   2.454   4.630 -0.2773  0.1908 -0.0036
   24MOL   C43419800   1.117   2.557   4.586 -0.2027 -0.5558  0.3213
   24MOL   C43519801   1.098   2.704   4.622  0.0246 -0.2920  0.1281
   24MOL   H43619802   0.621   1.517   5.258 -0.0028 -0.0523  0.6598
   24MOL   H43719803   0.694   1.515   5.102 -1.0130  0.7968  0.0308
   24MOL   H43819804   0.828   1.729   5.208 -1.0054  2.4257 -3.1769
   24MOL   H43919805   0.628   1.875   5.125 -1.0045  0.5988 -2.2729
   24MOL   H44019806   0.555   1.720   5.102  0.4362  0.1613  0.2274
   24MOL   H44119807   0.817   1.831   4.997  1.0636 -2.5340  0.5508
   24MOL   H44219808   0.773   1.670   4.945  2.7519 -0.2896  5.7484
   24MOL   H44319809   0.626   1.940   4.884 -2.4291 -1.3132 -0.1505
   24MOL   H44419810   0.559   1.782   4.861 -0.5006 -0.6074 -1.2833
   24MOL   H44519811   0.628   1.864   4.641  0.6026  0.6724 -0.0918
   24MOL   H44619812   0.763   1.749   4.678  2.0803  2.2794 -1.1843
   24MOL   H44719813   0.769   2.031   4.738  0.5311 -0.2562  0.6090
   24MOL   H44819814   0.900   1.910   4.750 -0.1598 -3.6523 -1.3041
   24MOL   H44919815   0.886   1.881   4.499 -0.5017  0.7336 -1.8741
   24MOL   H45019816   0.764   2.006   4.496 -0.9638 -1.3132 -0.1806
   24MOL   H45119817   1.072   2.018   4.539 -0.0919  0.5559 -1.6485
   24MOL   H45219818   0.980   2.102   4.433  2.1726 -0.1046 -0.4855
   24MOL   H45319819   0.873   2.212   4.656  1.2989  3.4299  0.0548
   24MOL   H45419820   1.017   2.165   4.732  0.0668 -0.4015 -0.3056
   24MOL   H45519821   1.156   2.292   4.586 -0.3765 -0.9841 -1.4778
   24MOL   H45619822   1.036   2.318   4.464  2.3426  2.0681 -0.4165
   24MOL   H45719823   1.018   2.452   4.739  0.5568  1.0407 -0.0407
   24MOL   H45819824   0.916   2.496   4.597  0.0930  0.6972 -0.4233
   24MOL   H45919825   1.213   2.524   4.625  0.1431 -0.4981 -0.4620
   24MOL   H46019826   1.116   2.543   4.478 -0.8931 -1.1333  0.3975
   24MOL   H46119827   1.192   2.760   4.617 -0.8133  1.0888 -0.5512
   24MOL   H46219828   1.052   2.719   4.720 -0.3596  0.6003 -0.1830
   24MOL   H46319829   1.036   2.731   4.536  1.0783  0.9125 -0.2855
   24MOL   C46419830   0.669   1.762   5.350  0.3236  0.0888 -0.4834
   24MOL   C46519831   0.766   1.865   5.424  0.1730 -0.0179 -0.0738
   24MOL   C46619832   0.901   1.811   5.455  0.4062 -0.4417  0.9883
   24MOL   C46719833   0.883   1.739   5.587 -0.9986 -0.1385 -0.9323
   24MOL   C46819834   0.993   1.641   5.628 -0.0729  0.1792 -0.0845
   24MOL   C46919835   0.997   1.614   5.776 -0.4283 -0.3974  0.4416
   24MOL   C47019836   1.087   1.503   5.837 -0.1185  1.1895 -0.2700
   24MOL   C47119837   1.079   1.495   5.990 -0.0491  0.2388 -0.1871
   24MOL   C47219838   1.167   1.373   6.036  0.2633  0.0462  0.1859
   24MOL   C47319839   1.146   1.333   6.189  0.6951 -0.7666  0.6754
   24MOL   C47419840   1.235   1.220   6.236  0.7509 -0.3390  0.1840
   24MOL   C47519841   1.229   1.218   6.396 -0.2052  0.0809  0.3497
   24MOL   C47619842   1.340   1.128   6.458  0.4139 -0.4271 -1.0154
   24MOL   C47719843   1.479   1.157   6.412 -1.1374 -0.6112 -0.2857
   24MOL   H47819844   0.645   1.686   5.425  0.8206  0.8336  0.4537
   24MOL   H47919845   0.571   1.808   5.346  0.4735  0.4647  0.0385
   24MOL   H48019846   0.729   1.881   5.525  2.4264  0.9293  0.6345
   24MOL   H48119847   0.947   1.733   5.394 -0.1336 -0.0636  0.0866
   24MOL   H48219848   0.972   1.893   5.469  1.0040 -0.5991 -0.9554
   24MOL   H48319849   0.789   1.688   5.610 -1.3147 -0.7761 -3.4776
   24MOL   H48419850   0.901   1.821   5.656  1.5888  0.2262 -1.9938
   24MOL   H48519851   1.091   1.675   5.595 -0.5611  0.1374 -1.6055
   24MOL   H48619852   0.972   1.546   5.578 -0.7845  0.5666 -0.5210
   24MOL   H48719853   1.025   1.710   5.821  1.1564 -0.2272 -0.8373
   24MOL   H48819854   0.897   1.600   5.817 -0.1135  1.7887  2.0508
   24MOL   H48919855   1.051   1.413   5.787  0.9486  0.3527  0.4619
   24MOL   H49019856   1.189   1.521   5.806  1.1406 -0.8200  2.5172
   24MOL   H49119857   1.121   1.588   6.029 -2.5029  1.2490  0.1037
   24MOL   H49219858   0.973   1.491   6.015 -0.2358  1.8678 -0.6090
   24MOL   H49319859   1.152   1.280   5.982 -2.4248  1.1385 -1.0250
   24MOL   H49419860   1.273   1.399   6.028  0.4703 -0.4220  1.3019
   24MOL   H49519861   1.173   1.428   6.233 -0.3853  0.6452 -1.6158
   24MOL   H49619862   1.045   1.328   6.227  0.6575  1.5937  0.9199
   24MOL   H49719863   1.194   1.127   6.197  2.4420 -1.3608  0.7680
   24MOL   H49819864   1.332   1.229   6.187  0.5764 -0.6422 -0.2174
   24MOL   H49919865   1.128   1.187   6.425  0.5353 -4.7970 -1.7202
   24MOL   H50019866   1.225   1.324   6.419  1.3411  0.9141 -2.8779
   24MOL   H50119867   1.341   1.145   6.566  1.2337 -0.8121 -0.9520
   24MOL   H50219868   1.316   1.022   6.445 -0.8258 -0.2879  0.0872
   24MOL   H50319869   1.512   1.261   6.413  1.5085 -1.3798 -1.8245
   24MOL   H50419870   1.554   1.112   6.478  1.4992  0.9772 -2.1114
   24MOL   H50519871   1.506   1.121   6.312 -0.4329  0.3860 -0.4663
   24MOL   C50619872   0.778   2.007   5.356  0.6570  0.5829  0.0084
   24MOL   C50719873   0.652   2.092   5.387 -0.5654  0.5367  0.3944
   24MOL   C50819874   0.662   2.183   5.516  0.1763  0.4556  0.5935
   24MOL   C50919875   0.752   2.303   5.506  0.7972 -0.2087 -0.0394
   24MOL   C51019876   0.746   2.377   5.641  0.1021 -0.2092  0.0372
   24MOL   C51119877   0.669   2.509   5.628  0.7002  0.2538  0.3730
   24MOL   C51219878   0.670   2.603   5.750 -0.2014  0.0522  0.3583
   24MOL   C51319879   0.616   2.543   5.877  0.1141  0.6294 -0.4933
   24MOL   C51419880   0.572   2.656   5.967 -0.7048 -0.2660  0.8590
   24MOL   C51519881   0.501   2.614   6.097  0.0200  0.1349  0.4898
   24MOL   C51619882   0.586   2.520   6.187  0.4452 -0.3245 -0.2477
   24MOL   C51719883   0.532   2.470   6.323 -0.8387  0.1560  0.4277
   24MOL   C51819884   0.567   2.326   6.355  0.3733  0.5720 -0.1005
   24MOL   C51919885   0.712   2.299   6.372 -0.9087  0.5077  0.0510
   24MOL   H52019886   0.807   2.016   5.251 -1.8892  0.9978 -0.6902
   24MOL   H52119887   0.858   2.058   5.409  2.0905 -0.5087 -1.0571
   24MOL   H52219888   0.579   2.015   5.412  0.9121 -1.5791 -1.6558
   24MOL   H52319889   0.562   2.215   5.546 -0.4810 -0.3381 -0.7205
   24MOL   H52419890   0.694   2.116   5.597  0.2421 -0.9239 -0.5524
   24MOL   H52519891   0.857   2.278   5.493  0.9917 -0.0003  1.0731
   24MOL   H52619892   0.725   2.370   5.424  2.8558 -0.5830 -1.0465
   24MOL   H52719893   0.850   2.385   5.672  0.0152  0.2545  0.2062
   24MOL   H52819894   0.702   2.317   5.721 -1.1462  0.2431 -0.2991
   24MOL   H52919895   0.568   2.495   5.588  0.8357  1.5398 -0.4283
   24MOL   H53019896   0.721   2.560   5.547  1.3183  0.4121  0.8693
   24MOL   H53119897   0.772   2.640   5.760 -0.0175 -0.0114 -1.1435
   24MOL   H53219898   0.605   2.688   5.726 -0.4255 -0.7213 -1.9450
   24MOL   H53319899   0.689   2.478   5.926  1.2177  0.8088 -1.8734
   24MOL   H53419900   0.524   2.488   5.857 -0.4733  0.6047  2.1529
   24MOL   H53519901   0.510   2.730   5.916  2.7665  2.4963  0.4357
   24MOL   H53619902   0.662   2.707   6.001  0.1687 -1.8030  0.8590
   24MOL   H53719903   0.487   2.707   6.152  0.2946  0.3298  0.2322
   24MOL   H53819904   0.396   2.584   6.102  0.0749 -0.0210  0.7135
   24MOL   H53919905   0.613   2.437   6.121  1.6965 -0.3470  0.2903
   24MOL   H54019906   0.683   2.566   6.204 -0.4282  1.4666 -0.0693
   24MOL   H54119907   0.423   2.462   6.318 -0.9019 -2.0265  3.5614
   24MOL   H54219908   0.572   2.533   6.402  1.0014 -1.2816  0.6718
   24MOL   H54319909   0.533   2.265   6.272  0.0141  0.3347  0.2243
   24MOL   H54419910   0.515   2.287   6.442  0.8090 -1.1480 -0.5831
   24MOL   H54519911   0.775   2.321   6.287 -3.2094  3.4080 -0.9858
   24MOL   H54619912   0.760   2.353   6.454 -2.6820  2.2059 -0.0011
   24MOL   H54719913   0.717   2.193   6.398 -1.3486 -0.0774 -2.1847
   24MOL   C54819914   0.596   2.168   5.261  0.5501 -0.0358 -0.6175
   24MOL   C54919915   0.447   2.210   5.298  0.9034  0.0666  0.0917
   24MOL   C55019916   0.414   2.356   5.332  0.3969  0.3190 -0.0910
   24MOL   C55119917   0.468   2.449   5.224  0.1585  0.2496  0.0553
   24MOL   C55219918   0.438   2.603   5.249  0.0944  0.7287 -0.1594
   24MOL   C55319919   0.506   2.660   5.373  0.6379 -0.2456 -0.5641
   24MOL   C55419920   0.507   2.819   5.368  0.5596 -0.1630 -0.0603
   24MOL   C55519921   0.603   2.887   5.476  1.0075  0.4104 -0.0930
   24MOL   C55619922   0.594   3.044   5.485 -0.0179  0.0685  0.1450
   24MOL   C55719923   0.460   3.100   5.549  0.2254  0.0330  0.8315
   24MOL   C55819924   0.472   3.255   5.574 -0.3762  0.3710  0.1813
   24MOL   C55919925   0.345   3.337   5.592 -0.0363 -0.1286  0.1329
   24MOL   C56019926   0.378   3.478   5.650  0.4450 -0.4586 -0.0568
   24MOL   C56119927   0.264   3.585   5.639  0.0032 -0.1737  0.7003
   24MOL   H56219928   0.659   2.256   5.250 -0.9717  1.0862 -0.5749
   24MOL   H56319929   0.591   2.118   5.164 -0.7511  0.1601 -0.6689
   24MOL   H56419930   0.431   2.157   5.392 -0.7165 -0.6645 -0.5828
   24MOL   H56519931   0.311   2.380   5.358  0.1611  0.1407 -0.8519
   24MOL   H56619932   0.468   2.378   5.425  1.5994 -1.1555 -0.4139
   24MOL   H56719933   0.440   2.417   5.123 -0.8810 -2.0642  1.0328
   24MOL   H56819934   0.577   2.445   5.221  0.1150 -1.7235  0.1886
   24MOL   H56919935   0.462   2.665   5.163 -1.0746  1.1854 -0.1661
   24MOL   H57019936   0.331   2.603   5.266  0.0235 -2.5146 -0.2635
   24MOL   H57119937   0.609   2.626   5.366  1.1041  1.0204 -0.1028
   24MOL   H57219938   0.460   2.624   5.465  0.8587  1.7920  0.3827
   24MOL   H57319939   0.545   2.849   5.270 -1.2651  0.4614 -0.6216
   24MOL   H57419940   0.407   2.862   5.373  0.0734 -1.4770  1.8469
   24MOL   H57519941   0.707   2.865   5.452  0.6641  0.0081 -1.2497
   24MOL   H57619942   0.577   2.847   5.574 -1.4304 -0.0042 -0.8828
   24MOL   H57719943   0.604   3.094   5.388 -0.5346 -0.1593 -0.0321
   24MOL   H57819944   0.675   3.084   5.545 -0.1280  0.2488  0.1742
   24MOL   H57919945   0.384   3.076   5.475  2.1313  0.4361 -1.2845
   24MOL   H58019946   0.441   3.051   5.645  1.4192  1.7253  1.9698
   24MOL   H58119947   0.515   3.291   5.480  0.1751  1.0412  0.6834
   24MOL   H58219948   0.551   3.280   5.645 -1.5689  0.1177  1.6018
   24MOL   H58319949   0.284   3.350   5.502  0.3312  1.1853  0.0639
   24MOL   H58419950   0.275   3.287   5.660  0.3657  1.6860  1.9319
   24MOL   H58519951   0.416   3.468   5.751  1.4809 -1.8564 -0.5823
   24MOL   H58619952   0.452   3.534   5.593 -0.8029  1.3972  0.1038
   24MOL   H58719953   0.220   3.584   5.540  2.1561 -0.7497 -0.2877
   24MOL   H58819954   0.185   3.554   5.706 -0.1860 -3.4171 -0.9342
   24MOL   H58919955   0.303   3.684   5.662  0.1208  0.1355 -0.7992
   24MOL   C59019956   0.351   2.160   5.185 -0.6265 -0.3014 -0.4532
   24MOL   C59119957   0.320   2.016   5.191  0.2755  0.1102  0.6157
   24MOL   C59219958   0.197   1.988   5.282  0.2026  0.3746  0.3709
   24MOL   C59319959   0.179   1.834   5.315 -0.1857  0.0136 -0.3355
   24MOL   C59419960   0.062   1.813   5.414  0.2756 -0.3008 -0.8600
   24MOL   C59519961   7.615   1.843   5.364  0.5234 -0.1195 -0.0585
   24MOL   C59619962   7.504   1.822   5.469  0.3691 -0.6152 -0.3933
   24MOL   C59719963   7.363   1.831   5.409  0.0994 -0.4703 -0.5842
   24MOL   C59819964   7.315   1.704   5.340  0.3483  0.2312 -0.4448
   24MOL   C59919965   7.168   1.724   5.288  0.2386 -0.3006 -0.6645
   24MOL   C60019966   7.098   1.591   5.272 -0.4012 -0.2225  0.0295
   24MOL   C60119967   7.175   1.489   5.180 -0.2987  0.8407  0.0643
   24MOL   C60219968   7.121   1.348   5.195 -0.0801  0.7915  0.6280
   24MOL   C60319969   7.200   1.240   5.118  0.4072 -0.3505 -0.3821
   24MOL   H60419970   0.397   2.185   5.090 -1.1162  1.4953 -0.2395
   24MOL   H60519971   0.259   2.218   5.187  0.2080  1.0107  0.0722
   24MOL   H60619972   0.405   1.970   5.241  0.3862  0.2606  0.5638
   24MOL   H60719973   0.104   2.019   5.234  0.2115 -0.5313 -0.2563
   24MOL   H60819974   0.197   2.046   5.374 -1.3240  0.2044  0.4765
   24MOL   H60919975   0.272   1.807   5.365 -1.9333  0.8195  3.5033
   24MOL   H61019976   0.172   1.769   5.228 -1.9743  1.7034 -1.4999
   24MOL   H61119977   0.079   1.871   5.504  0.1328  0.1672 -1.1304
   24MOL   H61219978   0.077   1.712   5.454  0.0460 -0.2662 -0.6885
   24MOL   H61319979   7.590   1.770   5.287  0.6453  0.0373 -0.2448
   24MOL   H61419980   7.603   1.946   5.330 -2.6166 -0.0491  1.0870
   24MOL   H61519981   7.518   1.733   5.531 -0.8210 -0.4901  0.0757
   24MOL   H61619982   7.513   1.904   5.541 -1.6995  1.4034 -2.3340
   24MOL   H61719983   7.300   1.857   5.494  1.1206 -1.6597  0.5560
   24MOL   H61819984   7.349   1.914   5.340 -2.2788  0.3521  0.8515
   24MOL   H61919985   7.378   1.676   5.256 -1.2458 -2.0908 -0.9071
   24MOL   H62019986   7.309   1.628   5.418  0.2468  2.1560  1.4770
   24MOL   H62119987   7.110   1.787   5.355 -1.5518 -1.8912 -0.6905
   24MOL   H62219988   7.169   1.772   5.190  1.4856  0.0972 -0.4586
   24MOL   H62319989   6.997   1.595   5.230  0.2647  1.2664 -1.4911
   24MOL   H62419990   7.082   1.551   5.372  1.1337 -0.2357  0.2857
   24MOL   H62519991   7.284   1.496   5.187 -0.1151 -0.1850 -1.6579
   24MOL   H62619992   7.159   1.517   5.076 -0.4990 -0.5220 -0.2707
   24MOL   H62719993   7.128   1.317   5.299  1.7820 -2.1423 -0.2800
   24MOL   H62819994   7.015   1.348   5.170  0.4905 -0.4958 -2.0162
   24MOL   H62919995   7.152   1.143   5.103  1.5877 -1.0015 -0.0465
   24MOL   H63019996   7.297   1.220   5.163  1.2037  3.2458 -0.3186
   24MOL   H63119997   7.226   1.272   5.017 -1.8634  0.9749 -0.5790
   24MOL   C63219998   0.325   1.951   5.051 -0.4645  0.5669 -0.0973
   24MOL   C63319999   0.206   1.974   4.959 -0.6976  0.4864  0.0101
   24MOL   C63420000   0.210   2.108   4.875  0.0546  0.6912 -0.2768
   24MOL   C63520001   0.337   2.131   4.787  0.6017 -0.6858  0.7834
   24MOL   C63620002   0.342   2.264   4.721  0.3942  0.1522 -0.3589
   24MOL   C63720003   0.458   2.269   4.613  0.4137  0.1044  0.1700
   24MOL   C63820004   0.476   2.410   4.555 -0.6124  0.3130  0.0505
   24MOL   C63920005   0.558   2.406   4.423  0.4727  0.3359  0.5582
   24MOL   C64020006   0.702   2.351   4.433  0.2208 -0.8629  0.3139
   24MOL   C64120007   0.780   2.341   4.299  0.1295 -0.1450 -0.0523
   24MOL   C64220008   0.784   2.471   4.223 -0.0002 -1.0036  0.2571
   24MOL   C64320009   0.855   2.468   4.085  0.5273 -0.1031 -0.0474
   24MOL   C64420010   0.830   2.604   4.009  0.1853  0.3771 -0.1224
   24MOL   C64520011   0.916   2.722   4.069 -0.2158  0.4485  0.5927
   24MOL   H64620012   0.327   1.842   5.051 -2.8981  0.4806  1.2266
   24MOL   H64720013   0.421   1.978   5.007 -0.1166  0.3697  0.5301
   24MOL   H64820014   0.113   1.976   5.015 -0.7207 -0.1005 -0.0091
   24MOL   H64920015   0.126   2.133   4.810 -0.3168  0.8753  0.2720
   24MOL   H65020016   0.205   2.186   4.951  2.0046  0.6009 -0.0307
   24MOL   H65120017   0.332   2.046   4.719 -0.4213 -1.2898  1.5987
   24MOL   H65220018   0.429   2.107   4.840  2.0066 -0.0199 -1.2646
   24MOL   H65320019   0.356   2.340   4.798  1.2313 -1.3136  0.9733
   24MOL   H65420020   0.246   2.295   4.680  0.9680  1.3524 -0.8300
   24MOL   H65520021   0.560   2.242   4.639 -0.4315 -1.4614  1.9750
   24MOL   H65620022   0.439   2.188   4.542  0.6799  0.0877  0.1180
   24MOL   H65720023   0.382   2.456   4.526 -0.3489  1.3876  0.8702
   24MOL   H65820024   0.522   2.466   4.637 -0.6663  1.3333 -0.6073
   24MOL   H65920025   0.577   2.510   4.398 -1.6095  0.5346 -0.3211
   24MOL   H66020026   0.486   2.371   4.348  0.5317 -0.1902  0.7476
   24MOL   H66120027   0.702   2.249   4.471  0.3461 -3.0904 -5.0878
   24MOL   H66220028   0.763   2.418   4.492  1.9478 -1.7171 -0.4653
   24MOL   H66320029   0.879   2.295   4.307  0.6671  1.1860  1.3564
   24MOL   H66420030   0.726   2.273   4.235 -2.8009  1.6563  0.3822
   24MOL   H66520031   0.681   2.501   4.203  0.5599  1.3074  0.6652
   24MOL   H66620032   0.829   2.552   4.281 -2.2969  0.8156 -0.4328
   24MOL   H66720033   0.814   2.391   4.020 -0.5266  1.0397 -0.7748
   24MOL   H66820034   0.958   2.434   4.087  0.6629  0.1503 -1.8929
   24MOL   H66920035   0.728   2.643   4.014  0.1269  0.0149  2.1773
   24MOL   H67020036   0.864   2.596   3.906 -0.5705  0.9368 -0.4197
   24MOL   H67120037   0.902   2.810   4.005  0.0814  0.2542  0.2611
   24MOL   H67220038   0.892   2.768   4.165 -0.3660  0.3480  0.6036
   24MOL   H67320039   1.019   2.689   4.064 -0.0144  1.2288 -0.8390
   24MOL   C67420040   0.181   1.855   4.861  0.0573 -0.6826 -0.6996
   24MOL   C67520041   0.040   1.853   4.790 -0.2796  0.8504 -0.4759
   24MOL   C67620042   0.056   1.760   4.666 -0.1043 -1.0541 -0.2150
   24MOL   C67720043   7.684   1.809   4.535  0.0534  0.0125 -0.3341
   24MOL   C67820044   7.682   1.701   4.425  0.7129  0.0638 -0.5132
   24MOL   C67920045   7.628   1.752   4.290  0.6212 -0.9885 -0.2646
   24MOL   C68020046   7.642   1.659   4.171  0.0260 -0.0707  0.4068
   24MOL   C68120047   7.580   1.734   4.051  0.7366 -0.2340  0.1367
   24MOL   C68220048   7.605   1.664   3.916 -0.3691  0.0190  0.3817
   24MOL   C68320049   7.539   1.721   3.798  0.0480 -0.2211  0.2804
   24MOL   C68420050   7.600   1.673   3.664 -0.0644 -0.2256  0.2414
   24MOL   C68520051   7.523   1.747   3.551  0.8875 -0.3624  0.9661
   24MOL   C68620052   7.585   1.740   3.411 -0.4016  0.6043  0.5757
   24MOL   C68720053   7.504   1.784   3.290 -0.1974 -0.3891  0.5204
   24MOL   H68820054   0.186   1.765   4.921 -1.3406  0.6147  1.4171
   24MOL   H68920055   0.264   1.843   4.790 -0.5168  1.2088 -1.7397
   24MOL   H69020056   0.009   1.953   4.764 -0.3775  0.7261 -0.8404
   24MOL   H69120057   0.158   1.745   4.631  0.8354 -1.9745  2.7047
   24MOL   H69220058   0.023   1.660   4.692 -3.5107  0.1293  0.2321
   24MOL   H69320059   7.580   1.834   4.556 -0.1852 -1.8356  0.7895
   24MOL   H69420060   0.038   1.899   4.499 -0.7826  0.2590 -0.8867
   24MOL   H69520061   0.081   1.647   4.417 -0.5776 -1.9087 -2.8230
   24MOL   H69620062   7.612   1.629   4.466  0.9844  1.0542  1.7914
   24MOL   H69720063   7.525   1.786   4.303  1.2544  0.9975 -0.2918
   24MOL   H69820064   7.685   1.843   4.272  2.3604 -1.5860  1.9107
   24MOL   H69920065   0.052   1.639   4.154 -0.8673 -3.6380 -1.3168
   24MOL   H70020066   7.603   1.558   4.185 -0.6277  0.1556  0.2310
   24MOL   H70120067   7.473   1.745   4.067  0.6170  2.5525 -2.0995
   24MOL   H70220068   7.622   1.835   4.055 -0.0309  0.1043 -0.1298
   24MOL   H70320069   0.015   1.639   3.908 -0.8943 -2.1885 -0.0369
   24MOL   H70420070   7.570   1.563   3.932  1.1513 -0.6512 -0.4185
   24MOL   H70520071   7.542   1.829   3.813 -0.9497  0.0957 -1.6321
   24MOL   H70620072   7.433   1.703   3.817  0.4191 -2.1420  0.6962
   24MOL   H70720073   7.594   1.565   3.649 -0.4941 -0.2946  0.8717
   24MOL   H70820074   0.010   1.697   3.672  0.4743 -2.8246  1.2386
   24MOL   H70920075   7.515   1.852   3.581  0.2805 -0.0201 -0.3662
   24MOL   H71020076   7.417   1.719   3.545  0.2288  2.3147 -0.8578
   24MOL   H71120077   7.688   1.773   3.415  0.0420 -0.3957 -2.1648
   24MOL   H71220078   7.601   1.633   3.396  0.5271  0.8460 -0.1474
   24MOL   H71320079   7.466   1.886   3.296  1.0458  0.1501 -0.4971
   24MOL   H71420080   7.574   1.786   3.207 -0.1572 -0.1406  0.5583
   24MOL   H71520081   7.426   1.709   3.275  0.6558 -1.3456  0.8264
   24MOL   C71620082   7.617   1.800   4.881  0.0407 -0.1884 -0.6021
   24MOL   C71720083   7.483   1.875   4.878  0.3495  0.2174  0.5023
   24MOL   C71820084   7.359   1.797   4.921  0.0155 -0.5500  1.1076
   24MOL   C71920085   7.289   1.712   4.809 -0.1367 -0.2651 -0.0544
   24MOL   C72020086   7.192   1.806   4.725 -0.1980  0.4912  0.3516
   24MOL   C72120087   7.117   1.732   4.612  0.4901  0.1565  0.0033
   24MOL   C72220088   7.196   1.734   4.481  0.1023 -0.1994 -0.7270
   24MOL   C72320089   7.131   1.688   4.350 -0.4094  0.3500  0.0614
   24MOL   C72420090   7.224   1.713   4.231 -0.3490 -0.4522  0.4871
   24MOL   C72520091   7.167   1.690   4.091 -0.9386  0.6992  0.4871
   24MOL   C72620092   7.141   1.543   4.051  0.6075  0.2399  0.0294
   24MOL   C72720093   7.254   1.447   4.097  0.3713 -1.0555  0.1004
   24MOL   C72820094   7.221   1.299   4.073 -0.4579  0.2033  0.2885
   24MOL   C72920095   7.323   1.207   4.141 -0.7066 -0.1268  0.0286
   24MOL   H73020096   7.599   1.695   4.859  0.7826 -0.3850 -0.3027
   24MOL   H73120097   7.650   1.810   4.984  2.0442  2.3110 -1.4057
   24MOL   H73220098   7.467   1.890   4.771  1.1383  0.1901  0.3831
   24MOL   H73320099   7.297   1.870   4.972  0.2432 -0.1762  0.8535
   24MOL   H73420100   7.382   1.725   5.000  3.1512 -0.7936  0.0385
   24MOL   H73520101   7.363   1.662   4.746  1.3530  2.1027 -0.2408
   24MOL   H73620102   7.222   1.632   4.839 -1.6509 -0.1028 -2.8604
   24MOL   H73720103   7.117   1.851   4.790 -1.5848 -1.5927  0.2693
   24MOL   H73820104   7.252   1.888   4.687 -1.5670  0.1292 -2.6712
   24MOL   H73920105   7.086   1.633   4.647 -1.8431  0.4351 -1.1954
   24MOL   H74020106   7.024   1.788   4.607  0.4619 -0.0629 -2.0321
   24MOL   H74120107   7.236   1.833   4.459 -2.4238  1.0165 -0.0337
   24MOL   H74220108   7.289   1.682   4.506 -0.1876 -0.0126  0.8464
   24MOL   H74320109   7.045   1.755   4.337 -0.7839  0.4848  2.8909
   24MOL   H74420110   7.103   1.583   4.358  1.2615  0.0757  3.6263
   24MOL   H74520111   7.265   1.814   4.230  0.6188 -0.8378  0.4625
   24MOL   H74620112   7.318   1.659   4.238  1.0777  1.8774 -0.3304
   24MOL   H74720113   7.082   1.756   4.069  0.4797  1.5526 -2.8328
   24MOL   H74820114   7.238   1.737   4.023 -2.2795  0.5972 -1.0354
   24MOL   H74920115   7.039   1.509   4.073  0.0145  1.8022 -0.2402
   24MOL   H75020116   7.142   1.551   3.943  0.1487  1.2851  0.0958
   24MOL   H75120117   7.352   1.475   4.058  0.3954  1.3703  1.8376
   24MOL   H75220118   7.274   1.446   4.204 -2.4867  3.1934  0.7702
   24MOL   H75320119   7.204   1.288   3.966 -3.3330  1.1830  0.6099
   24MOL   H75420120   7.126   1.268   4.117 -0.2774  0.1995  0.6791
   24MOL   H75520121   7.427   1.241   4.137 -1.0640  0.7807 -1.7411
   24MOL   H75620122   7.311   1.104   4.106  0.0246 -0.1630 -0.1343
   24MOL   H75720123   7.304   1.203   4.249 -1.5925 -0.0224 -0.1207
   24MOL   C75820124   7.489   2.010   4.955  0.4018  0.1892  0.3070
   24MOL   C75920125   7.389   2.121   4.897 -0.3533  0.5788 -0.0896
   24MOL   C76020126   7.304   2.194   5.004 -0.3611 -0.7043 -0.4453
   24MOL   C76120127   7.209   2.100   5.079 -0.0501  0.4973  0.4554
   24MOL   C76220128   7.121   2.180   5.170 -0.2966 -0.0543 -0.1905
   24MOL   C76320129   7.021   2.093   5.248  0.5464  0.0860  0.2559
   24MOL   C76420130   6.925   2.163   5.346 -0.0382 -0.3552  0.5913
   24MOL   C76520131   6.793   2.085   5.376  0.4236  0.0451  0.5355
   24MOL   C76620132   6.703   2.172   5.461 -1.3638 -0.6503 -0.3437
   24MOL   C76720133   6.568   2.110   5.512  0.0344  0.4962  0.3943
   24MOL   C76820134   6.486   2.200   5.604  0.2533  0.7060 -0.5220
   24MOL   C76920135   6.564   2.271   5.720  0.3987 -0.3095 -0.0776
   24MOL   C77020136   6.485   2.322   5.838  0.3978  0.3387 -0.5909
   24MOL   C77120137   6.410   2.449   5.814  0.3500 -0.6844 -0.5738
   24MOL   H77220138   7.467   1.985   5.059 -1.7813  0.8075  0.0155
   24MOL   H77320139   7.589   2.049   4.940  0.0837  1.4776  1.4691
   24MOL   H77420140   7.322   2.067   4.830  1.5584 -0.9446 -0.8406
   24MOL   H77520141   7.366   2.234   5.083 -0.3013 -0.5816 -0.5559
   24MOL   H77620142   7.263   2.284   4.958  2.4470  0.4226 -0.8133
   24MOL   H77720143   7.152   2.039   5.009  0.9846 -0.0678  0.0961
   24MOL   H77820144   7.267   2.032   5.141  1.7303  1.0427 -0.5726
   24MOL   H77920145   7.064   2.254   5.113 -2.2517 -1.4098 -0.0288
   24MOL   H78020146   7.186   2.224   5.246 -0.8787  0.6907 -0.1126
   24MOL   H78120147   7.060   2.004   5.297 -0.4315 -0.2300  0.4745
   24MOL   H78220148   6.963   2.049   5.167  2.0596  0.6510 -1.1725
   24MOL   H78320149   6.979   2.174   5.440 -1.2123 -1.1097  1.3596
   24MOL   H78420150   6.899   2.261   5.306  1.4597 -1.7880 -4.2635
   24MOL   H78520151   6.815   1.992   5.428  2.6849  1.0476  1.4075
   24MOL   H78620152   6.746   2.061   5.280  0.5295 -0.1691  0.5360
   24MOL   H78720153   6.680   2.258   5.398  2.4925  0.5157 -0.2330
   24MOL   H78820154   6.759   2.213   5.545  0.1014 -1.0524 -1.1092
   24MOL   H78920155   6.573   2.015   5.566 -3.2301  0.7489  1.2924
   24MOL   H79020156   6.505   2.089   5.426  2.5777 -1.3257 -1.0815
   24MOL   H79120157   6.431   2.274   5.546 -0.4385  1.2168  0.7796
   24MOL   H79220158   6.411   2.133   5.646 -1.2752  1.4595 -1.9987
   24MOL   H79320159   6.635   2.194   5.751  1.1525  0.1703 -0.5782
   24MOL   H79420160   6.622   2.350   5.672  0.8181 -0.4352  0.2189
   24MOL   H79520161   6.413   2.244   5.861  0.6289  0.0302 -0.9076
   24MOL   H79620162   6.557   2.334   5.919 -0.3346 -1.8845  0.4072
   24MOL   H79720163   6.361   2.492   5.901  0.0311  1.7632 -1.9001
   24MOL   H79820164   6.462   2.530   5.762  0.3834  0.3224  1.0112
   24MOL   H79920165   6.330   2.428   5.742 -0.2564 -1.9887  0.4651
   24MOL   C80020166   7.465   2.233   4.817 -0.1148  0.0178 -0.1293
   24MOL   C80120167   7.507   2.178   4.678  0.2248 -0.2777  0.1693
   24MOL   C80220168   7.590   2.273   4.594 -0.0056  0.0179  0.7291
   24MOL   C80320169   7.625   2.219   4.450 -0.8529 -0.7639  0.3462
   24MOL   C80420170   7.693   2.322   4.357  0.0933 -0.4727 -0.3334
   24MOL   C80520171   0.017   2.278   4.210  0.3199  0.2959  0.0678
   24MOL   C80620172   0.139   2.185   4.198 -0.3130  0.5971  0.0391
   24MOL   C80720173   0.135   2.082   4.083  0.2860 -0.8033 -0.2122
   24MOL   C80820174   0.104   2.133   3.943 -0.2827  0.0580  0.1610
   24MOL   C80920175   0.120   2.020   3.845 -0.5324 -0.0759 -0.2254
   24MOL   C81020176   0.088   2.067   3.706 -0.0920 -0.5113 -0.5195
   24MOL   C81120177   7.634   2.111   3.694  0.3793 -0.0797  0.4743
   24MOL   C81220178   7.576   2.114   3.546 -0.1540  0.1543 -0.3030
   24MOL   C81320179   7.417   2.112   3.533 -1.1289  0.4289  0.4361
   24MOL   H81420180   7.549   2.267   4.878 -1.1060  0.8335  0.8078
   24MOL   H81520181   7.396   2.317   4.810 -1.3663 -0.9491  0.4830
   24MOL   H81620182   7.418   2.147   4.623  1.3942 -3.1250 -0.2051
   24MOL   H81720183   7.682   2.293   4.649  0.9505 -1.0958 -0.4490
   24MOL   H81820184   7.534   2.366   4.582  0.0131  0.0060  0.5546
   24MOL   H81920185   7.530   2.188   4.407 -0.7839 -2.3895  1.3245
   24MOL   H82020186   7.682   2.126   4.460  0.9453  0.4423  1.7194
   24MOL   H82120187   7.633   2.413   4.369  0.6982  0.0984 -1.6147
   24MOL   H82220188   0.095   2.349   4.398  0.5539  0.3964 -1.9419
   24MOL   H82320189   0.009   2.356   4.135 -1.8062 -0.2878 -0.3555
   24MOL   H82420190   7.636   2.207   4.177  0.9731  0.8945 -2.8007
   24MOL   H82520191   0.230   2.245   4.193  1.0318 -1.2824  1.3233
   24MOL   H82620192   0.146   2.121   4.285 -1.0850 -0.1287 -0.4268
   24MOL   H82720193   0.230   2.029   4.077  1.3058  1.0084 -0.7255
   24MOL   H82820194   0.062   2.003   4.097 -1.7526  1.0064 -0.2956
   24MOL   H82920195   0.001   2.167   3.940 -0.0199  0.8259 -0.2545
   24MOL   H83020196   0.168   2.215   3.910  0.0788 -0.2997 -0.0377
   24MOL   H83120197   0.042   1.947   3.869 -0.6797  0.5029  1.1127
   24MOL   H83220198   0.216   1.971   3.857  0.0581  1.4164  1.3152
   24MOL   H83320199   0.172   2.131   3.679 -0.4824 -0.1717 -0.9365
   24MOL   H83420200   0.091   1.979   3.641  0.1001 -1.3745  0.6404
   24MOL   H83520201   7.611   2.209   3.735  2.6098  0.1049  1.3476
   24MOL   H83620202   7.578   2.036   3.750 -2.3545  1.8946  0.5059
   24MOL   H83720203   7.611   2.215   3.526 -0.3785  0.1426 -0.7573
   24MOL   H83820204   7.621   2.048   3.472 -0.9143  1.6399 -2.1221
   24MOL   H83920205   7.381   2.036   3.603  0.3186  0.8187  1.6331
   24MOL   H84020206   7.382   2.211   3.562  0.6664  1.8293 -2.0461
   24MOL   H84120207   7.383   2.098   3.431  0.9672 -1.6839  0.0183
   24MOL   H84220208   7.557   2.082   4.691 -0.5423 -0.9574 -1.6516
   25MOL     C120209   7.050   4.328   2.153 -0.0189 -0.0493  0.0939
   25MOL     C220210   7.116   4.407   2.281  0.4543  0.3510  0.3188
   25MOL     C320211   7.007   4.468   2.377  0.0485  0.4566 -0.2361
   25MOL     C420212   6.905   4.386   2.451  0.0832  0.3556 -0.0066
   25MOL     C520213   6.795   4.473   2.513 -0.1520 -0.3682 -0.0930
   25MOL     C620214   6.712   4.404   2.623  0.0733 -0.5267 -0.2691
   25MOL     C720215   6.578   4.481   2.643 -0.8477  0.1214  0.1728
   25MOL     C820216   6.487   4.413   2.743  0.4853 -0.2435 -0.0525
   25MOL     C920217   6.512   4.466   2.889 -0.1492 -0.0266  0.0421
   25MOL    C1020218   6.402   4.424   2.989  0.8993  0.4038 -0.0448
   25MOL    C1120219   6.428   4.473   3.140  0.2470  0.1597 -0.2273
   25MOL    C1220220   6.307   4.450   3.235 -0.2373  0.6067  0.1824
   25MOL    C1320221   6.350   4.482   3.382  0.2049  0.6698  0.1820
   25MOL    C1420222   6.248   4.447   3.481 -0.2636  0.8697 -0.3748
   25MOL    H1520223   7.121   4.275   2.089 -1.7530 -2.8573  0.4014
   25MOL    H1620224   6.996   4.402   2.095 -0.0359 -0.3940 -0.3259
   25MOL    H1720225   7.162   4.490   2.228  1.7436 -0.6131 -0.0973
   25MOL    H1820226   7.062   4.538   2.441  0.6712 -1.9390  1.9146
   25MOL    H1920227   6.949   4.536   2.315 -1.7395 -0.3817  0.4763
   25MOL    H2020228   6.961   4.335   2.529 -1.5160 -0.1729  0.8107
   25MOL    H2120229   6.878   4.307   2.380 -1.2464 -0.1672  1.0701
   25MOL    H2220230   6.725   4.507   2.437 -0.2625 -1.6124 -0.5714
   25MOL    H2320231   6.839   4.565   2.550 -1.7803  0.6024 -0.5270
   25MOL    H2420232   6.763   4.398   2.719  0.9390  1.8702 -0.5344
   25MOL    H2520233   6.703   4.297   2.605  0.7850 -0.3681 -1.5811
   25MOL    H2620234   6.604   4.582   2.674  0.2635  0.0405 -0.4736
   25MOL    H2720235   6.528   4.482   2.546  0.9527  2.9525 -0.7967
   25MOL    H2820236   6.504   4.306   2.737 -1.8756 -0.8033  2.3620
   25MOL    H2920237   6.386   4.431   2.706  0.7385  1.8054  0.1810
   25MOL    H3020238   6.609   4.433   2.925 -0.1703 -0.9084 -0.6719
   25MOL    H3120239   6.509   4.575   2.887 -0.0292 -0.0337 -0.9739
   25MOL    H3220240   6.306   4.465   2.955  0.5339  0.2715  0.8340
   25MOL    H3320241   6.399   4.315   2.986 -1.1700  0.4613 -1.7354
   25MOL    H3420242   6.517   4.424   3.182 -0.8811  0.1811  2.2853
   25MOL    H3520243   6.463   4.576   3.137  3.1838 -0.7000  1.8030
   25MOL    H3620244   6.274   4.346   3.236 -0.2730  0.6174  0.6854
   25MOL    H3720245   6.213   4.500   3.211 -0.3398 -0.1868 -1.0754
   25MOL    H3820246   6.438   4.420   3.399  0.9871  1.5905 -0.4745
   25MOL    H3920247   6.374   4.587   3.390 -1.4319  1.1088 -0.4166
   25MOL    H4020248   6.152   4.497   3.466 -0.3303  1.7799  2.7175
   25MOL    H4120249   6.228   4.340   3.470  1.7426  0.3372  0.8955
   25MOL    H4220250   6.263   4.461   3.588  0.6934 -0.6857 -0.2876
   25MOL    H4320251   6.977   4.251   2.178 -0.2552  0.3628  0.7044
   25MOL    C4420252   7.226   4.320   2.353 -0.3061 -0.2605  0.1461
   25MOL    C4520253   7.325   4.406   2.439  0.3316 -0.0845  0.1453
   25MOL    C4620254   7.466   4.336   2.445 -0.1004  0.2282  1.3900
   25MOL    C4720255   7.552   4.354   2.316  0.2685  0.9052 -0.5219
   25MOL    C4820256   0.009   4.317   2.325 -0.1236 -0.0720 -0.2531
   25MOL    C4920257   0.070   4.318   2.189  0.7691  0.6997  0.0122
   25MOL    C5020258   0.208   4.267   2.190  0.3454 -0.5533  0.2542
   25MOL    C5120259   0.296   4.261   2.061 -0.2214  0.2037  0.1069
   25MOL    C5220260   0.222   4.180   1.951  0.0305  0.2758  0.2255
   25MOL    C5320261   0.301   4.174   1.820 -0.5036 -0.7040 -0.3514
   25MOL    C5420262   0.227   4.155   1.692  0.1037 -0.1940  0.0376
   25MOL    C5520263   0.318   4.143   1.571  0.5471  0.3206 -0.1190
   25MOL    C5620264   0.244   4.134   1.431 -0.8117 -0.4517  0.2696
   25MOL    C5720265   0.327   4.128   1.299  0.1253  0.0792  0.3152
   25MOL    H5820266   7.184   4.251   2.426 -1.6439  0.3409 -0.0453
   25MOL    H5920267   7.288   4.274   2.276  0.3383  1.0232 -0.1095
   25MOL    H6020268   7.325   4.508   2.401 -1.1914  0.4349  1.5073
   25MOL    H6120269   7.529   4.377   2.523  1.8206 -1.6389  0.8453
   25MOL    H6220270   7.443   4.232   2.467 -1.6981  0.0917 -0.7469
   25MOL    H6320271   7.554   4.459   2.284  2.0058  1.2503  0.6292
   25MOL    H6420272   7.503   4.311   2.228  1.7576 -2.0239  0.0304
   25MOL    H6520273   0.025   4.225   2.380  0.5773 -0.2451 -0.7275
   25MOL    H6620274   0.062   4.392   2.384 -1.6819 -0.3680  1.5631
   25MOL    H6720275   0.008   4.268   2.115  1.0894  0.2523  0.0433
   25MOL    H6820276   0.083   4.417   2.145  0.1096  0.2476 -1.2186
   25MOL    H6920277   0.263   4.332   2.259  0.0246  1.0980 -1.0198
   25MOL    H7020278   0.200   4.162   2.218  2.9198 -0.8449  0.0047
   25MOL    H7120279   0.387   4.216   2.100  0.2078  2.2763  1.6079
   25MOL    H7220280   0.321   4.361   2.027  1.0591  0.5988  2.0857
   25MOL    H7320281   0.210   4.076   1.982  0.0464 -0.5255 -2.3479
   25MOL    H7420282   0.129   4.230   1.922 -2.1571 -3.9042 -0.2388
   25MOL    H7520283   0.379   4.098   1.832  0.3088  0.4910  2.2407
   25MOL    H7620284   0.365   4.262   1.811 -0.3195 -1.0799 -2.9347
   25MOL    H7720285   0.166   4.243   1.671  3.0848  1.7772 -0.7815
   25MOL    H7820286   0.160   4.070   1.697  0.2626 -0.3836 -0.8851
   25MOL    H7920287   0.381   4.232   1.567  1.7439 -0.4755  0.9602
   25MOL    H8020288   0.386   4.059   1.581 -0.8959 -0.7235  1.1703
   25MOL    H8120289   0.159   4.203   1.427 -0.4749  0.0245  0.9978
   25MOL    H8220290   0.194   4.038   1.420 -0.0933 -0.5757 -2.1182
   25MOL    H8320291   0.397   4.046   1.309  1.9886  1.2780 -2.1931
   25MOL    H8420292   0.375   4.222   1.271  0.1463 -0.4838 -1.6790
   25MOL    H8520293   0.258   4.109   1.216 -0.4133 -1.3979  1.0874
   25MOL    C8620294   7.277   4.416   2.587  0.4044  0.1970  0.0884
   25MOL    C8720295   7.335   4.533   2.672 -0.1620 -0.1774  0.3095
   25MOL    C8820296   7.296   4.516   2.821  1.1125 -0.1649 -0.1631
   25MOL    C8920297   7.343   4.388   2.894  0.2630  0.4664 -0.0014
   25MOL    C9020298   7.292   4.379   3.044 -0.0767  0.1189  0.7779
   25MOL    C9120299   7.319   4.235   3.096  0.0621  0.5233  0.7217
   25MOL    C9220300   7.270   4.218   3.241  0.2809 -0.5673  0.3144
   25MOL    C9320301   7.375   4.254   3.337  0.3174 -0.5127  0.2848
   25MOL    C9420302   7.344   4.209   3.476  0.2767 -0.2687  0.5272
   25MOL    C9520303   7.208   4.269   3.529  0.3278  0.2961  0.1945
   25MOL    C9620304   7.197   4.248   3.676  0.8065  0.3355  0.2414
   25MOL    C9720305   7.113   4.119   3.712 -0.9998 -0.1895 -0.0605
   25MOL    C9820306   7.132   4.070   3.863  0.0452 -0.3145  0.6714
   25MOL    C9920307   7.047   3.942   3.894  0.1475 -0.5063 -0.4824
   25MOL   H10020308   7.169   4.425   2.589  0.5152  1.9106 -0.5939
   25MOL   H10120309   7.296   4.316   2.625 -2.8418  0.0409  1.4192
   25MOL   H10220310   7.443   4.528   2.666 -0.1062 -1.6218  1.8387
   25MOL   H10320311   7.334   4.604   2.873 -1.9627  3.1892 -3.2327
   25MOL   H10420312   7.187   4.517   2.834  1.0673  0.8143 -0.5948
   25MOL   H10520313   7.306   4.298   2.845 -1.6741  1.9741 -1.3627
   25MOL   H10620314   7.451   4.385   2.908  0.3131  0.1101 -0.4518
   25MOL   H10720315   7.185   4.400   3.053 -0.3626 -1.5043  1.4353
   25MOL   H10820316   7.352   4.453   3.096  0.2584  0.6642 -0.3640
   25MOL   H10920317   7.422   4.200   3.086 -0.3032 -0.7928  1.4192
   25MOL   H11020318   7.266   4.158   3.040 -0.5416  2.2791 -1.1545
   25MOL   H11120319   7.183   4.283   3.249  0.7156 -0.1297  1.5874
   25MOL   H11220320   7.245   4.113   3.253 -0.9076 -0.2326  0.8510
   25MOL   H11320321   7.388   4.363   3.341 -1.6088 -0.2099 -1.2750
   25MOL   H11420322   7.467   4.207   3.303 -0.2857 -1.9356  0.6134
   25MOL   H11520323   7.336   4.100   3.476 -1.0225 -0.2339 -2.2892
   25MOL   H11620324   7.423   4.221   3.549  0.7869 -1.2255  0.1445
   25MOL   H11720325   7.126   4.220   3.476  2.6979 -2.1424 -1.3333
   25MOL   H11820326   7.207   4.376   3.505 -0.7037 -0.3215 -2.7842
   25MOL   H11920327   7.291   4.244   3.730  0.2753 -0.0743  1.1499
   25MOL   H12020328   7.140   4.335   3.710  0.2012 -1.0779  3.0438
   25MOL   H12120329   7.009   4.137   3.685 -1.3277 -0.7492  0.7744
   25MOL   H12220330   7.148   4.035   3.652 -0.6937 -1.0333  1.2514
   25MOL   H12320331   7.113   4.150   3.934  0.6470  0.8746 -0.4835
   25MOL   H12420332   7.238   4.049   3.878 -0.3062 -0.8212  2.5318
   25MOL   H12520333   6.947   3.959   3.854  0.6220  0.4910 -1.3010
   25MOL   H12620334   7.093   3.853   3.852  0.9370 -0.1740 -0.3408
   25MOL   H12720335   7.049   3.934   4.002 -1.4112 -1.5670 -0.5274
   25MOL   C12820336   7.290   4.676   2.625  0.2579  0.6171  0.1443
   25MOL   C12920337   7.379   4.794   2.676 -0.4694 -0.4742 -0.3787
   25MOL   C13020338   7.499   4.831   2.586 -0.2629  0.4035  0.0783
   25MOL   C13120339   7.599   4.724   2.543 -0.1862  0.2417  0.7057
   25MOL   C13220340   0.026   4.780   2.481 -0.0899 -0.1968 -0.2116
   25MOL   C13320341   0.114   4.671   2.418 -0.3667 -0.1824 -0.5045
   25MOL   C13420342   0.233   4.736   2.345 -0.4532  0.2788 -0.2582
   25MOL   C13520343   0.332   4.631   2.280 -0.0725 -0.0108  0.2368
   25MOL   C13620344   0.415   4.552   2.395 -0.8038  0.0607  0.4035
   25MOL   C13720345   0.532   4.474   2.327  0.3210 -0.1758  0.0710
   25MOL   C13820346   0.609   4.398   2.432  0.0343 -0.4326 -0.8841
   25MOL   C13920347   0.732   4.328   2.376  0.0199  0.2841 -0.3606
   25MOL   C14020348   0.816   4.238   2.472 -0.0163 -0.5682  0.6396
   25MOL   C14120349   0.938   4.187   2.407 -0.4987 -0.0640 -0.2196
   25MOL   H14220350   7.289   4.680   2.516  0.1362  2.0604  0.1919
   25MOL   H14320351   7.184   4.691   2.645 -0.1822  0.6764 -2.1032
   25MOL   H14420352   7.428   4.774   2.771  0.4301  1.1925 -0.4842
   25MOL   H14520353   7.455   4.870   2.495 -0.3583  0.9561  0.3552
   25MOL   H14620354   7.545   4.925   2.616 -3.4376  2.4312 -1.2432
   25MOL   H14720355   7.623   4.669   2.634 -0.5471  2.9081  2.4564
   25MOL   H14820356   7.551   4.649   2.480  1.8259  0.4351 -1.0955
   25MOL   H14920357   0.002   4.869   2.422  0.2416 -1.1699 -1.8541
   25MOL   H15020358   0.086   4.822   2.561  1.6760 -2.7596 -0.1220
   25MOL   H15120359   0.142   4.596   2.492 -2.4618  0.9081  1.4312
   25MOL   H15220360   0.052   4.630   2.338 -0.8738  2.4800 -1.5323
   25MOL   H15320361   0.197   4.804   2.268  0.0538  0.9740  0.1115
   25MOL   H15420362   0.300   4.791   2.411  0.3023 -0.3938 -0.4544
   25MOL   H15520363   0.280   4.560   2.216 -1.6801 -0.8210  2.3544
   25MOL   H15620364   0.410   4.686   2.228 -0.4828  1.4667  1.1471
   25MOL   H15720365   0.456   4.626   2.465 -2.4574 -0.1519  1.6392
   25MOL   H15820366   0.347   4.486   2.449 -1.6915  1.1022  0.5722
   25MOL   H15920367   0.599   4.550   2.286  0.6522 -0.4932  0.0281
   25MOL   H16020368   0.492   4.417   2.243 -0.5791  3.1720 -1.8915
   25MOL   H16120369   0.637   4.464   2.514  0.5068 -0.3236 -1.1322
   25MOL   H16220370   0.543   4.326   2.482 -1.0613  0.9146 -0.3753
   25MOL   H16320371   0.693   4.267   2.295  2.0586 -0.7829 -0.5657
   25MOL   H16420372   0.801   4.399   2.331 -1.8602  2.0801 -0.5164
   25MOL   H16520373   0.830   4.288   2.567 -1.9249 -1.5366  1.4530
   25MOL   H16620374   0.761   4.145   2.488  0.5002 -1.2563 -1.3757
   25MOL   H16720375   1.005   4.263   2.365 -0.9068  1.2500  1.4612
   25MOL   H16820376   0.986   4.124   2.481  0.1589  0.7015  0.0218
   25MOL   H16920377   0.909   4.120   2.327  2.7612 -1.0718 -0.6560
   25MOL   C17020378   7.292   4.916   2.695 -0.6709 -0.1367  0.0688
   25MOL   C17120379   7.208   4.902   2.823 -0.4906 -0.4451 -0.6372
   25MOL   C17220380   7.274   4.953   2.956  0.0654  0.5148  0.9615
   25MOL   C17320381   7.229   4.884   3.086  1.4565 -0.0910  0.6091
   25MOL   C17420382   7.308   4.930   3.202  0.4608  0.0364 -0.4621
   25MOL   C17520383   7.280   4.836   3.325 -0.8538  0.1197  0.1897
   25MOL   C17620384   7.143   4.826   3.382 -0.0650  0.3275 -0.3640
   25MOL   C17720385   7.128   4.725   3.501  0.0540 -0.4327  0.0357
   25MOL   C17820386   6.993   4.728   3.572  0.5319 -0.2480 -0.1440
   25MOL   C17920387   6.975   4.614   3.670  0.9777  1.0228  0.2973
   25MOL   C18020388   6.839   4.627   3.739 -0.4478 -0.0754 -0.2907
   25MOL   C18120389   6.836   4.546   3.868  0.6399  0.0876  0.4143
   25MOL   C18220390   6.803   4.398   3.858 -0.0830  1.2369 -0.5229
   25MOL   C18320391   6.806   4.323   3.993  0.4293  0.0335  0.0682
   25MOL   H18420392   7.239   4.932   2.601 -0.4640  0.8608  0.1190
   25MOL   H18520393   7.352   5.005   2.712 -1.5487 -0.0406  2.9195
   25MOL   H18620394   7.191   4.796   2.842  0.2756 -0.6597 -1.1143
   25MOL   H18720395   7.383   4.948   2.955  0.1300  1.7136  1.3583
   25MOL   H18820396   7.244   5.057   2.967  0.8325  0.8643 -0.1350
   25MOL   H18920397   7.125   4.910   3.103  0.4846 -0.9159 -3.6195
   25MOL   H19020398   7.240   4.776   3.079 -1.1945 -0.4216  1.2176
   25MOL   H19120399   7.415   4.928   3.182  0.1767 -2.0744 -2.0237
   25MOL   H19220400   7.279   5.028   3.239  0.4467 -0.7926  1.7798
   25MOL   H19320401   7.350   4.855   3.407 -0.9677 -0.9835  0.5496
   25MOL   H19420402   7.316   4.738   3.295  0.0671  0.5297 -0.0489
   25MOL   H19520403   7.079   4.794   3.300  0.7403 -0.1694 -0.8003
   25MOL   H19620404   7.102   4.921   3.415  0.8443  0.4287  0.5006
   25MOL   H19720405   7.208   4.741   3.573  0.0677 -1.2634  0.2090
   25MOL   H19820406   7.135   4.623   3.465 -1.4145 -0.2813 -0.6941
   25MOL   H19920407   6.907   4.722   3.505  0.2334  0.7990  0.1361
   25MOL   H20020408   6.986   4.824   3.623 -0.2397 -0.3473 -0.0628
   25MOL   H20120409   7.057   4.607   3.741  1.8231  2.2225 -0.5460
   25MOL   H20220410   6.978   4.522   3.612  0.6215  2.1244 -1.4983
   25MOL   H20320411   6.755   4.621   3.671  1.9007 -0.9415 -3.2473
   25MOL   H20420412   6.840   4.729   3.779 -1.3838 -0.1227 -0.1518
   25MOL   H20520413   6.931   4.559   3.922  0.7239  0.5158  0.1712
   25MOL   H20620414   6.757   4.590   3.929 -0.6076  1.7257 -2.3035
   25MOL   H20720415   6.705   4.372   3.818 -1.0568  2.3377  1.0928
   25MOL   H20820416   6.879   4.352   3.794 -2.1824  0.3350 -2.4158
   25MOL   H20920417   6.903   4.325   4.042  0.0630 -0.7164  0.8370
   25MOL   H21020418   6.762   4.224   3.987  1.6833 -0.4925 -0.4469
   25MOL   H21120419   6.743   4.376   4.066  0.4921  0.6658 -0.3354
   25MOL   C21220420   7.069   4.970   2.799  0.3347  0.3084  1.1826
   25MOL   C21320421   6.970   4.885   2.710  0.0899  0.3022  0.5006
   25MOL   C21420422   6.876   4.790   2.787 -0.2564 -0.8240 -0.7306
   25MOL   C21520423   6.950   4.712   2.901 -0.1357  0.1933  0.6929
   25MOL   C21620424   6.844   4.657   3.001 -0.3196 -0.3126  0.1550
   25MOL   C21720425   6.911   4.584   3.117 -0.6376  0.4510 -0.8473
   25MOL   C21820426   6.809   4.522   3.207 -0.3058  0.5358  0.0887
   25MOL   C21920427   6.855   4.451   3.331  0.7386 -0.2431  0.0703
   25MOL   C22020428   6.732   4.379   3.395  0.0227 -0.4904 -0.2885
   25MOL   C22120429   6.767   4.289   3.514  0.6229  0.3922 -0.0779
   25MOL   C22220430   6.645   4.224   3.581  0.3552  0.1695 -0.7007
   25MOL   C22320431   6.687   4.116   3.685  0.9744 -0.2810 -0.1319
   25MOL   C22420432   6.587   4.007   3.703  0.2555  0.1945  0.0495
   25MOL   C22520433   6.615   3.913   3.816  0.0796 -0.0488  0.0992
   25MOL   H22620434   7.080   5.064   2.745 -1.0157 -0.4335 -0.4246
   25MOL   H22720435   7.022   4.991   2.896  1.2936 -1.7533  2.1218
   25MOL   H22820436   7.036   4.819   2.653  3.2520  2.0522  1.9814
   25MOL   H22920437   6.781   4.831   2.820  0.4323  0.7395 -0.6840
   25MOL   H23020438   6.846   4.716   2.713  0.1220 -1.0128 -0.6966
   25MOL   H23120439   7.007   4.782   2.962  1.4926 -0.2622 -0.2707
   25MOL   H23220440   7.019   4.635   2.866  1.8154  1.8743  0.7523
   25MOL   H23320441   6.775   4.599   2.939  3.2071 -1.5379 -2.8283
   25MOL   H23420442   6.782   4.735   3.045 -0.8085  0.2334 -1.4606
   25MOL   H23520443   6.976   4.648   3.175 -0.4263 -2.4559  2.3040
   25MOL   H23620444   6.988   4.513   3.085 -0.5579  0.8397 -1.5246
   25MOL   H23720445   6.730   4.593   3.232  0.4852  0.8222  1.8721
   25MOL   H23820446   6.754   4.454   3.141 -0.0158  0.5629 -0.1817
   25MOL   H23920447   6.938   4.383   3.311 -0.6904 -1.8440 -0.6233
   25MOL   H24020448   6.897   4.515   3.408 -1.0324 -0.8412  1.5745
   25MOL   H24120449   6.703   4.305   3.321 -0.4037 -0.4618 -0.1522
   25MOL   H24220450   6.651   4.449   3.415 -1.1299 -2.3897  2.0063
   25MOL   H24320451   6.836   4.214   3.475  0.9089  0.8667 -0.4968
   25MOL   H24420452   6.822   4.350   3.586  1.0200 -0.3478  0.2544
   25MOL   H24520453   6.595   4.176   3.496 -0.1106 -0.4699 -0.0709
   25MOL   H24620454   6.574   4.297   3.619 -0.1704 -1.2084  1.0516
   25MOL   H24720455   6.715   4.163   3.778 -0.5257  0.8491 -0.2349
   25MOL   H24820456   6.780   4.066   3.656  0.4536 -0.9272 -0.7267
   25MOL   H24920457   6.559   3.953   3.612  0.9430 -1.4154  0.7610
   25MOL   H25020458   6.498   4.063   3.731  0.2964 -0.5768  1.8048
   25MOL   H25120459   6.534   3.841   3.818  0.7014 -0.7447  1.1587
   25MOL   H25220460   6.713   3.867   3.804  0.9531  2.0820 -1.2485
   25MOL   H25320461   6.610   3.987   3.896 -0.2403  1.6103 -1.4163
   25MOL   C25420462   6.895   4.964   2.604 -0.5514 -0.9458 -0.4343
   25MOL   C25520463   6.976   5.022   2.483  0.5226 -0.0003  0.2373
   25MOL   C25620464   7.022   4.903   2.393 -0.6389 -0.3432  0.0102
   25MOL   C25720465   7.133   4.946   2.291  0.0644 -0.2065  0.1524
   25MOL   C25820466   7.175   4.820   2.201 -0.5775 -0.6080  0.3378
   25MOL   C25920467   7.274   4.849   2.087 -0.4717 -0.3648 -0.7867
   25MOL   C26020468   7.325   4.722   2.014 -0.7000 -0.7380  0.0051
   25MOL   C26120469   7.441   4.753   1.914  0.2312 -0.0364  0.1966
   25MOL   C26220470   7.478   4.628   1.830  0.7332 -0.1496 -0.2399
   25MOL   C26320471   7.521   4.512   1.912  0.3741 -0.1873 -0.5401
   25MOL   C26420472   7.579   4.394   1.842 -0.4919 -0.0940  0.6962
   25MOL   C26520473   7.516   4.364   1.702 -0.1057  0.3693 -0.6020
   25MOL   C26620474   7.556   4.227   1.636  0.0933  0.6851  0.3785
   25MOL   C26720475   7.448   4.180   1.545  0.0103  0.0206 -0.8892
   25MOL   H26820476   6.855   5.050   2.658  3.5165  0.0969  1.1173
   25MOL   H26920477   6.815   4.900   2.567  0.1676 -0.2866 -3.2552
   25MOL   H27020478   7.056   5.077   2.534 -0.3068 -1.0485  2.7215
   25MOL   H27120479   6.934   4.851   2.356 -0.7214  0.5349 -1.0276
   25MOL   H27220480   7.076   4.820   2.438  0.5561  0.3412 -0.1320
   25MOL   H27320481   7.220   4.991   2.340 -0.2562  1.9058 -1.1285
   25MOL   H27420482   7.080   5.025   2.237  0.1425 -1.1456 -1.3207
   25MOL   H27520483   7.087   4.774   2.156 -2.0817  0.9101  1.6320
   25MOL   H27620484   7.217   4.747   2.270 -1.4563  0.2274  1.7888
   25MOL   H27720485   7.353   4.914   2.124 -0.6099  0.2817 -1.5952
   25MOL   H27820486   7.219   4.907   2.013  0.3575 -1.9271 -2.6814
   25MOL   H27920487   7.364   4.658   2.093 -1.4342 -0.2252  0.7904
   25MOL   H28020488   7.241   4.677   1.961 -0.3695  0.5013 -1.6519
   25MOL   H28120489   7.528   4.782   1.973 -0.8188 -0.1972  1.8431
   25MOL   H28220490   7.423   4.845   1.858  0.6773 -0.7185 -1.0802
   25MOL   H28320491   7.394   4.598   1.768  1.1336 -0.0677 -0.8247
   25MOL   H28420492   7.559   4.652   1.761 -0.3739 -0.2472 -1.5915
   25MOL   H28520493   7.434   4.473   1.967  0.4094 -3.2406 -2.5286
   25MOL   H28620494   7.594   4.550   1.983  0.5172 -1.3332 -0.0642
   25MOL   H28720495   7.580   4.304   1.904 -0.0116 -0.7039 -0.1851
   25MOL   H28820496   7.685   4.412   1.824 -0.4272 -0.5146  0.6398
   25MOL   H28920497   7.411   4.359   1.731 -0.1731  2.8675 -0.2703
   25MOL   H29020498   7.514   4.445   1.628 -0.9518 -1.1702 -2.3205
   25MOL   H29120499   7.646   4.231   1.575  0.0637 -0.4844  0.2507
   25MOL   H29220500   7.555   4.146   1.709 -2.3933  0.5123  0.2071
   25MOL   H29320501   7.445   4.072   1.532  2.3339  0.0756 -1.9612
   25MOL   H29420502   7.444   4.219   1.444  1.4976  1.2865 -0.4756
   25MOL   H29520503   7.350   4.206   1.586  1.0145 -0.2558  1.8460
   25MOL   C29620504   6.892   5.121   2.402 -0.4887 -0.0272 -0.3707
   25MOL   C29720505   6.967   5.244   2.332 -0.0293  1.3919  0.3267
   25MOL   C29820506   6.881   5.284   2.208  0.6629  0.1179  0.2180
   25MOL   C29920507   6.928   5.211   2.072  0.3894 -0.2475  0.4924
   25MOL   C30020508   6.848   5.236   1.941  0.0355  0.8551  0.1613
   25MOL   C30120509   6.912   5.161   1.825  0.5362  0.1032 -0.1399
   25MOL   C30220510   6.894   5.003   1.828 -0.1530  0.0197 -0.8614
   25MOL   C30320511   6.961   4.929   1.712  0.5716  0.0731  0.3052
   25MOL   C30420512   6.960   4.773   1.742  0.4951 -0.0697  0.0695
   25MOL   C30520513   7.028   4.699   1.624  0.2950  0.1563 -0.3162
   25MOL   C30620514   7.047   4.551   1.639  0.4992  0.3688  0.0565
   25MOL   C30720515   7.147   4.480   1.540 -0.6419 -0.0310  0.7102
   25MOL   C30820516   7.070   4.448   1.406  0.1715  0.8516  0.1732
   25MOL   C30920517   7.155   4.340   1.331  0.3511  0.1362 -0.2475
   25MOL   H31020518   6.811   5.155   2.468  0.4418  0.3430  0.6092
   25MOL   H31120519   6.842   5.069   2.321  0.5009  1.1392 -1.7468
   25MOL   H31220520   7.065   5.217   2.293 -1.2948  0.5324 -2.3080
   25MOL   H31320521   6.887   5.390   2.186  0.3421  0.5756  2.2323
   25MOL   H31420522   6.774   5.269   2.226  0.4234 -1.2273 -2.1647
   25MOL   H31520523   6.932   5.104   2.091  0.6012 -0.2812  0.2592
   25MOL   H31620524   7.031   5.241   2.054  0.4733 -1.1032 -0.4666
   25MOL   H31720525   6.739   5.223   1.943 -0.0925  1.6319 -1.1218
   25MOL   H31820526   6.866   5.341   1.918  3.5946  0.3706  0.5217
   25MOL   H31920527   7.016   5.191   1.818  0.6980 -0.5461 -0.5094
   25MOL   H32020528   6.854   5.196   1.740 -2.4760  0.6596  2.0235
   25MOL   H32120529   6.919   4.953   1.921  1.2813  0.0430 -1.2200
   25MOL   H32220530   6.789   4.975   1.823 -0.2278  0.3514 -1.1514
   25MOL   H32320531   7.057   4.976   1.693  0.1427  0.5507 -0.7764
   25MOL   H32420532   6.890   4.937   1.629 -0.7227  3.0653  1.6150
   25MOL   H32520533   7.017   4.758   1.834  0.6491 -1.4740 -0.2375
   25MOL   H32620534   6.855   4.745   1.748  1.1404 -2.7183 -0.0718
   25MOL   H32720535   7.125   4.744   1.606  1.0789 -2.0007 -1.7655
   25MOL   H32820536   6.968   4.705   1.533  1.1297 -0.5250 -0.9264
   25MOL   H32920537   6.947   4.510   1.651  0.8600 -0.7437 -0.6421
   25MOL   H33020538   7.088   4.542   1.740  0.2691  0.1024  0.1256
   25MOL   H33120539   7.180   4.389   1.589  2.7315  0.5024 -0.4162
   25MOL   H33220540   7.242   4.534   1.540 -0.5297 -0.1881 -1.3571
   25MOL   H33320541   7.051   4.533   1.341  0.7158 -0.9563 -2.4266
   25MOL   H33420542   6.969   4.406   1.417 -0.0922  0.9723 -1.5356
   25MOL   H33520543   7.185   4.262   1.401  0.7537  1.1951  0.7819
   25MOL   H33620544   7.107   4.299   1.242  1.3600 -1.1386 -0.2246
   25MOL   H33720545   7.252   4.384   1.307  0.5713 -0.0042  0.3856
   25MOL   C33820546   7.003   5.373   2.413 -0.2228  0.0053  0.0949
   25MOL   C33920547   7.113   5.374   2.519  0.1243  0.0343 -0.0044
   25MOL   C34020548   7.250   5.354   2.454  0.0727  0.5509 -0.8188
   25MOL   C34120549   7.338   5.248   2.531 -0.1282  0.2599 -0.6314
   25MOL   C34220550   7.486   5.256   2.490  0.1122 -0.7093  0.6960
   25MOL   C34320551   7.502   5.175   2.364  0.0705 -0.5577 -0.1226
   25MOL   C34420552   7.653   5.167   2.323  0.4612 -0.1474  1.0429
   25MOL   C34520553   7.680   5.070   2.208 -1.0789  0.2337  0.2836
   25MOL   C34620554   0.128   5.064   2.159 -0.0876 -0.5022 -0.2136
   25MOL   C34720555   0.145   4.976   2.033  0.0281 -1.0159 -0.2112
   25MOL   C34820556   0.286   4.963   1.957 -0.0303 -0.1746 -0.3384
   25MOL   C34920557   0.274   4.866   1.836  0.0499  0.6024 -0.2825
   25MOL   C35020558   0.231   4.726   1.895  0.0750 -0.0287  0.2034
   25MOL   C35120559   0.243   4.608   1.796 -0.1215  0.0368 -0.0091
   25MOL   H35220560   7.029   5.442   2.333 -0.2894  2.0140  1.7659
   25MOL   H35320561   6.912   5.419   2.451 -0.0382  1.4104 -1.1041
   25MOL   H35420562   7.090   5.283   2.574 -0.1577 -0.5166 -1.0268
   25MOL   H35520563   7.231   5.324   2.351 -0.2144  0.4059 -0.7238
   25MOL   H35620564   7.298   5.452   2.453  1.6039 -0.1874 -1.9816
   25MOL   H35720565   7.305   5.146   2.515  0.2019  0.4597 -2.8165
   25MOL   H35820566   7.318   5.255   2.638 -2.1619  0.8552 -1.0401
   25MOL   H35920567   7.547   5.207   2.565 -0.5659 -0.9007  1.1259
   25MOL   H36020568   7.510   5.362   2.478 -1.7966 -0.3654 -0.3718
   25MOL   H36120569   7.470   5.072   2.377 -0.9461 -0.5424 -2.2431
   25MOL   H36220570   7.438   5.226   2.291 -1.2553 -0.3333  1.1684
   25MOL   H36320571   7.683   5.268   2.293 -0.5689 -0.2313 -0.2896
   25MOL   H36420572   0.019   5.145   2.411  0.3585  0.8772  1.3758
   25MOL   H36520573   7.646   4.971   2.238  1.7103 -0.5808  0.9086
   25MOL   H36620574   7.618   5.101   2.124  0.4158 -0.9235 -1.2738
   25MOL   H36720575   0.172   5.162   2.139 -2.0451  0.4025 -0.2392
   25MOL   H36820576   0.192   5.018   2.233 -1.3119  0.6133  1.5720
   25MOL   H36920577   0.105   4.880   2.067  0.6607 -1.4259 -0.6254
   25MOL   H37020578   0.082   5.002   1.948 -0.6097  0.0405  0.5622
   25MOL   H37120579   0.359   4.934   2.033 -1.1774 -0.9688  0.4650
   25MOL   H37220580   0.322   5.062   1.927 -1.1889  0.4950  0.4430
   25MOL   H37320581   0.364   4.873   1.776 -0.6630 -0.4327 -1.4829
   25MOL   H37420582   0.187   4.896   1.777  0.2631  0.3353 -0.7343
   25MOL   H37520583   0.296   4.697   1.978 -0.9398 -0.8690  0.7145
   25MOL   H37620584   0.130   4.729   1.937 -0.3317  0.2025 -0.7904
   25MOL   H37720585   0.318   4.631   1.720  0.2399  0.4027  0.4597
   25MOL   H37820586   0.255   4.506   1.832 -1.3745 -0.7996 -1.8643
   25MOL   H37920587   0.146   4.600   1.747 -0.4431  0.1119  0.6138
   25MOL   C38020588   7.106   5.503   2.609  0.4378 -0.5472 -0.9961
   25MOL   C38120589   6.983   5.501   2.712 -0.1806  0.5771  0.0168
   25MOL   C38220590   7.028   5.419   2.838  0.3369  0.5827  0.2107
   25MOL   C38320591   6.922   5.381   2.932  0.8125 -0.3452 -0.1388
   25MOL   C38420592   6.972   5.283   3.031  0.5073  0.4354  0.0570
   25MOL   C38520593   6.858   5.240   3.128 -0.7598 -0.3745 -0.4425
   25MOL   C38620594   6.907   5.173   3.256 -0.5936 -0.0755 -0.5320
   25MOL   C38720595   6.788   5.130   3.344 -0.4042 -0.2090  0.2343
   25MOL   C38820596   6.837   5.053   3.468 -0.1217  0.1378 -0.1751
   25MOL   C38920597   6.729   5.040   3.577 -0.1820 -0.3311  0.2540
   25MOL   C39020598   6.720   5.158   3.677 -0.3946 -0.4808 -0.8751
   25MOL   C39120599   6.597   5.156   3.764 -0.4033  0.4260  0.0218
   25MOL   C39220600   6.579   5.291   3.839  0.5581  0.0276  0.4282
   25MOL   C39320601   6.448   5.305   3.909 -0.9715  0.0282  0.0833
   25MOL   H39420602   7.109   5.593   2.547  1.0833  1.3335  1.6611
   25MOL   H39520603   7.197   5.516   2.669 -0.8011  1.0077  0.6044
   25MOL   H39620604   6.890   5.460   2.673  0.3530 -0.8919  0.2885
   25MOL   H39720605   7.119   5.454   2.887  0.7715 -0.8383  0.4600
   25MOL   H39820606   7.075   5.329   2.799 -0.7419 -0.0755  0.4161
   25MOL   H39920607   6.852   5.338   2.861  1.6315 -1.4807 -0.2645
   25MOL   H40020608   6.861   5.461   2.975 -0.5841 -0.5675 -1.6566
   25MOL   H40120609   7.046   5.345   3.082 -0.8508  0.7124  1.7496
   25MOL   H40220610   7.018   5.194   2.988 -1.8275 -0.5078 -0.5469
   25MOL   H40320611   6.797   5.178   3.062 -1.1247  1.2189 -1.6092
   25MOL   H40420612   6.793   5.324   3.148  0.1496  0.0431  0.8045
   25MOL   H40520613   6.960   5.086   3.216  0.0272  0.4585 -0.8919
   25MOL   H40620614   6.970   5.233   3.322 -0.8303 -0.6573  0.2193
   25MOL   H40720615   6.741   5.225   3.370 -0.2603  0.2634 -1.2144
   25MOL   H40820616   6.728   5.070   3.276  0.1659 -0.3576 -0.1390
   25MOL   H40920617   6.866   4.952   3.439 -2.7645 -0.3456 -1.3744
   25MOL   H41020618   6.919   5.115   3.503  0.3271 -0.8925  0.6003
   25MOL   H41120619   6.771   4.956   3.632  0.0714  1.3198  2.6840
   25MOL   H41220620   6.635   5.006   3.533 -1.4279  1.9979  1.0197
   25MOL   H41320621   6.812   5.148   3.733 -0.7409  1.9929  0.2184
   25MOL   H41420622   6.706   5.241   3.607 -2.0326 -0.7754 -0.9352
   25MOL   H41520623   6.602   5.081   3.843 -1.3278 -0.5936 -0.8677
   25MOL   H41620624   6.508   5.137   3.704  0.1318  1.6657 -1.2026
   25MOL   H41720625   6.654   5.303   3.917  0.2730 -0.5917  0.8034
   25MOL   H41820626   6.586   5.375   3.770 -0.2743  1.6063  2.2491
   25MOL   H41920627   6.444   5.401   3.961  0.1636 -0.5212  1.2274
   25MOL   H42020628   6.444   5.231   3.990 -0.7404  1.0382  1.0297
   25MOL   H42120629   6.363   5.297   3.841 -0.1255 -0.1452 -0.9691
   25MOL   C42220630   6.945   5.643   2.761 -0.0717 -0.4266  0.2173
   25MOL   C42320631   6.862   5.731   2.662 -0.1675  0.2082  0.5825
   25MOL   C42420632   6.719   5.692   2.677 -0.3446 -0.1381  0.0688
   25MOL   C42520633   6.635   5.728   2.554 -0.0505 -0.3050  0.2592
   25MOL   C42620634   6.489   5.677   2.582  0.1226  0.6391 -0.0764
   25MOL   C42720635   6.392   5.787   2.634  0.0292 -0.0924 -0.1883
   25MOL   C42820636   6.269   5.730   2.694  0.5630 -0.1392 -0.2422
   25MOL   C42920637   6.169   5.828   2.764  0.7517 -0.5129  0.0729
   25MOL   C43020638   6.052   5.766   2.840 -0.0168  0.4698  0.0605
   25MOL   C43120639   5.966   5.679   2.748  0.4129 -0.5244  0.2410
   25MOL   C43220640   5.865   5.588   2.824 -0.0979 -0.2918 -0.2348
   25MOL   C43320641   5.762   5.523   2.734  0.0389  0.3332  0.4978
   25MOL   C43420642   5.667   5.412   2.780 -0.3422 -0.1711 -0.3414
   25MOL   C43520643   5.577   5.364   2.662 -0.1123  0.0472  0.3618
   25MOL   H43620644   7.037   5.692   2.793 -0.9785  1.2713  0.2405
   25MOL   H43720645   6.888   5.635   2.854 -0.9927 -0.8989 -0.3874
   25MOL   H43820646   6.903   5.707   2.564 -0.1455  0.7409  0.4596
   25MOL   H43920647   6.686   5.749   2.764  2.0045 -1.0373  1.6016
   25MOL   H44020648   6.706   5.587   2.703 -0.2184 -0.5563 -1.4990
   25MOL   H44120649   6.643   5.832   2.523 -0.1984  0.1844  1.8156
   25MOL   H44220650   6.664   5.670   2.466 -0.4641  1.3924 -1.0261
   25MOL   H44320651   6.485   5.589   2.647  0.9165  0.0267 -0.8347
   25MOL   H44420652   6.443   5.655   2.485 -2.9474 -1.3488  1.7464
   25MOL   H44520653   6.359   5.852   2.552 -0.4095 -1.4143 -1.0714
   25MOL   H44620654   6.445   5.856   2.700  1.5895  1.1252 -2.6397
   25MOL   H44720655   6.235   5.663   2.616 -0.3574  0.1953 -0.1323
   25MOL   H44820656   6.308   5.658   2.767  1.8951 -0.0991 -0.8916
   25MOL   H44920657   6.226   5.879   2.842 -1.0683  2.1667 -0.2986
   25MOL   H45020658   6.135   5.890   2.681 -2.4021 -0.3427  1.4468
   25MOL   H45120659   6.106   5.703   2.910 -1.7281 -0.4959  0.5421
   25MOL   H45220660   5.991   5.829   2.905  0.7784 -0.3813  1.6374
   25MOL   H45320661   5.925   5.743   2.670  1.6174 -0.5562 -0.4450
   25MOL   H45420662   6.034   5.615   2.691  0.1739  0.2671 -0.9331
   25MOL   H45520663   5.918   5.514   2.885 -1.1744 -1.6935 -0.9766
   25MOL   H45620664   5.817   5.645   2.904 -1.6996  1.0538 -2.1040
   25MOL   H45720665   5.820   5.485   2.650  0.9953 -0.1522  1.3667
   25MOL   H45820666   5.703   5.605   2.693  1.1077  0.5879 -0.5577
   25MOL   H45920667   5.705   5.326   2.835 -1.0712  0.0924  0.5806
   25MOL   H46020668   5.597   5.448   2.856  0.4441  0.8822 -0.1005
   25MOL   H46120669   5.542   5.452   2.607 -0.9400 -0.4963  0.0136
   25MOL   H46220670   5.502   5.295   2.700 -0.2973 -1.0166 -1.9230
   25MOL   H46320671   5.630   5.304   2.589 -0.6700  2.1293 -1.8296
   25MOL   C46420672   6.876   5.891   2.682  0.3893  0.0327 -0.2329
   25MOL   C46520673   6.987   5.962   2.593  0.2652 -0.6500  0.3597
   25MOL   C46620674   6.979   6.116   2.593 -0.4111 -0.0349 -0.7403
   25MOL   C46720675   6.975   6.204   2.721 -0.0054 -0.8408  0.1475
   25MOL   C46820676   6.963   6.351   2.683  0.3671 -0.7137 -0.0568
   25MOL   C46920677   7.108   6.414   2.679 -0.1616 -0.1838 -0.6649
   25MOL   C47020678   7.104   6.553   2.623 -0.1504 -0.0819 -0.2978
   25MOL   C47120679   7.239   6.622   2.659  0.1064  0.7990 -0.4312
   25MOL   C47220680   7.276   6.746   2.580  0.1832 -0.5697 -0.3734
   25MOL   C47320681   7.439   6.758   2.563  0.3555  0.5679 -0.1363
   25MOL   C47420682   7.453   6.878   2.478 -0.2992  0.6239 -0.4946
   25MOL   C47520683   7.594   6.897   2.410 -0.3057 -0.1077 -0.1977
   25MOL   C47620684   7.585   6.993   2.286  0.1178  0.2056  0.4556
   25MOL   C47720685   0.016   7.025   2.207 -1.1714 -0.0456 -0.5811
   25MOL   H47820686   6.893   5.917   2.786  1.8951  0.1866 -0.5116
   25MOL   H47920687   6.786   5.947   2.656  0.5411  0.5662  0.3864
   25MOL   H48020688   6.957   5.938   2.491 -1.1402 -2.0147  1.0680
   25MOL   H48120689   7.041   6.163   2.517  0.8633 -1.6766 -0.7516
   25MOL   H48220690   6.885   6.137   2.542 -0.2337  0.4556 -0.8719
   25MOL   H48320691   7.063   6.189   2.783  0.6516  0.7872 -0.3612
   25MOL   H48420692   6.884   6.165   2.768 -0.6387 -1.7022 -1.7340
   25MOL   H48520693   6.903   6.406   2.756 -0.8003 -1.6127 -0.3250
   25MOL   H48620694   6.913   6.359   2.587  1.5215  0.6731 -0.5671
   25MOL   H48720695   7.152   6.418   2.779 -0.9487  1.8013 -0.3800
   25MOL   H48820696   7.167   6.343   2.621 -0.1685 -1.9123  1.3433
   25MOL   H48920697   7.082   6.547   2.517  2.4269 -0.8799 -0.8367
   25MOL   H49020698   7.034   6.615   2.679  2.6314  1.0250  2.0783
   25MOL   H49120699   7.251   6.626   2.767  0.9250 -0.9586 -0.4257
   25MOL   H49220700   7.322   6.560   2.623  0.0088  0.1091  0.5028
   25MOL   H49320701   7.238   6.739   2.478 -1.7623 -0.8809  0.3361
   25MOL   H49420702   7.223   6.832   2.621  2.3665  0.2907  0.7234
   25MOL   H49520703   7.487   6.767   2.661 -1.2820 -0.0533  0.7473
   25MOL   H49620704   7.481   6.669   2.517 -0.7041 -0.0477  0.0688
   25MOL   H49720705   7.380   6.878   2.397  1.7002 -0.2909 -2.3773
   25MOL   H49820706   7.427   6.967   2.535 -1.5943  0.5995 -1.0260
   25MOL   H49920707   7.628   6.800   2.373 -1.5844 -0.8489  0.5395
   25MOL   H50020708   7.680   6.913   2.475  2.2832 -0.5592 -3.3533
   25MOL   H50120709   7.511   6.955   2.216  0.3839  0.3762  0.0799
   25MOL   H50220710   7.540   7.087   2.317 -0.6172 -0.3180  0.9829
   25MOL   H50320711   7.679   7.105   2.141 -1.2002 -0.4846 -1.1026
   25MOL   H50420712   0.096   7.070   2.265 -1.3515 -1.6611  0.9417
   25MOL   H50520713   0.044   6.943   2.140 -1.1947  0.9776 -1.8671
   25MOL   C50620714   7.132   5.907   2.622  0.5970 -0.2063  0.2789
   25MOL   C50720715   7.252   5.966   2.547 -0.2800 -0.0457  0.0263
   25MOL   C50820716   7.382   5.929   2.620 -0.5389 -0.4046 -0.0049
   25MOL   C50920717   7.425   5.781   2.625  0.3987  0.1621 -0.4580
   25MOL   C51020718   7.559   5.761   2.698 -0.0430 -0.3839 -0.7524
   25MOL   C51120719   7.618   5.627   2.676  0.0225  0.4756 -0.5012
   25MOL   C51220720   0.061   5.615   2.757 -0.0252 -0.2900  0.4224
   25MOL   C51320721   0.097   5.465   2.760  0.2899  0.2096 -0.6144
   25MOL   C51420722   0.205   5.435   2.867  0.0381 -0.5052  0.2326
   25MOL   C51520723   0.272   5.290   2.853 -0.5344  0.2241 -0.1427
   25MOL   C51620724   0.164   5.182   2.856 -0.0537  0.4095 -0.0881
   25MOL   C51720725   0.213   5.033   2.855  0.1482 -0.0473 -0.1717
   25MOL   C51820726   0.135   4.937   2.937  0.1434 -0.0134 -0.0404
   25MOL   C51920727   7.686   4.916   2.879  0.1704 -0.2241 -0.3215
   25MOL   H52020728   7.122   5.800   2.605  0.4246  0.0629 -1.3841
   25MOL   H52120729   7.145   5.922   2.729  0.6640  0.2920  0.2030
   25MOL   H52220730   7.246   6.074   2.563 -1.0319 -0.2353  1.0592
   25MOL   H52320731   7.465   5.987   2.578 -0.8970 -0.0025 -0.1576
   25MOL   H52420732   7.379   5.967   2.722  0.1280 -0.4337  0.0332
   25MOL   H52520733   7.345   5.732   2.681  2.1911 -0.3195  1.7520
   25MOL   H52620734   7.430   5.733   2.528  1.0052  0.6624 -0.6775
   25MOL   H52720735   7.560   5.800   2.800 -0.4121 -0.3563 -0.7581
   25MOL   H52820736   7.624   5.834   2.651 -1.3860  1.4587  0.1807
   25MOL   H52920737   7.629   5.608   2.569 -0.9755 -1.6236 -0.2546
   25MOL   H53020738   7.551   5.549   2.711  0.0253  0.5070 -0.4258
   25MOL   H53120739   0.148   5.663   2.711 -1.9695  1.4706 -1.4982
   25MOL   H53220740   0.054   5.656   2.858 -3.5927 -0.8382  0.4416
   25MOL   H53320741   0.129   5.431   2.661 -0.7757 -0.8202 -0.6219
   25MOL   H53420742   0.008   5.413   2.795 -0.6841  1.5097 -1.1739
   25MOL   H53520743   0.166   5.439   2.969  0.1407  0.1465  0.2494
   25MOL   H53620744   0.281   5.513   2.863 -1.2607  0.6973 -2.5163
   25MOL   H53720745   0.329   5.284   2.760  0.2845 -1.3486  0.4377
   25MOL   H53820746   0.339   5.264   2.935  0.3594  0.4938 -0.7680
   25MOL   H53920747   0.108   5.196   2.949  2.0243 -0.2137  1.2942
   25MOL   H54020748   0.096   5.192   2.772 -0.3131  2.3355  0.3352
   25MOL   H54120749   0.319   5.028   2.881 -0.3857 -2.2233  1.7584
   25MOL   H54220750   0.214   5.006   2.749  1.5072  0.5123 -0.3121
   25MOL   H54320751   0.127   4.944   3.046  2.0648 -1.3593  0.2234
   25MOL   H54420752   0.191   4.843   2.934  0.7707  0.3828 -1.4986
   25MOL   H54520753   7.629   5.008   2.893 -1.3341 -1.3361  0.9641
   25MOL   H54620754   0.001   4.897   2.772  0.1390  0.5988 -0.4792
   25MOL   H54720755   7.624   4.839   2.924 -0.0510  1.0643  1.6457
   25MOL   C54820756   7.250   5.915   2.399 -0.1661  0.1396 -0.2366
   25MOL   C54920757   7.188   6.012   2.290  0.0605  0.1419  0.1683
   25MOL   C55020758   7.275   6.138   2.270  0.7456  0.2515 -0.2176
   25MOL   C55120759   7.213   6.244   2.170 -0.1586 -0.2002  0.4693
   25MOL   C55220760   7.298   6.376   2.159  0.7341 -0.0200 -0.4846
   25MOL   C55320761   7.225   6.501   2.106  0.2517 -1.4221 -0.4140
   25MOL   C55420762   7.291   6.643   2.145  0.3875  0.0666 -0.1970
   25MOL   C55520763   7.233   6.759   2.061 -0.3775  0.1522 -0.3524
   25MOL   C55620764   7.086   6.795   2.092  0.2084 -0.9516  0.9156
   25MOL   C55720765   7.065   6.804   2.238 -0.0307  0.1193 -0.5407
   25MOL   C55820766   6.919   6.837   2.280 -0.4593 -0.0419 -0.3172
   25MOL   C55920767   6.892   6.837   2.439 -0.1050 -0.6088 -0.1594
   25MOL   C56020768   6.747   6.870   2.468  0.0898  0.4117 -0.2792
   25MOL   C56120769   6.721   6.920   2.604 -0.4055  0.7113  0.2276
   25MOL   H56220770   7.348   5.881   2.365 -0.0517  1.7675 -1.5903
   25MOL   H56320771   7.199   5.819   2.401 -0.5341  0.2741 -1.9346
   25MOL   H56420772   7.087   6.040   2.318 -1.0183 -2.2170 -1.2147
   25MOL   H56520773   7.286   6.174   2.372  1.0689  0.1308 -0.2089
   25MOL   H56620774   7.376   6.104   2.248  1.5178 -0.4126  3.9339
   25MOL   H56720775   7.110   6.257   2.203 -0.1655 -3.0411  1.6985
   25MOL   H56820776   7.204   6.204   2.068 -1.4579  1.3649 -0.0518
   25MOL   H56920777   7.319   6.407   2.262 -1.4450 -0.6762  0.1802
   25MOL   H57020778   7.400   6.363   2.122  1.2948 -2.3825  1.7327
   25MOL   H57120779   7.120   6.499   2.132  0.6106  0.9116  1.3417
   25MOL   H57220780   7.227   6.493   1.997  1.9652 -0.2497 -0.4959
   25MOL   H57320781   7.283   6.660   2.252  1.0974 -1.4066  0.0976
   25MOL   H57420782   7.395   6.627   2.117  0.9802  1.3363  1.2315
   25MOL   H57520783   7.236   6.723   1.959  1.0652  0.1325 -0.3226
   25MOL   H57620784   7.290   6.849   2.085  0.7439 -0.7529  0.4825
   25MOL   H57720785   7.016   6.726   2.047 -1.3297  1.4584 -0.5109
   25MOL   H57820786   7.072   6.897   2.055 -0.7171 -0.8151  1.6121
   25MOL   H57920787   7.081   6.708   2.285  0.2921  1.3765  2.0127
   25MOL   H58020788   7.134   6.875   2.283 -0.3521  0.5860 -0.7709
   25MOL   H58120789   6.842   6.768   2.247  1.0084 -2.1661  0.5741
   25MOL   H58220790   6.900   6.933   2.232  1.0510 -0.8587 -2.6349
   25MOL   H58320791   6.916   6.734   2.468 -0.2098 -0.4987  0.3099
   25MOL   H58420792   6.957   6.914   2.480 -1.0146 -0.1913  0.5203
   25MOL   H58520793   6.716   6.950   2.401  3.7620  1.0581 -1.3224
   25MOL   H58620794   6.688   6.785   2.433 -1.0587  1.9272 -2.1919
   25MOL   H58720795   6.756   6.838   2.667  1.3093  1.9784  0.9466
   25MOL   H58820796   6.764   7.019   2.621  0.7391  0.0709  1.1482
   25MOL   H58920797   6.614   6.932   2.624 -0.3898  0.5938  0.3828
   25MOL   C59020798   7.179   5.932   2.153  1.2990  0.3587 -0.5809
   25MOL   C59120799   7.089   5.799   2.149  0.0142 -0.7968 -0.2196
   25MOL   C59220800   6.940   5.836   2.171  0.1185  0.1190  0.7972
   25MOL   C59320801   6.841   5.716   2.174  0.2347  0.2469  0.0485
   25MOL   C59420802   6.693   5.761   2.170  0.1970 -0.9592 -0.8728
   25MOL   C59520803   6.597   5.645   2.178 -0.0841  0.3560 -0.7681
   25MOL   C59620804   6.459   5.704   2.194 -0.1493 -0.1735 -0.0685
   25MOL   C59720805   6.354   5.594   2.223  0.3989 -0.1932  0.3279
   25MOL   C59820806   6.220   5.651   2.252 -0.2258  0.1142 -0.3502
   25MOL   C59920807   6.121   5.539   2.270  0.8303 -0.4428  0.1232
   25MOL   C60020808   5.973   5.579   2.285 -0.0937  0.7241 -0.2494
   25MOL   C60120809   5.891   5.452   2.286  0.6013 -0.5081  0.0338
   25MOL   C60220810   5.748   5.486   2.264  0.3643 -0.1541 -0.0043
   25MOL   C60320811   5.677   5.356   2.226 -0.0826 -0.1734 -0.6593
   25MOL   H60420812   7.284   5.912   2.131  1.1385 -0.4559 -0.6182
   25MOL   H60520813   7.137   5.998   2.077 -0.4931 -0.7656 -0.5917
   25MOL   H60620814   7.122   5.740   2.234 -1.0122  1.5715  1.8813
   25MOL   H60720815   6.918   5.906   2.090  0.9281 -0.1679  0.3288
   25MOL   H60820816   6.935   5.887   2.267 -1.3877 -0.7356  1.2028
   25MOL   H60920817   6.845   5.668   2.272  2.7619  0.9894  0.3510
   25MOL   H61020818   6.853   5.643   2.094  0.7030  0.2727  0.0947
   25MOL   H61120819   6.677   5.814   2.075 -1.2746 -1.0659 -0.6991
   25MOL   H61220820   6.673   5.825   2.256  0.2049 -0.6259 -1.1173
   25MOL   H61320821   6.635   5.588   2.264  2.0805  0.4382 -1.6386
   25MOL   H61420822   6.599   5.583   2.088 -0.1210 -3.5981  1.8018
   25MOL   H61520823   6.451   5.777   2.275  1.5150 -0.5828  0.4741
   25MOL   H61620824   6.422   5.753   2.103  1.8018  2.0559  0.2944
   25MOL   H61720825   6.364   5.526   2.138  0.3443 -0.5001  0.5644
   25MOL   H61820826   6.385   5.544   2.315 -0.6663  0.8276  1.2556
   25MOL   H61920827   6.231   5.718   2.338  0.2847 -0.1944 -0.1771
   25MOL   H62020828   6.191   5.716   2.169  0.8109 -0.0072 -0.8115
   25MOL   H62120829   6.131   5.484   2.176  1.0936 -1.1355  0.5503
   25MOL   H62220830   6.150   5.474   2.353  0.3029 -0.8145  0.0176
   25MOL   H62320831   5.932   5.623   2.194 -0.1756  0.3357 -0.4021
   25MOL   H62420832   5.961   5.643   2.372  1.3511 -0.7556  1.0745
   25MOL   H62520833   5.917   5.386   2.368  2.8468  1.1526  0.7151
   25MOL   H62620834   5.921   5.391   2.201 -2.0525 -2.7561  0.6315
   25MOL   H62720835   5.703   5.519   2.358 -2.1046 -0.4782 -1.0296
   25MOL   H62820836   5.724   5.566   2.194  0.1914  0.4854  0.7792
   25MOL   H62920837   5.568   5.361   2.219  0.0160  0.8602 -1.6470
   25MOL   H63020838   5.693   5.275   2.297 -1.7680 -1.2559 -1.4722
   25MOL   H63120839   5.712   5.319   2.129 -0.1267  0.0424 -0.7601
   25MOL   C63220840   7.110   5.725   2.015  0.3211  0.4807  0.1181
   25MOL   C63320841   7.251   5.669   1.993  0.3824  0.9156  0.4626
   25MOL   C63420842   7.239   5.515   2.027 -0.8347 -0.0080  0.6047
   25MOL   C63520843   7.373   5.453   2.052  0.1310  0.9303  0.7311
   25MOL   C63620844   7.382   5.307   2.010 -0.0119 -0.2519 -0.4337
   25MOL   C63720845   7.414   5.291   1.861 -0.4803 -0.3548  0.8053
   25MOL   C63820846   7.388   5.147   1.810  0.0180  0.0061 -0.1096
   25MOL   C63920847   7.392   5.137   1.655 -0.5403 -0.5310  0.4684
   25MOL   C64020848   7.389   4.994   1.601  0.7247  0.7283  0.0760
   25MOL   C64120849   7.426   4.973   1.449 -0.2193 -0.6158 -0.9456
   25MOL   C64220850   7.400   4.832   1.397 -0.0237 -0.0797  0.3814
   25MOL   C64320851   7.441   4.795   1.252 -0.6182  0.2204 -0.0545
   25MOL   C64420852   7.327   4.806   1.158 -0.0932 -0.4815 -0.2426
   25MOL   C64520853   7.368   4.757   1.025  0.3444  0.1486 -0.6806
   25MOL   H64620854   7.083   5.785   1.929  2.8142  0.9344 -0.3831
   25MOL   H64720855   7.034   5.647   2.007  1.9148 -1.2643  1.4223
   25MOL   H64820856   7.323   5.714   2.061 -0.4302  2.7462  0.1398
   25MOL   H64920857   7.179   5.492   2.115 -1.0149 -1.0681  0.2163
   25MOL   H65020858   7.195   5.469   1.938  4.0832 -3.3263 -0.3529
   25MOL   H65120859   7.388   5.456   2.160 -1.3119 -1.1489  1.0254
   25MOL   H65220860   7.446   5.510   1.995 -1.6994 -0.1870 -2.8873
   25MOL   H65320861   7.294   5.249   2.038 -0.8150  0.0089 -2.3599
   25MOL   H65420862   7.458   5.260   2.072  2.1361  1.9357 -1.3266
   25MOL   H65520863   7.351   5.361   1.806 -1.5599 -4.9416 -4.2203
   25MOL   H65620864   7.514   5.321   1.831 -1.9487  2.9234 -1.2186
   25MOL   H65720865   7.469   5.084   1.846 -0.2738 -0.6094 -0.5236
   25MOL   H65820866   7.299   5.100   1.853  0.5684  0.3481  1.4584
   25MOL   H65920867   7.474   5.188   1.604 -3.1071  0.8544 -2.4156
   25MOL   H66020868   7.301   5.180   1.613  0.9758  1.2415 -1.1012
   25MOL   H66120869   7.295   4.945   1.626  0.6392  1.5732  1.4559
   25MOL   H66220870   7.462   4.943   1.663 -1.1861 -0.7243  1.2104
   25MOL   H66320871   7.370   5.047   1.391  0.1142  0.2689 -0.1303
   25MOL   H66420872   7.533   4.992   1.449  0.2432 -3.0254 -0.9291
   25MOL   H66520873   7.442   4.773   1.478  2.4588  0.3645 -0.5374
   25MOL   H66620874   7.294   4.825   1.422  0.1555 -0.4685  1.0380
   25MOL   H66720875   7.491   4.698   1.248  0.1256  0.5728  0.7514
   25MOL   H66820876   7.522   4.862   1.223  2.4890 -3.6921 -0.8344
   25MOL   H66920877   7.306   4.913   1.155 -1.2743 -0.7297 -1.7509
   25MOL   H67020878   7.235   4.756   1.190 -0.9726 -0.2376 -2.2857
   25MOL   H67120879   7.463   4.799   0.995  1.2842 -0.9987  0.6425
   25MOL   H67220880   7.374   4.648   1.026 -1.9253 -0.0069 -0.0206
   25MOL   H67320881   7.297   4.776   0.944  1.0407  0.3177 -1.2580
   25MOL   C67420882   7.296   5.682   1.840 -0.3389 -0.0332 -0.1968
   25MOL   C67520883   7.330   5.827   1.804  0.3000  0.2270  0.0031
   25MOL   C67620884   7.489   5.833   1.803  0.2026 -0.2954 -0.4340
   25MOL   C67720885   7.549   5.981   1.818 -0.3498  0.0246 -0.0913
   25MOL   C67820886   7.500   6.059   1.944  0.1731  1.1212  0.3189
   25MOL   C67920887   7.576   6.182   1.974  0.2208  0.3886 -0.1513
   25MOL   C68020888   7.538   6.281   1.865 -0.0931 -0.4363 -0.4120
   25MOL   C68120889   7.636   6.396   1.855 -0.2417 -0.9710  0.1315
   25MOL   C68220890   7.594   6.513   1.754  0.0492 -1.0328 -0.5333
   25MOL   C68320891   7.503   6.624   1.811  0.7307 -0.5793  0.2241
   25MOL   C68420892   7.503   6.749   1.729  0.3991 -0.0978 -0.1020
   25MOL   C68520893   7.414   6.854   1.788  0.1788 -0.3774  0.8097
   25MOL   C68620894   7.424   6.991   1.712 -0.6401 -0.0067 -0.2996
   25MOL   C68720895   7.347   7.098   1.788  0.8462 -0.0673 -0.4369
   25MOL   H68820896   7.215   5.641   1.779  0.9418 -0.6113 -1.5494
   25MOL   H68920897   7.381   5.618   1.814  0.2413  0.7253 -0.1961
   25MOL   H69020898   7.295   5.879   1.893  0.6762  3.2901 -1.5602
   25MOL   H69120899   7.536   5.770   1.878 -2.5411  1.1578  2.6290
   25MOL   H69220900   7.529   5.786   1.713  0.0748 -0.4666 -0.4011
   25MOL   H69320901   7.656   5.964   1.820 -0.7378 -2.7477 -0.0414
   25MOL   H69420902   7.527   6.035   1.726  1.1184  0.1781 -0.3595
   25MOL   H69520903   7.393   6.081   1.937  0.0598  0.0816 -1.3809
   25MOL   H69620904   7.515   5.997   2.032  4.9237 -0.9144 -1.7766
   25MOL   H69720905   7.543   6.206   2.075 -0.6567  0.5945 -0.4735
   25MOL   H69820906   7.684   6.175   1.968  0.0685 -0.2779 -3.0009
   25MOL   H69920907   7.537   6.237   1.766 -0.3562  1.6968 -1.3762
   25MOL   H70020908   7.435   6.310   1.885  0.7821  1.9761  0.9297
   25MOL   H70120909   7.640   6.441   1.955  0.1522 -0.6047 -0.0491
   25MOL   H70220910   0.041   6.359   1.836  0.1399 -0.0199  0.2534
   25MOL   H70320911   7.690   6.562   1.737 -0.2455 -0.2248  0.1007
   25MOL   H70420912   7.549   6.471   1.664  0.2235 -2.5373  0.0633
   25MOL   H70520913   7.519   6.645   1.917 -1.5339  2.6686  0.0097
   25MOL   H70620914   7.399   6.592   1.808  0.4692  0.4143 -1.6598
   25MOL   H70720915   7.476   6.739   1.624  0.8065  1.3148 -0.3576
   25MOL   H70820916   7.604   6.783   1.706 -1.0711  1.5523 -4.6901
   25MOL   H70920917   7.431   6.862   1.895  1.4562 -0.2079  0.6028
   25MOL   H71020918   7.314   6.814   1.770  0.9193 -1.3577 -1.2648
   25MOL   H71120919   7.526   7.027   1.720 -0.9314  1.4271 -2.5453
   25MOL   H71220920   7.406   6.978   1.606 -1.8641 -0.2128 -0.0757
   25MOL   H71320921   7.240   7.082   1.799  0.9430 -0.7383 -0.4502
   25MOL   H71420922   7.378   7.097   1.892  0.8020  0.2671 -0.4203
   25MOL   H71520923   7.361   7.193   1.736 -1.3022  0.1147 -0.7281
   25MOL   C71620924   7.264   5.876   1.669 -0.1327  0.3417 -0.0182
   25MOL   C71720925   7.114   5.916   1.679  0.0649 -0.0915 -0.3328
   25MOL   C71820926   7.088   6.048   1.755 -0.1317 -0.0606  0.5143
   25MOL   C71920927   7.117   6.176   1.679 -0.6283 -0.0936  0.4784
   25MOL   C72020928   7.100   6.293   1.768 -0.5534 -0.3842  0.2783
   25MOL   C72120929   6.989   6.389   1.711 -0.4335  0.6585  0.1878
   25MOL   C72220930   6.952   6.502   1.803  0.0965  0.1974 -0.6620
   25MOL   C72320931   6.822   6.573   1.759 -0.7604  0.5772  0.4879
   25MOL   C72420932   6.773   6.689   1.843 -1.3005 -0.1566  0.1442
   25MOL   C72520933   6.708   6.648   1.971  0.7607 -0.0429  0.1478
   25MOL   C72620934   6.648   6.761   2.057  0.4347  0.1185  0.1147
   25MOL   C72720935   6.522   6.815   1.994  0.3156 -0.1885 -0.1962
   25MOL   C72820936   6.433   6.905   2.090  0.0188  0.0500 -0.2501
   25MOL   C72920937   6.336   6.977   2.003 -0.8050 -0.2665  0.4908
   25MOL   H73020938   7.323   5.960   1.631  0.0724 -0.3672 -1.3076
   25MOL   H73120939   7.277   5.793   1.599 -1.1678  1.0637 -1.0971
   25MOL   H73220940   7.065   5.835   1.733 -0.8576 -0.3868 -1.6035
   25MOL   H73320941   7.150   6.041   1.844  0.8222  0.8505 -0.0687
   25MOL   H73420942   6.986   6.055   1.794 -0.5870  0.8680 -0.7884
   25MOL   H73520943   7.221   6.168   1.647 -1.1124  2.9705 -2.2182
   25MOL   H73620944   7.058   6.181   1.587  0.2629  0.1874 -0.0898
   25MOL   H73720945   7.084   6.268   1.872  0.2574  0.4388  0.6153
   25MOL   H73820946   7.195   6.348   1.768 -0.5195 -0.3841  3.0052
   25MOL   H73920947   7.008   6.429   1.612 -0.1860  1.6482  0.6284
   25MOL   H74020948   6.906   6.319   1.699 -0.5940  0.2646  3.1524
   25MOL   H74120949   6.942   6.459   1.903 -0.3065  1.1239 -0.2984
   25MOL   H74220950   7.032   6.573   1.821  0.6724 -1.2246  2.8679
   25MOL   H74320951   6.737   6.504   1.751 -0.3182  0.1243 -0.3329
   25MOL   H74420952   6.835   6.616   1.660  0.8442 -0.4785  0.2227
   25MOL   H74520953   6.857   6.757   1.852 -1.4699  0.2136 -0.9949
   25MOL   H74620954   6.698   6.738   1.781  0.5534  0.8538 -1.3421
   25MOL   H74720955   6.623   6.581   1.962  1.6197 -1.1125 -0.1029
   25MOL   H74820956   6.782   6.599   2.034  1.8907  2.0197  0.4847
   25MOL   H74920957   6.617   6.704   2.145 -0.1944  1.4742  0.7882
   25MOL   H75020958   6.716   6.841   2.086 -0.9110  0.5585  2.1467
   25MOL   H75120959   6.558   6.874   1.909 -1.3898 -0.1057 -0.8916
   25MOL   H75220960   6.460   6.735   1.953 -1.2309  2.1056 -2.5214
   25MOL   H75320961   6.494   6.976   2.146 -2.3935  0.3493  2.0945
   25MOL   H75420962   6.378   6.844   2.162 -3.1761  0.6544 -2.0655
   25MOL   H75520963   6.253   7.017   2.060 -1.0912  0.8047 -0.6451
   25MOL   H75620964   6.275   6.908   1.944  0.3746 -1.1214  0.2493
   25MOL   H75720965   6.384   7.057   1.946 -1.3558 -1.8780 -2.3134
   25MOL   C75820966   7.035   5.907   1.546 -0.4201  0.3971  0.8285
   25MOL   C75920967   6.878   5.878   1.580 -0.3145 -0.8795 -0.3888
   25MOL   C76020968   6.786   5.981   1.513  0.0388  0.0077 -0.9271
   25MOL   C76120969   6.799   5.997   1.363  0.1074 -0.0074 -0.2983
   25MOL   C76220970   6.698   6.103   1.313  0.2905 -0.3712  0.4661
   25MOL   C76320971   6.721   6.139   1.163  0.1960  0.1454 -0.2236
   25MOL   C76420972   6.631   6.244   1.106  0.2661  0.6168 -0.2151
   25MOL   C76520973   6.482   6.205   1.084 -0.2168 -0.3885 -0.0464
   25MOL   C76620974   6.415   6.301   0.987  0.8277 -0.5015 -0.1848
   25MOL   C76720975   6.259   6.280   0.977  0.3474  0.0886 -0.0880
   25MOL   C76820976   6.200   6.382   0.882 -0.4531 -0.2997  0.2442
   25MOL   C76920977   6.051   6.372   0.860 -0.7430 -0.2587 -0.1367
   25MOL   C77020978   5.993   6.261   0.774 -0.5109  0.4832 -0.2624
   25MOL   C77120979   5.842   6.278   0.746 -0.4601 -0.3505  0.5155
   25MOL   H77220980   7.048   5.993   1.481  1.7801 -0.5955 -0.0879
   25MOL   H77320981   7.090   5.834   1.486 -1.8058 -0.6983  0.8628
   25MOL   H77420982   6.862   5.883   1.687  1.8623  0.5949 -0.1100
   25MOL   H77520983   6.685   5.942   1.524 -0.4062  1.1045 -1.0884
   25MOL   H77620984   6.800   6.078   1.561 -0.0874 -0.3183 -0.2202
   25MOL   H77720985   6.900   6.021   1.331  0.5508 -2.5535 -0.9534
   25MOL   H77820986   6.785   5.895   1.326  2.0929 -0.3815 -0.0535
   25MOL   H77920987   6.716   6.189   1.378  0.1074  0.9825 -1.2437
   25MOL   H78020988   6.595   6.071   1.330  0.2642  0.3450  1.7039
   25MOL   H78120989   6.712   6.052   1.098 -1.7970 -0.1236  0.3583
   25MOL   H78220990   6.821   6.179   1.153  0.3437  0.2986  1.7930
   25MOL   H78320991   6.637   6.333   1.169  0.3349 -0.8204  1.8506
   25MOL   H78420992   6.673   6.278   1.011 -2.4114  3.7995 -0.3464
   25MOL   H78520993   6.433   6.207   1.181 -0.0356 -1.6031  0.0879
   25MOL   H78620994   6.474   6.103   1.045 -2.7374 -0.2614  0.0481
   25MOL   H78720995   6.451   6.281   0.886  1.6923 -0.0284  0.0244
   25MOL   H78820996   6.426   6.402   1.027 -0.2301 -0.1687 -0.6892
   25MOL   H78920997   6.217   6.304   1.075  0.6188  2.4610 -0.5027
   25MOL   H79020998   6.235   6.178   0.950  0.5309 -0.6180  2.3090
   25MOL   H79120999   6.220   6.480   0.926  1.8154 -1.1982  1.2442
   25MOL   H79221000   6.247   6.387   0.784  1.0881  1.7232  1.0430
   25MOL   H79321001   6.000   6.369   0.956  3.3754 -0.5299  2.1292
   25MOL   H79421002   6.026   6.460   0.800 -1.1881 -1.6028 -1.9669
   25MOL   H79521003   6.051   6.270   0.683  0.1303  1.6353  0.2459
   25MOL   H79621004   6.004   6.159   0.810  2.0298  1.4505  1.8742
   25MOL   H79721005   5.779   6.277   0.836  0.1827 -0.1636  0.9677
   25MOL   H79821006   5.822   6.375   0.701 -1.5722  0.5250  2.7623
   25MOL   H79921007   5.792   6.209   0.677 -1.4671  1.6396 -0.7911
   25MOL   C80021008   6.837   5.729   1.549  0.0654  0.2111  0.2359
   25MOL   C80121009   6.892   5.622   1.657  0.0537  0.4048  0.5511
   25MOL   C80221010   6.866   5.479   1.606 -0.0538 -0.2547  0.4973
   25MOL   C80321011   6.963   5.424   1.505 -0.0667 -0.6457 -0.3356
   25MOL   C80421012   6.943   5.278   1.454 -0.0003 -0.2435  0.6248
   25MOL   C80521013   7.068   5.231   1.370 -0.5567  0.3924  0.1404
   25MOL   C80621014   7.056   5.077   1.350 -0.2063 -0.7581 -0.1339
   25MOL   C80721015   6.953   5.043   1.235 -0.0973 -0.2903 -0.1705
   25MOL   C80821016   6.978   4.900   1.189  0.1893 -0.4013 -0.4629
   25MOL   C80921017   6.889   4.856   1.067  0.3745  0.4024  0.6503
   25MOL   C81021018   6.936   4.713   1.030 -0.4802  0.0816  0.5315
   25MOL   C81121019   6.885   4.660   0.891  0.1513 -0.0311 -0.1168
   25MOL   C81221020   6.957   4.526   0.861  0.6003 -0.5231  0.7245
   25MOL   C81321021   6.959   4.503   0.711  0.0360  0.3749  0.8522
   25MOL   H81421022   6.906   5.702   1.468  1.5411  0.6255  1.3303
   25MOL   H81521023   6.732   5.719   1.522  0.2144  1.5257 -0.9174
   25MOL   H81621024   6.845   5.636   1.754 -1.5570 -3.0078  0.3292
   25MOL   H81721025   6.764   5.473   1.568 -1.2172  4.4364  2.4913
   25MOL   H81821026   6.865   5.415   1.694 -1.1491  2.0368  2.1963
   25MOL   H81921027   7.066   5.440   1.537 -0.0962 -0.4171 -0.3531
   25MOL   H82021028   6.950   5.484   1.415  1.7434 -0.7018 -0.6538
   25MOL   H82121029   6.950   5.213   1.541 -0.4389  0.8596  1.4842
   25MOL   H82221030   6.849   5.265   1.400  0.0735  1.4777  0.0781
   25MOL   H82321031   7.156   5.243   1.433 -0.3164 -0.5886 -0.0020
   25MOL   H82421032   7.081   5.283   1.275 -2.4556  0.1884 -0.2560
   25MOL   H82521033   7.153   5.037   1.320  0.0375 -0.3636  0.1219
   25MOL   H82621034   7.029   5.013   1.434  2.7839  0.6949  2.0311
   25MOL   H82721035   6.853   5.055   1.276 -0.0834 -1.3869  0.1935
   25MOL   H82821036   6.968   5.118   1.158 -1.5018  0.9307  0.7195
   25MOL   H82921037   7.082   4.885   1.161 -0.0813 -3.1899 -0.0483
   25MOL   H83021038   6.945   4.830   1.266 -0.5222 -0.6112 -0.9568
   25MOL   H83121039   6.908   4.924   0.984 -2.6254 -1.5616 -1.7887
   25MOL   H83221040   6.782   4.854   1.086  0.2076  0.3457 -0.2788
   25MOL   H83321041   7.044   4.710   1.035 -0.2703  0.7451 -2.5587
   25MOL   H83421042   6.908   4.643   1.109  0.5371  0.3873  1.1731
   25MOL   H83521043   6.912   4.735   0.815 -2.1206 -0.6055 -1.5303
   25MOL   H83621044   6.776   4.658   0.887  0.0682 -0.9203  2.0993
   25MOL   H83721045   7.058   4.536   0.903 -0.1588  0.3453  2.3849
   25MOL   H83821046   6.898   4.454   0.917 -0.2974  1.1788  2.0173
   25MOL   H83921047   6.993   4.407   0.671 -1.4908  0.2682 -0.2441
   25MOL   H84021048   6.858   4.518   0.672  0.0498  0.9917  1.0469
   25MOL   H84121049   7.027   4.578   0.670  0.6284 -0.0688  1.0089
   25MOL   H84221050   7.000   5.638   1.666  0.1604 -1.0675  1.9931
   26MOL     C121051   0.476   4.756   4.878  0.5053  0.7350  0.7442
   26MOL     C221052   0.347   4.764   4.961 -0.0398 -0.0798 -0.6888
   26MOL     C321053   0.213   4.756   4.888  0.1127 -0.0496 -0.4431
   26MOL     C421054   0.184   4.886   4.806 -0.0318  0.2717  0.0187
   26MOL     C521055   0.044   4.882   4.739  0.3109  0.1347 -0.6308
   26MOL     C621056   7.619   4.914   4.832 -0.9795  0.3248  0.0347
   26MOL     C721057   7.480   4.931   4.771  0.2862 -0.0346 -0.8818
   26MOL     C821058   7.374   4.956   4.880  0.1448  0.0405  0.3807
   26MOL     C921059   7.253   5.024   4.821 -0.3795  0.5643 -0.0549
   26MOL    C1021060   7.144   5.061   4.917 -0.0038 -0.3177 -0.0417
   26MOL    C1121061   7.015   5.091   4.849  0.2795  0.1691 -0.4055
   26MOL    C1221062   6.904   5.157   4.940  0.2282  0.3311 -0.3869
   26MOL    C1321063   6.795   5.238   4.875  0.4179  0.8607 -0.5333
   26MOL    C1421064   6.702   5.137   4.802  0.1771  0.0391  0.3120
   26MOL    H1521065   0.459   4.820   4.792 -1.5058 -0.0490  0.5280
   26MOL    H1621066   0.496   4.651   4.856  0.9456  1.2303 -1.3572
   26MOL    H1721067   0.353   4.861   5.010  1.5521 -0.6592  0.3119
   26MOL    H1821068   0.215   4.666   4.826  1.0679 -0.4911  0.2163
   26MOL    H1921069   0.144   4.747   4.971 -0.3388  1.5205 -0.6246
   26MOL    H2021070   0.258   4.900   4.727 -0.0279  1.7353  0.2671
   26MOL    H2121071   0.196   4.970   4.874  0.6420  1.9178 -2.0835
   26MOL    H2221072   0.024   4.784   4.696  1.0832 -0.3308  0.0413
   26MOL    H2321073   0.039   4.951   4.655  0.3592 -0.0897 -0.8176
   26MOL    H2421074   7.646   5.013   4.872  1.3002 -0.4462  0.4844
   26MOL    H2521075   7.612   4.850   4.920 -0.6949 -1.9962 -1.6057
   26MOL    H2621076   7.481   5.020   4.708  0.8945  1.6624  1.4777
   26MOL    H2721077   7.456   4.858   4.693 -1.9442 -0.7140  0.4101
   26MOL    H2821078   7.412   5.026   4.956  1.4795 -1.5256  1.1748
   26MOL    H2921079   7.355   4.857   4.921  0.9458 -0.3401 -0.1483
   26MOL    H3021080   7.284   5.114   4.767 -0.4418  1.5004  1.4496
   26MOL    H3121081   7.219   4.945   4.754  2.5927 -0.2512 -0.6585
   26MOL    H3221082   7.126   4.980   4.987 -2.5130  0.6576  0.4774
   26MOL    H3321083   7.185   5.139   4.982 -1.0727 -0.1109  0.4007
   26MOL    H3421084   7.016   5.163   4.767 -1.4286 -1.2517 -1.7102
   26MOL    H3521085   6.975   4.996   4.814  0.5730  0.4037 -1.3952
   26MOL    H3621086   6.961   5.230   4.998 -0.7814  0.3610  0.5843
   26MOL    H3721087   6.862   5.088   5.013  0.0244  0.6244 -0.2225
   26MOL    H3821088   6.745   5.300   4.950  2.2051  1.3108  0.2950
   26MOL    H3921089   6.826   5.301   4.792 -1.3415  0.0429 -1.8392
   26MOL    H4021090   6.668   5.048   4.854  0.1764 -0.8129 -1.1290
   26MOL    H4121091   6.614   5.177   4.751  2.0499  1.8541 -1.6258
   26MOL    H4221092   6.765   5.098   4.721 -0.0160 -0.3764  0.3621
   26MOL    H4321093   0.558   4.796   4.939  0.8338  2.1211 -0.5813
   26MOL    C4421094   0.347   4.651   5.066  0.0230 -0.1724  0.4899
   26MOL    C4521095   0.475   4.642   5.148 -0.0335 -0.4518 -0.2743
   26MOL    C4621096   0.456   4.535   5.264  0.1992  0.0631 -0.3156
   26MOL    C4721097   0.460   4.388   5.225  0.4858  0.2088 -0.2342
   26MOL    C4821098   0.493   4.281   5.334 -0.8989 -0.2562 -0.0114
   26MOL    C4921099   0.649   4.260   5.341 -0.2696 -0.4398  0.6059
   26MOL    C5021100   0.703   4.154   5.439 -0.1766 -0.4139 -0.5206
   26MOL    C5121101   0.852   4.117   5.417  0.5022 -1.0015  0.8049
   26MOL    C5221102   0.917   4.018   5.515 -0.1357  0.0177  0.0901
   26MOL    C5321103   1.038   3.949   5.453  0.0664 -0.1087 -0.1904
   26MOL    C5421104   1.132   3.882   5.554 -0.1503 -1.1223 -0.2099
   26MOL    C5521105   1.279   3.859   5.507  0.2300 -0.2779 -1.0492
   26MOL    C5621106   1.372   3.843   5.628  0.5600  0.9618  0.6898
   26MOL    C5721107   1.502   3.779   5.585  0.2259 -0.2253  0.2903
   26MOL    H5821108   0.260   4.650   5.132 -1.3784 -0.7278 -1.3257
   26MOL    H5921109   0.334   4.552   5.022 -1.9845 -0.5618  1.8630
   26MOL    H6021110   0.557   4.608   5.085  1.0334  0.4659  0.5937
   26MOL    H6121111   0.537   4.549   5.335 -0.1301  0.3682 -0.0013
   26MOL    H6221112   0.360   4.545   5.314  0.1631  1.3533 -0.6191
   26MOL    H6321113   0.529   4.377   5.141 -1.9766  0.2193 -2.2958
   26MOL    H6421114   0.365   4.368   5.175  0.1804 -1.2490  0.9101
   26MOL    H6521115   0.462   4.186   5.291  0.2426 -0.3794 -0.5689
   26MOL    H6621116   0.458   4.296   5.437  1.6941 -1.6700  1.1316
   26MOL    H6721117   0.682   4.236   5.240 -0.5238  0.5620  0.2788
   26MOL    H6821118   0.692   4.357   5.367 -0.5451 -0.0098 -0.4852
   26MOL    H6921119   0.684   4.177   5.543  3.2386  0.9723 -0.1216
   26MOL    H7021120   0.638   4.069   5.423  0.6546 -1.1720  0.0656
   26MOL    H7121121   0.910   4.209   5.422  0.2817 -0.7224 -1.2103
   26MOL    H7221122   0.865   4.090   5.312 -0.9975  0.5534  0.1867
   26MOL    H7321123   0.952   4.070   5.604 -0.9030  1.4851 -0.4405
   26MOL    H7421124   0.847   3.937   5.535  1.4423 -1.8284 -1.6448
   26MOL    H7521125   1.103   4.024   5.408 -0.1780 -0.8118 -1.7484
   26MOL    H7621126   1.013   3.878   5.374  3.3832 -0.4062 -1.0624
   26MOL    H7721127   1.094   3.789   5.597 -0.1633 -1.6026 -1.2411
   26MOL    H7821128   1.137   3.943   5.644  0.5206 -1.7917  0.2172
   26MOL    H7921129   1.292   3.781   5.432  0.1514 -2.0624  0.7525
   26MOL    H8021130   1.304   3.956   5.463  0.6140 -0.7655 -1.9208
   26MOL    H8121131   1.329   3.781   5.708 -1.3348  0.0764 -0.9535
   26MOL    H8221132   1.387   3.933   5.688  1.3505  2.2720 -1.4480
   26MOL    H8321133   1.573   3.762   5.665  0.3344  0.2356  0.2960
   26MOL    H8421134   1.554   3.836   5.508 -2.5673  2.4805  0.3036
   26MOL    H8521135   1.483   3.679   5.545 -0.4389  0.0972 -0.2260
   26MOL    C8621136   0.519   4.777   5.213  0.1219  0.3691 -0.5307
   26MOL    C8721137   0.662   4.782   5.283  0.3433 -0.4464 -0.1363
   26MOL    C8821138   0.682   4.913   5.361  0.4765 -0.3258 -0.0034
   26MOL    C8921139   0.609   4.945   5.487  0.4766 -0.0214  0.6603
   26MOL    C9021140   0.666   5.068   5.555 -0.1427 -0.1710 -0.5109
   26MOL    C9121141   0.595   5.100   5.692  0.2109 -0.1823 -0.1544
   26MOL    C9221142   0.599   4.984   5.796  0.4039 -0.2092  0.1447
   26MOL    C9321143   0.513   5.014   5.924  0.6232 -0.1845  0.1351
   26MOL    C9421144   0.360   5.026   5.903  0.9842  0.0655 -0.0345
   26MOL    C9521145   0.281   5.045   6.038  0.0507 -0.0346  0.7782
   26MOL    C9621146   0.131   5.071   6.022  0.4429 -0.1141  0.0026
   26MOL    C9721147   0.094   5.195   5.939  0.7871  0.1389  0.1609
   26MOL    C9821148   7.636   5.211   5.922  0.4667  0.2158  0.6848
   26MOL    C9921149   7.563   5.284   6.033 -0.0116  0.6137 -0.3219
   26MOL   H10021150   0.510   4.866   5.151 -0.1803  1.0682  0.4887
   26MOL   H10121151   0.437   4.796   5.283 -0.4552 -1.0487 -0.8077
   26MOL   H10221152   0.666   4.703   5.358 -2.8914 -1.4588 -0.9606
   26MOL   H10321153   0.787   4.913   5.392  0.6684  1.1594 -0.6210
   26MOL   H10421154   0.669   4.990   5.285  1.1798 -0.4065 -0.2084
   26MOL   H10521155   0.504   4.962   5.462  0.4967  0.1819  0.7164
   26MOL   H10621156   0.624   4.856   5.547  1.7729  0.0268  0.4341
   26MOL   H10721157   0.657   5.158   5.493  0.8053 -1.2459 -2.2609
   26MOL   H10821158   0.773   5.050   5.564 -0.1855 -0.8409 -1.2509
   26MOL   H10921159   0.488   5.113   5.674 -0.1246 -2.3445  0.2022
   26MOL   H11021160   0.626   5.191   5.743 -1.0323 -0.5133  1.2258
   26MOL   H11121161   0.565   4.888   5.758  1.0322 -0.7283  0.8827
   26MOL   H11221162   0.705   4.972   5.818 -0.0792 -1.1070  2.0989
   26MOL   H11321163   0.549   5.095   5.987  0.1891 -0.1557  0.3416
   26MOL   H11421164   0.520   4.922   5.982 -1.8286 -1.6648 -1.7861
   26MOL   H11521165   0.333   5.113   5.843  2.0514 -0.0494 -0.6937
   26MOL   H11621166   0.316   4.941   5.852 -0.1572  1.1750 -0.9289
   26MOL   H11721167   0.316   5.133   6.092 -2.5992  2.1556 -0.9470
   26MOL   H11821168   0.279   4.955   6.100 -1.6500  0.0777  0.9275
   26MOL   H11921169   0.079   4.990   5.972 -1.3057  1.2496 -0.4617
   26MOL   H12021170   0.087   5.070   6.121 -0.9301 -0.6863 -0.6036
   26MOL   H12121171   0.138   5.292   5.963 -0.1877  0.9805 -1.3884
   26MOL   H12221172   0.137   5.185   5.839 -0.3657  1.5090 -0.4877
   26MOL   H12321173   7.587   5.114   5.912  0.4938  0.1624  1.0380
   26MOL   H12421174   7.618   5.276   5.837 -1.3035 -0.7324  0.3287
   26MOL   H12521175   7.595   5.389   6.033  2.3167 -0.0548  1.2252
   26MOL   H12621176   7.455   5.281   6.019 -0.6992  2.3493  3.7750
   26MOL   H12721177   7.596   5.235   6.125 -0.1719 -1.1758 -1.2059
   26MOL   C12821178   0.771   4.757   5.175 -0.3110  0.2763  0.3466
   26MOL   C12921179   0.911   4.730   5.227 -0.5588  0.0563  0.6985
   26MOL   C13021180   0.921   4.592   5.284 -0.3200  0.5963  0.1382
   26MOL   C13121181   1.036   4.584   5.390  0.0725  0.5019  0.5275
   26MOL   C13221182   1.041   4.446   5.468  0.4970 -0.0295  0.6122
   26MOL   C13321183   1.155   4.437   5.569 -0.0784 -0.4084  0.5045
   26MOL   C13421184   1.139   4.308   5.655 -0.0176  0.1305 -0.1499
   26MOL   C13521185   1.240   4.289   5.771 -0.1920  0.4155  0.3309
   26MOL   C13621186   1.189   4.360   5.892 -0.1285  0.4744  0.1230
   26MOL   C13721187   1.284   4.360   6.016  0.2811 -0.5481  1.0307
   26MOL   C13821188   1.236   4.458   6.123 -0.0297  0.8267  0.5933
   26MOL   C13921189   1.095   4.424   6.179 -0.8353 -0.3213 -0.5987
   26MOL   C14021190   1.060   4.500   6.305 -0.1034 -0.5224 -0.7603
   26MOL   C14121191   0.908   4.491   6.331 -0.3301  0.6165 -0.3331
   26MOL   H14221192   0.735   4.671   5.120 -0.6535 -0.2595  1.4037
   26MOL   H14321193   0.776   4.846   5.112 -0.1483 -0.3176 -0.4805
   26MOL   H14421194   0.932   4.805   5.303  0.3629  0.5578 -0.0383
   26MOL   H14521195   0.826   4.561   5.327  0.0050 -0.8661 -0.1528
   26MOL   H14621196   0.935   4.516   5.206 -0.8693  1.8150 -1.1735
   26MOL   H14721197   1.131   4.597   5.338 -0.0105 -1.0027 -0.0356
   26MOL   H14821198   1.019   4.665   5.461  1.8964  1.9184 -0.6076
   26MOL   H14921199   0.943   4.436   5.514 -0.8278 -0.4020 -2.1594
   26MOL   H15021200   1.064   4.367   5.396 -0.0154  0.2629  0.1191
   26MOL   H15121201   1.256   4.440   5.527 -0.1424 -1.9413  0.2071
   26MOL   H15221202   1.140   4.520   5.639 -2.3896  0.0311 -0.4907
   26MOL   H15321203   1.036   4.307   5.693  0.4188  0.5376  1.0741
   26MOL   H15421204   1.148   4.229   5.580 -0.8548  1.8352 -2.0878
   26MOL   H15521205   1.241   4.182   5.787 -0.0220  0.3987  0.2140
   26MOL   H15621206   1.339   4.327   5.745  0.2487  0.3667  1.8742
   26MOL   H15721207   1.166   4.462   5.863 -2.1873 -0.3556 -1.2619
   26MOL   H15821208   1.095   4.315   5.925 -0.8625 -0.2536 -2.8229
   26MOL   H15921209   1.384   4.388   5.982  0.5564  0.5917  2.7160
   26MOL   H16021210   1.292   4.261   6.060  3.1057  0.5336  3.0864
   26MOL   H16121211   1.300   4.467   6.211  0.7456 -0.0474  0.1221
   26MOL   H16221212   1.234   4.552   6.068  1.5838 -0.0157 -0.9579
   26MOL   H16321213   1.030   4.457   6.098 -0.4334  0.7626 -0.4828
   26MOL   H16421214   1.090   4.316   6.195  0.9021 -0.2147  0.7491
   26MOL   H16521215   1.109   4.467   6.396  1.4875 -2.6838 -2.3519
   26MOL   H16621216   1.093   4.600   6.278  1.8103 -0.8244  0.3689
   26MOL   H16721217   0.880   4.564   6.407  0.3023  0.8976 -0.3630
   26MOL   H16821218   0.849   4.520   6.243 -0.6283 -1.7407 -0.9304
   26MOL   H16921219   0.865   4.395   6.358  1.2452 -0.5015 -1.7432
   26MOL   C17021220   1.013   4.755   5.118 -0.6893  0.0989  1.0273
   26MOL   C17121221   1.034   4.906   5.075  0.2611 -0.3092  0.6832
   26MOL   C17221222   1.033   5.009   5.194  0.4758 -0.3213  0.2776
   26MOL   C17321223   1.139   4.984   5.303  0.0103  0.8442 -0.1829
   26MOL   C17421224   1.090   5.047   5.432 -0.1698 -0.2237 -0.6310
   26MOL   C17521225   1.063   5.194   5.416  0.2829  0.0007 -0.2782
   26MOL   C17621226   1.070   5.259   5.562  0.3043 -0.6769  0.1099
   26MOL   C17721227   1.036   5.419   5.564 -0.4082  0.5301  0.5715
   26MOL   C17821228   1.147   5.512   5.501  0.5920 -0.1928  0.0235
   26MOL   C17921229   1.264   5.531   5.593 -0.9179  0.1156 -0.3169
   26MOL   C18021230   1.388   5.598   5.521  0.2315 -0.0494 -0.3912
   26MOL   C18121231   1.508   5.615   5.614  0.1220  0.1735  0.2115
   26MOL   C18221232   1.639   5.644   5.534 -0.8465  0.5934 -0.1181
   26MOL   C18321233   1.639   5.765   5.432 -0.1909  0.1377  0.0471
   26MOL   H18421234   0.984   4.697   5.030  0.6453  1.0907 -0.0715
   26MOL   H18521235   1.114   4.722   5.144 -1.2034 -0.5965  2.2222
   26MOL   H18621236   0.948   4.945   5.021  0.7693 -0.7982 -0.4930
   26MOL   H18721237   1.051   5.111   5.158 -1.0282  0.2165  1.0528
   26MOL   H18821238   0.930   5.003   5.228 -0.0820  1.5080 -1.0320
   26MOL   H18921239   1.152   4.879   5.327  1.9275  1.2888  0.7878
   26MOL   H19021240   1.235   5.018   5.265  0.8109 -0.0161  1.0558
   26MOL   H19121241   0.998   5.004   5.472 -1.2270  2.4642 -0.0869
   26MOL   H19221242   1.174   5.038   5.501 -2.2417 -0.8569  1.8477
   26MOL   H19321243   0.965   5.209   5.370  0.1525 -1.1980 -0.4058
   26MOL   H19421244   1.138   5.241   5.352  0.7101  0.7524  0.7753
   26MOL   H19521245   1.166   5.246   5.613 -0.4103 -1.4595  1.2867
   26MOL   H19621246   1.006   5.203   5.631 -2.5698 -0.0537 -1.9510
   26MOL   H19721247   0.996   5.472   5.650 -1.3254  1.4927 -0.4345
   26MOL   H19821248   0.949   5.418   5.498  0.4153  1.6520 -0.5670
   26MOL   H19921249   1.105   5.608   5.470 -0.4519  0.2630  2.7354
   26MOL   H20021250   1.174   5.466   5.406 -1.3664 -0.4009 -0.4557
   26MOL   H20121251   1.287   5.439   5.646  0.1488 -0.0753 -1.0931
   26MOL   H20221252   1.233   5.594   5.676 -1.1691 -2.2796  1.4748
   26MOL   H20321253   1.353   5.698   5.495  1.7415  0.7636  0.6565
   26MOL   H20421254   1.416   5.542   5.432  0.7656 -0.1020 -0.1881
   26MOL   H20521255   1.490   5.692   5.689 -0.3883  1.7523 -1.5028
   26MOL   H20621256   1.523   5.520   5.664  2.2396  0.9560  1.1350
   26MOL   H20721257   1.721   5.652   5.606  0.4191 -0.4203 -1.4113
   26MOL   H20821258   1.666   5.552   5.482 -1.1239  1.5714 -2.0290
   26MOL   H20921259   1.742   5.795   5.416 -0.0811 -0.3395 -0.1408
   26MOL   H21021260   1.593   5.845   5.490  2.4706  1.7394 -0.0000
   26MOL   H21121261   1.591   5.756   5.334 -0.0267 -2.0540  0.1344
   26MOL   C21221262   1.155   4.926   4.977  0.8319 -0.5586 -1.0711
   26MOL   C21321263   1.148   4.867   4.835 -0.3925 -0.4642  0.3396
   26MOL   C21421264   1.196   4.725   4.811 -0.9291 -0.4196  0.3560
   26MOL   C21521265   1.337   4.684   4.868  0.3440 -0.2235 -0.0194
   26MOL   C21621266   1.353   4.542   4.894 -0.0659  0.0716  0.1345
   26MOL   C21721267   1.390   4.465   4.772 -0.3624 -0.3499  0.3049
   26MOL   C21821268   1.392   4.308   4.775 -0.5966  0.3279 -0.4969
   26MOL   C21921269   1.430   4.241   4.640 -0.1148 -0.5448 -0.0486
   26MOL   C22021270   1.440   4.081   4.650  0.3372  0.1264  0.3833
   26MOL   C22121271   1.312   3.992   4.655 -0.4315 -0.5060  0.4984
   26MOL   C22221272   1.208   4.036   4.550 -0.4626 -0.3405  0.0308
   26MOL   C22321273   1.112   3.926   4.503 -0.3057  0.0955 -0.8955
   26MOL   C22421274   1.018   3.874   4.610  0.3439  0.0751 -0.6049
   26MOL   C22521275   0.936   3.748   4.576 -0.5431  0.4907 -0.4656
   26MOL   H22621276   1.247   4.899   5.029  1.2063  0.2156 -1.3190
   26MOL   H22721277   1.174   5.032   4.963  1.1432 -1.0627 -4.9166
   26MOL   H22821278   1.227   4.935   4.804 -0.2126 -0.5991  0.4975
   26MOL   H22921279   1.122   4.654   4.850 -0.5179 -0.9798  0.1228
   26MOL   H23021280   1.203   4.700   4.705 -1.2249  1.6687 -0.1638
   26MOL   H23121281   1.346   4.738   4.962 -2.6598  1.6758 -0.7464
   26MOL   H23221282   1.415   4.710   4.796 -0.3962 -0.4623 -0.9219
   26MOL   H23321283   1.266   4.499   4.944  0.6935 -0.6589  0.8489
   26MOL   H23421284   1.429   4.528   4.970 -0.6434 -1.4990  0.4423
   26MOL   H23521285   1.494   4.491   4.755 -0.0694  0.6773  3.3703
   26MOL   H23621286   1.334   4.498   4.684  0.2484  1.4299  0.5631
   26MOL   H23721287   1.457   4.262   4.849  0.2423 -0.6251 -1.8238
   26MOL   H23821288   1.294   4.278   4.814 -0.0992  1.0621  1.3905
   26MOL   H23921289   1.367   4.275   4.558  0.9477  0.6237 -0.4030
   26MOL   H24021290   1.532   4.270   4.612 -0.1529  2.1739  2.3030
   26MOL   H24121291   1.508   4.051   4.730  0.9876  0.4595 -0.0340
   26MOL   H24221292   1.492   4.048   4.560 -0.7672 -0.6335  0.0139
   26MOL   H24321293   1.352   3.893   4.632 -0.9694 -0.7417  0.5784
   26MOL   H24421294   1.264   3.992   4.753 -1.2323 -1.3654  0.1184
   26MOL   H24521295   1.267   4.062   4.462 -1.8077 -2.1945 -1.4404
   26MOL   H24621296   1.153   4.127   4.576 -1.1518 -0.3893 -1.2667
   26MOL   H24721297   1.161   3.839   4.459  0.9513  0.5065 -0.3388
   26MOL   H24821298   1.054   3.964   4.419 -0.9996  1.2475  0.0853
   26MOL   H24921299   0.948   3.949   4.648 -2.5997 -1.9445 -1.8731
   26MOL   H25021300   1.077   3.840   4.696  0.6804  2.5108  0.1846
   26MOL   H25121301   0.995   3.660   4.553 -0.9643  0.2988 -0.8230
   26MOL   H25221302   0.866   3.723   4.656  0.2333  1.5236  0.5605
   26MOL   H25321303   0.877   3.782   4.491 -1.6298  3.9184  1.5280
   26MOL   C25421304   1.006   4.888   4.778  0.0659  0.0175 -0.0145
   26MOL   C25521305   0.998   4.904   4.621 -0.0829  0.3768  0.6698
   26MOL   C25621306   0.847   4.882   4.588  0.0518 -1.0074 -0.7436
   26MOL   C25721307   0.820   4.733   4.549 -0.1238  0.1293  0.4191
   26MOL   C25821308   0.669   4.727   4.501 -0.2941 -0.2779 -0.9257
   26MOL   C25921309   0.606   4.593   4.510 -0.5082  0.6880  0.3600
   26MOL   C26021310   0.464   4.598   4.449 -0.1245 -0.2551  0.5706
   26MOL   C26121311   0.380   4.474   4.460  0.5704 -0.4055  0.1846
   26MOL   C26221312   0.233   4.482   4.426 -0.0334  0.2658 -0.4986
   26MOL   C26321313   0.211   4.514   4.273 -0.4298  0.4341  0.6680
   26MOL   C26421314   0.074   4.484   4.221  0.1647  0.3766 -0.0903
   26MOL   C26521315   7.654   4.548   4.291 -0.0269  0.1292  0.2020
   26MOL   C26621316   7.658   4.705   4.293  0.6764  0.1151 -0.5780
   26MOL   C26721317   7.532   4.762   4.371 -0.0164  0.3470  0.4084
   26MOL   H26821318   0.965   4.985   4.805 -0.1394 -0.1256  0.1821
   26MOL   H26921319   0.944   4.813   4.827  0.1962 -0.2277 -0.2268
   26MOL   H27021320   1.054   4.826   4.570  0.5709  0.1302  1.7490
   26MOL   H27121321   0.809   4.944   4.507 -2.1640 -1.6726 -0.2473
   26MOL   H27221322   0.792   4.905   4.679  1.4107  1.4130 -0.4874
   26MOL   H27321323   0.839   4.667   4.633  0.3256 -2.4617 -1.6354
   26MOL   H27421324   0.882   4.697   4.466 -1.3762 -1.7448  0.2716
   26MOL   H27521325   0.666   4.770   4.401  1.2385 -1.4859 -1.5090
   26MOL   H27621326   0.608   4.798   4.558 -1.2237 -0.6774 -1.4167
   26MOL   H27721327   0.599   4.579   4.618 -0.3787  1.7282  0.5041
   26MOL   H27821328   0.670   4.518   4.462 -0.4754  1.7754 -1.3266
   26MOL   H27921329   0.410   4.679   4.498 -0.2954  0.8684 -1.4237
   26MOL   H28021330   0.464   4.629   4.344 -1.6153 -0.8737  0.3789
   26MOL   H28121331   0.384   4.442   4.564  3.1026 -0.5377  0.0755
   26MOL   H28221332   0.418   4.394   4.397 -2.2356 -2.4682  1.0227
   26MOL   H28321333   0.200   4.380   4.443  0.7014 -0.0288 -0.8283
   26MOL   H28421334   0.190   4.553   4.497  0.9206  0.3656 -0.0258
   26MOL   H28521335   0.284   4.459   4.213 -0.6233  1.7477 -0.7815
   26MOL   H28621336   0.238   4.617   4.248  0.6114 -0.2018 -0.9415
   26MOL   H28721337   0.060   4.376   4.224  3.6767 -0.1152  1.1265
   26MOL   H28821338   0.056   4.503   4.115 -0.2653 -1.9745 -0.4625
   26MOL   H28921339   7.554   4.524   4.255 -1.5230  4.0245  1.4467
   26MOL   H29021340   7.646   4.504   4.391 -0.2655 -0.4531 -0.0692
   26MOL   H29121341   0.047   4.723   4.359  0.5944  0.2731 -0.5145
   26MOL   H29221342   7.685   4.756   4.201 -1.4188 -1.7160 -2.2676
   26MOL   H29321343   7.436   4.758   4.320 -1.0048 -2.7677  2.3437
   26MOL   H29421344   7.544   4.870   4.377  1.9850  0.0559  2.3564
   26MOL   H29521345   7.527   4.716   4.470  1.3239  0.8676  0.7206
   26MOL   C29621346   1.051   5.039   4.570 -0.0919  0.8597  0.7031
   26MOL   C29721347   1.072   5.034   4.417 -0.2032  0.3394  0.1280
   26MOL   C29821348   1.083   5.181   4.354  0.3465 -0.4848 -0.0361
   26MOL   C29921349   0.966   5.277   4.371  0.7009  0.2556  0.3736
   26MOL   C30021350   0.825   5.226   4.323  0.4743  0.1365  0.3164
   26MOL   C30121351   0.705   5.277   4.411  0.1553 -0.1717 -0.3030
   26MOL   C30221352   0.574   5.200   4.371 -0.3111 -0.5889  0.6901
   26MOL   C30321353   0.473   5.219   4.480  0.3228 -0.0558  0.0774
   26MOL   C30421354   0.329   5.200   4.434 -0.2356 -0.2692 -0.0522
   26MOL   C30521355   0.285   5.065   4.376 -0.1807  0.1822  0.2544
   26MOL   C30621356   0.149   5.071   4.310 -0.4167  0.4092  0.2531
   26MOL   C30721357   0.141   5.174   4.190 -0.6202 -0.1267 -0.2081
   26MOL   C30821358   0.061   5.291   4.223  0.2786  0.5309 -0.8019
   26MOL   C30921359   0.039   5.395   4.121  0.1513 -0.2804  0.2779
   26MOL   H31021360   1.145   5.069   4.617  1.3250 -2.1317 -0.0464
   26MOL   H31121361   0.978   5.111   4.605  0.1834 -0.2108  3.6688
   26MOL   H31221362   0.983   4.988   4.374  0.4792 -0.3746 -0.5313
   26MOL   H31321363   1.094   5.178   4.245  1.7029 -1.1937  0.0983
   26MOL   H31421364   1.170   5.230   4.397 -0.3493  0.9251 -0.2203
   26MOL   H31521365   0.987   5.371   4.321  0.5229  0.8766  1.4573
   26MOL   H31621366   0.967   5.306   4.476  0.5754  1.3442  0.0724
   26MOL   H31721367   0.810   5.243   4.216  0.0357 -5.9046 -0.8024
   26MOL   H31821368   0.821   5.118   4.337 -0.9273 -0.0826 -1.5511
   26MOL   H31921369   0.691   5.385   4.407  1.4976  0.1738  2.8037
   26MOL   H32021370   0.730   5.265   4.516 -2.0857 -2.7161 -0.0202
   26MOL   H32121371   0.542   5.252   4.280  0.3046 -0.7669  0.3663
   26MOL   H32221372   0.599   5.099   4.340 -1.3451 -1.0670  1.3927
   26MOL   H32321373   0.485   5.310   4.540  0.5541  1.4186 -2.1368
   26MOL   H32421374   0.491   5.136   4.548 -0.5375  0.6729  1.2076
   26MOL   H32521375   0.269   5.222   4.523  0.2168  0.6355  0.0296
   26MOL   H32621376   0.308   5.277   4.361 -2.7929  0.3744  1.2808
   26MOL   H32721377   0.289   4.982   4.447  0.0252 -0.0862 -0.0726
   26MOL   H32821378   0.363   5.028   4.310  1.1749  0.6962  1.5337
   26MOL   H32921379   0.070   5.081   4.384 -0.3562 -0.0033  0.3748
   26MOL   H33021380   0.146   4.971   4.267 -1.5493  0.4808  0.1621
   26MOL   H33121381   0.094   5.130   4.102  0.9585  0.2350 -1.2408
   26MOL   H33221382   0.238   5.194   4.146 -1.1771 -0.3942 -1.5811
   26MOL   H33321383   0.099   5.334   4.316  2.1545 -0.3322 -1.1641
   26MOL   H33421384   7.656   5.261   4.253 -0.1951  1.5065 -1.3692
   26MOL   H33521385   0.019   5.336   4.031 -0.5914 -0.9817  0.8851
   26MOL   H33621386   7.651   5.460   4.146 -0.2463 -0.8078  0.3436
   26MOL   H33721387   0.130   5.452   4.107 -1.3105  1.6881 -1.5252
   26MOL   C33821388   1.189   4.942   4.367  0.1086 -0.1520  0.2931
   26MOL   C33921389   1.187   4.907   4.221  0.6042  0.2016  0.1105
   26MOL   C34021390   1.316   4.933   4.140  0.1406 -0.7941  0.4103
   26MOL   C34121391   1.346   5.078   4.095  1.0113  0.2608  0.0991
   26MOL   C34221392   1.243   5.143   3.994  0.4177  0.3660  0.2183
   26MOL   C34321393   1.289   5.284   3.958 -0.1353  0.2681 -0.4316
   26MOL   C34421394   1.226   5.395   4.037 -0.1990  0.1167  0.1011
   26MOL   C34521395   1.077   5.416   4.011 -0.3660 -0.0865 -0.0988
   26MOL   C34621396   1.016   5.541   4.074  0.1064  0.1117 -0.6319
   26MOL   C34721397   0.863   5.543   4.055 -0.4904 -0.0419  0.1452
   26MOL   C34821398   0.802   5.679   4.092 -0.2281 -0.1824 -0.0972
   26MOL   C34921399   0.646   5.677   4.109  0.6538 -0.0995  0.1130
   26MOL   C35021400   0.591   5.570   4.206  0.2252 -0.3364  0.0476
   26MOL   C35121401   0.439   5.570   4.197 -0.2912 -0.0602 -0.2542
   26MOL   H35221402   1.287   4.989   4.384  0.1336  0.4088 -1.2934
   26MOL   H35321403   1.207   4.854   4.428 -0.6145  0.0234  0.7543
   26MOL   H35421404   1.129   4.986   4.173 -0.0622 -0.7194 -0.6197
   26MOL   H35521405   1.410   4.893   4.179 -0.0453 -0.3959  1.2845
   26MOL   H35621406   1.304   4.874   4.049  1.2978 -0.4520  0.0234
   26MOL   H35721407   1.440   5.070   4.041  0.3174 -0.7478 -0.9989
   26MOL   H35821408   1.363   5.142   4.182 -2.0985  2.4452 -0.7809
   26MOL   H35921409   1.144   5.142   4.041 -0.3124  1.3716 -1.2382
   26MOL   H36021410   1.223   5.081   3.906 -1.0596  0.9494  0.1156
   26MOL   H36121411   1.395   5.292   3.984 -0.1179 -1.2209  0.0021
   26MOL   H36221412   1.276   5.308   3.853 -1.0025 -0.2149 -0.4424
   26MOL   H36321413   1.249   5.390   4.144  1.5288  0.6430 -0.2345
   26MOL   H36421414   1.266   5.490   4.003  0.0545  0.2100  0.6448
   26MOL   H36521415   1.049   5.424   3.906  0.3308  1.3978 -0.1856
   26MOL   H36621416   1.021   5.325   4.033 -1.6529  0.8600  0.6199
   26MOL   H36721417   1.052   5.533   4.176  1.5606 -0.2024 -1.1548
   26MOL   H36821418   1.072   5.624   4.030 -1.2596  1.1703 -0.3859
   26MOL   H36921419   0.837   5.519   3.951  0.2571  0.4570 -0.1601
   26MOL   H37021420   0.819   5.461   4.111  0.5104 -0.5258  0.2340
   26MOL   H37121421   0.829   5.740   4.005  1.5923 -0.6865  0.0964
   26MOL   H37221422   0.840   5.729   4.181  0.1121 -1.1304  0.2971
   26MOL   H37321423   0.596   5.678   4.013 -2.1542 -2.3491  1.4675
   26MOL   H37421424   0.612   5.767   4.161  1.9001 -0.2456  1.2004
   26MOL   H37521425   0.622   5.465   4.199  1.9842  0.1112  0.7392
   26MOL   H37621426   0.623   5.588   4.309  0.6747 -1.4209  0.1106
   26MOL   H37721427   0.415   5.675   4.212  1.9235  0.2739  1.1206
   26MOL   H37821428   0.415   5.537   4.096  0.1551 -1.2932  0.0356
   26MOL   H37921429   0.394   5.502   4.270  0.9468  0.2217  0.7929
   26MOL   C38021430   1.136   4.763   4.211  0.7494  0.4293  0.2877
   26MOL   C38121431   1.046   4.730   4.093  0.0633 -0.0704 -0.0657
   26MOL   C38221432   1.052   4.583   4.039  0.0159 -0.4772  0.4999
   26MOL   C38321433   1.193   4.542   4.012 -0.6763  0.1231 -0.4598
   26MOL   C38421434   1.220   4.425   3.919 -0.5178 -0.3124  0.1657
   26MOL   C38521435   1.155   4.436   3.780  0.0482 -0.1066 -0.0320
   26MOL   C38621436   1.214   4.546   3.686  0.1583 -0.1136 -0.1068
   26MOL   C38721437   1.133   4.560   3.558 -0.7270  0.2769 -0.0338
   26MOL   C38821438   1.169   4.690   3.476  1.0260  0.2106 -0.4525
   26MOL   C38921439   1.075   4.724   3.365  0.2025  0.3347 -0.0906
   26MOL   C39021440   1.122   4.836   3.272  0.3064 -0.3223 -0.0122
   26MOL   C39121441   1.054   4.834   3.129 -0.4489 -0.2253  0.3478
   26MOL   C39221442   0.930   4.929   3.113 -0.2774 -0.2384  0.5749
   26MOL   C39321443   0.868   4.947   2.973 -0.9065 -0.1339  0.1234
   26MOL   H39421444   1.088   4.717   4.298 -0.7131 -1.0096 -1.2609
   26MOL   H39521445   1.224   4.700   4.216 -0.4448 -1.1331  3.2768
   26MOL   H39621446   1.065   4.797   4.008  1.1146  0.6753  0.7404
   26MOL   H39721447   0.995   4.582   3.946 -0.1157  0.9875  0.5542
   26MOL   H39821448   1.008   4.512   4.109 -2.8378  1.7694  1.0562
   26MOL   H39921449   1.241   4.522   4.108 -0.8530  1.2692 -0.1286
   26MOL   H40021450   1.255   4.619   3.965 -0.2481  0.5272  0.7628
   26MOL   H40121451   1.185   4.329   3.957 -0.6931 -0.4942 -0.4631
   26MOL   H40221452   1.329   4.420   3.916 -0.5373 -3.4497  2.5205
   26MOL   H40321453   1.050   4.461   3.796  0.3207 -0.3427  2.3808
   26MOL   H40421454   1.166   4.338   3.734  1.1873  0.0371 -0.0837
   26MOL   H40521455   1.215   4.639   3.743 -0.9151 -0.3942  0.3806
   26MOL   H40621456   1.316   4.514   3.667  1.4072  3.1587  0.8536
   26MOL   H40721457   1.140   4.463   3.507  2.8872 -0.0457  0.9921
   26MOL   H40821458   1.029   4.552   3.591  0.0984 -0.9506  2.3358
   26MOL   H40921459   1.172   4.776   3.543  0.5514 -0.2740  0.2075
   26MOL   H41021460   1.268   4.672   3.436  1.7359 -0.7749  1.7210
   26MOL   H41121461   0.975   4.744   3.405  1.8294  0.8965  3.9352
   26MOL   H41221462   1.077   4.636   3.301  2.6370 -0.8978  1.6345
   26MOL   H41321463   1.110   4.937   3.310 -3.3813 -0.0444 -1.6291
   26MOL   H41421464   1.229   4.822   3.260  0.7256  1.6819  1.2882
   26MOL   H41521465   1.032   4.733   3.096 -0.8057 -0.2049  0.5192
   26MOL   H41621466   1.132   4.867   3.061 -2.9094  1.4081 -1.7845
   26MOL   H41721467   0.853   4.911   3.188 -1.0726 -0.0709 -0.1923
   26MOL   H41821468   0.960   5.029   3.144 -3.1363  0.7916  0.1440
   26MOL   H41921469   0.788   5.020   2.970 -0.4657  0.3326 -0.2648
   26MOL   H42021470   0.823   4.855   2.936  0.1721 -0.3261 -0.7531
   26MOL   H42121471   0.936   4.981   2.895 -0.7099 -1.4926 -0.3100
   26MOL   C42221472   0.898   4.773   4.126  0.3207  0.3526 -0.3597
   26MOL   C42321473   0.803   4.816   4.008  0.0106 -0.1634 -0.3079
   26MOL   C42421474   0.661   4.775   4.054 -0.0046 -0.1663 -0.5544
   26MOL   C42521475   0.545   4.794   3.969 -0.3132  0.6664  0.8214
   26MOL   C42621476   0.412   4.751   4.030  0.2366  0.5012  1.1007
   26MOL   C42721477   0.283   4.760   3.953 -0.0217 -0.7227  0.0023
   26MOL   C42821478   0.239   4.905   3.921 -0.6148 -0.3241 -0.1601
   26MOL   C42921479   0.101   4.901   3.840  0.9995 -0.6513  0.4673
   26MOL   C43021480   0.048   5.045   3.796  0.6430 -0.3574 -0.0822
   26MOL   C43121481   7.610   5.024   3.724 -0.5134 -0.2610  0.7445
   26MOL   C43221482   7.551   5.155   3.684  0.0824  0.0149 -0.0990
   26MOL   C43321483   7.431   5.137   3.592 -0.2326  0.6995 -0.6981
   26MOL   C43421484   7.354   5.269   3.568 -0.3558  0.3977  0.4240
   26MOL   C43521485   7.233   5.255   3.475  0.3072 -0.1102  0.3008
   26MOL   H43621486   0.902   4.865   4.184  0.7265  1.6994 -2.4904
   26MOL   H43721487   0.851   4.690   4.180  0.1280  0.2407 -0.7016
   26MOL   H43821488   0.834   4.749   3.929  2.7827 -0.3873  0.9238
   26MOL   H43921489   0.640   4.828   4.147  0.8412  0.1489 -0.5357
   26MOL   H44021490   0.665   4.669   4.078  0.4048 -0.6180 -2.4977
   26MOL   H44121491   0.539   4.897   3.935 -0.2633  0.3399 -0.2046
   26MOL   H44221492   0.558   4.737   3.876 -0.2550 -2.1457  2.5014
   26MOL   H44321493   0.412   4.800   4.128  0.9333  0.6915  1.0103
   26MOL   H44421494   0.423   4.647   4.060 -1.6668 -0.5910 -1.7706
   26MOL   H44521495   0.198   4.720   4.009 -1.6610  1.1558 -1.0859
   26MOL   H44621496   0.294   4.704   3.860  0.2192 -0.8159  0.0879
   26MOL   H44721497   0.223   4.965   4.010 -0.0930  0.2887 -0.4722
   26MOL   H44821498   0.323   4.949   3.867 -0.6223  0.4994  0.4888
   26MOL   H44921499   0.106   4.827   3.760 -2.7390 -0.7659  0.2611
   26MOL   H45021500   0.030   4.855   3.908  1.7304 -1.6216  0.5782
   26MOL   H45121501   0.043   5.114   3.880  2.1962 -0.9581  0.5235
   26MOL   H45221502   0.108   5.092   3.718 -1.2928 -0.7948 -1.8883
   26MOL   H45321503   7.606   4.955   3.640 -2.4631  1.9296 -1.0270
   26MOL   H45421504   7.552   4.974   3.801 -2.2539 -0.6586 -0.7879
   26MOL   H45521505   7.520   5.200   3.778  2.3849  2.8256 -0.6231
   26MOL   H45621506   7.628   5.216   3.637  0.5444  0.1319  0.8019
   26MOL   H45721507   7.363   5.061   3.629 -0.4191  1.5091  0.6742
   26MOL   H45821508   7.475   5.104   3.498  0.5185  0.7112 -0.3582
   26MOL   H45921509   7.324   5.319   3.660 -1.6926 -0.1621  0.2941
   26MOL   H46021510   7.428   5.339   3.529  0.8188 -1.6552 -1.1771
   26MOL   H46121511   7.149   5.196   3.512 -0.0452 -1.0198 -1.8868
   26MOL   H46221512   7.266   5.217   3.379 -0.3230 -0.3244  0.1658
   26MOL   H46321513   7.188   5.353   3.456 -0.5639 -0.6149 -0.2513
   26MOL   C46421514   0.816   4.963   3.963 -0.2656  0.2006 -0.4434
   26MOL   C46521515   0.769   5.000   3.819 -0.1553 -0.2676 -0.3714
   26MOL   C46621516   0.780   5.157   3.817  0.1574  0.5927  0.1154
   26MOL   C46721517   0.659   5.233   3.882 -0.1062  0.5832 -0.0382
   26MOL   C46821518   0.559   5.280   3.785 -0.1746  0.2527 -0.1353
   26MOL   C46921519   0.439   5.355   3.843  1.0737  0.5808  0.3823
   26MOL   C47021520   0.345   5.397   3.737  0.9814 -0.8616 -0.0900
   26MOL   C47121521   0.204   5.462   3.779 -0.1325  0.1541  0.0679
   26MOL   C47221522   0.107   5.492   3.673  0.9089 -0.2318 -0.0575
   26MOL   C47321523   7.676   5.556   3.734  0.2415  0.0672 -0.2329
   26MOL   C47421524   7.606   5.636   3.624  0.4153  0.3610 -0.0267
   26MOL   C47521525   7.483   5.718   3.672  0.1074 -0.4908 -0.5873
   26MOL   C47621526   7.393   5.776   3.563 -0.0488 -0.1170 -0.0221
   26MOL   C47721527   7.313   5.665   3.487 -0.2442  0.0023 -0.0856
   26MOL   H47821528   0.921   4.990   3.973 -0.4912  1.0742 -0.4070
   26MOL   H47921529   0.771   5.025   4.041  0.0872  2.0943 -1.7305
   26MOL   H48021530   0.664   4.974   3.806 -0.6224  0.9193  0.8436
   26MOL   H48121531   0.879   5.184   3.854 -0.1416  0.9191  0.6741
   26MOL   H48221532   0.784   5.186   3.712  0.4376  1.3680  0.3359
   26MOL   H48321533   0.694   5.303   3.959  1.4609  0.1938 -0.3752
   26MOL   H48421534   0.617   5.157   3.948  0.5237  1.2529  1.1543
   26MOL   H48521535   0.523   5.204   3.716  1.0092  0.1084 -0.6033
   26MOL   H48621536   0.610   5.352   3.722 -0.7579 -0.2188 -1.1535
   26MOL   H48721537   0.393   5.298   3.923  1.6188  0.2285  0.4457
   26MOL   H48821538   0.472   5.451   3.882 -0.2733  0.9593  0.6216
   26MOL   H48921539   0.394   5.461   3.664 -0.0246 -0.6811 -0.6176
   26MOL   H49021540   0.315   5.304   3.688 -0.7862 -0.5536  0.3683
   26MOL   H49121541   0.158   5.390   3.847  0.6360 -0.8541 -0.4663
   26MOL   H49221542   0.230   5.550   3.837 -0.3666 -0.4914  1.1900
   26MOL   H49321543   0.157   5.569   3.613  0.1119  0.9143  0.7086
   26MOL   H49421544   0.079   5.416   3.601 -1.8147  2.4319 -1.9483
   26MOL   H49521545   7.616   5.472   3.770  0.4545 -0.0215 -0.0872
   26MOL   H49621546   0.002   5.611   3.825 -0.9436 -1.1864  0.8341
   26MOL   H49721547   7.660   5.713   3.570  1.0294  0.9050  1.3338
   26MOL   H49821548   7.581   5.563   3.547  0.6064  2.3034 -1.9799
   26MOL   H49921549   7.518   5.802   3.732  0.8078 -0.3144 -1.2277
   26MOL   H50021550   7.421   5.656   3.736  0.2963 -0.0496  0.0242
   26MOL   H50121551   7.323   5.847   3.608 -0.6832 -0.9233  0.2664
   26MOL   H50221552   7.444   5.836   3.488 -1.9932  2.3408  0.5357
   26MOL   H50321553   7.388   5.607   3.433 -0.5837  0.0597 -0.6233
   26MOL   H50421554   7.255   5.600   3.552 -0.4476  1.1263  0.8761
   26MOL   H50521555   7.249   5.711   3.412 -3.2088 -0.4103  2.0839
   26MOL   C50621556   0.843   4.945   3.690  0.0580 -0.0928  0.1720
   26MOL   C50721557   0.752   4.962   3.566  0.7007 -0.6469  0.2115
   26MOL   C50821558   0.826   5.053   3.460  0.4630  0.2361  0.2642
   26MOL   C50921559   0.731   5.120   3.349 -0.1133  0.1035  0.4684
   26MOL   C51021560   0.621   5.212   3.409 -0.6022  0.4582 -0.4911
   26MOL   C51121561   0.546   5.287   3.301 -0.2945 -0.3322  0.6596
   26MOL   C51221562   0.443   5.390   3.358 -0.1171  0.7608 -0.0528
   26MOL   C51321563   0.367   5.479   3.259  0.2563  0.0598 -0.3038
   26MOL   C51421564   0.282   5.589   3.329  0.0543 -0.5053  0.1551
   26MOL   C51521565   0.238   5.704   3.233  0.0485 -0.1145  0.6139
   26MOL   C51621566   0.126   5.786   3.287  0.1037 -0.6286  0.0736
   26MOL   C51721567   0.101   5.902   3.193 -0.5628 -0.1083 -0.1946
   26MOL   C51821568   7.665   5.977   3.224  0.2381  0.1449  0.1288
   26MOL   C51921569   7.666   6.107   3.143  0.0365  0.4806  0.2730
   26MOL   H52021570   0.861   4.840   3.711  0.6542  0.4547  2.5909
   26MOL   H52121571   0.946   4.978   3.672 -0.1256 -0.3229 -1.3692
   26MOL   H52221572   0.658   5.014   3.585  0.3592 -1.4661  0.8023
   26MOL   H52321573   0.865   5.140   3.512 -1.1235 -0.4025  2.5728
   26MOL   H52421574   0.911   5.007   3.409 -0.0751 -0.9137  0.3902
   26MOL   H52521575   0.801   5.178   3.289  0.6093  1.5631  2.6578
   26MOL   H52621576   0.678   5.039   3.300 -0.6996 -0.8982  2.7124
   26MOL   H52721577   0.670   5.292   3.463 -0.0120 -0.9519  1.0906
   26MOL   H52821578   0.551   5.164   3.477 -0.5679 -0.5274 -1.1486
   26MOL   H52921579   0.489   5.218   3.238  1.2449 -0.4756 -0.5988
   26MOL   H53021580   0.611   5.341   3.232 -0.7303 -0.4219  0.1774
   26MOL   H53121581   0.360   5.338   3.406 -0.1371  0.6636 -0.1910
   26MOL   H53221582   0.491   5.452   3.433 -0.4618  1.5224 -0.4512
   26MOL   H53321583   0.301   5.418   3.198 -1.7215  0.2320  1.6272
   26MOL   H53421584   0.435   5.528   3.188 -1.7002 -0.0235 -2.2821
   26MOL   H53521585   0.341   5.639   3.407  2.1664 -0.6980 -1.2641
   26MOL   H53621586   0.196   5.543   3.377 -1.3106  0.9033 -0.8819
   26MOL   H53721587   0.317   5.769   3.195  0.0785 -0.4365  0.1317
   26MOL   H53821588   0.201   5.657   3.142 -1.2262  0.9650  0.5599
   26MOL   H53921589   0.038   5.727   3.312 -1.2685  0.8516 -1.1444
   26MOL   H54021590   0.159   5.834   3.380  3.5000  1.3300 -2.0523
   26MOL   H54121591   0.097   5.865   3.091  0.3185  2.2197 -1.0916
   26MOL   H54221592   0.178   5.977   3.177  0.6355 -1.6225 -1.7166
   26MOL   H54321593   7.680   5.990   3.331  2.2601 -1.6239  0.1160
   26MOL   H54421594   7.580   5.911   3.208 -1.8985  2.6765  0.7692
   26MOL   H54521595   7.580   6.167   3.175 -0.7232 -0.6730  0.4336
   26MOL   H54621596   0.058   6.171   3.156  1.2680 -0.9553 -0.9262
   26MOL   H54721597   7.648   6.083   3.039 -0.4517 -1.6541  0.8337
   26MOL   C54821598   0.716   4.819   3.501  0.8956  0.5690  1.0227
   26MOL   C54921599   0.595   4.737   3.571  0.2377 -0.6105 -0.4364
   26MOL   C55021600   0.462   4.816   3.585  0.3573 -0.4193  0.0633
   26MOL   C55121601   0.380   4.857   3.463 -0.0895  0.8765  0.0669
   26MOL   C55221602   0.266   4.963   3.486 -0.0917  0.2233 -0.0202
   26MOL   C55321603   0.230   5.039   3.362  0.0296 -0.3906 -0.0122
   26MOL   C55421604   0.111   5.132   3.378  0.2133  0.2920  0.3308
   26MOL   C55521605   0.058   5.198   3.242  0.1424  0.3147 -0.2629
   26MOL   C55621606   7.651   5.310   3.261 -0.0893 -0.7037 -0.2624
   26MOL   C55721607   7.600   5.369   3.132 -0.3024  0.3736  0.1845
   26MOL   C55821608   7.491   5.482   3.151 -0.2002  0.6747  0.0633
   26MOL   C55921609   7.448   5.575   3.029  0.3610  0.3947 -0.0520
   26MOL   C56021610   7.326   5.652   3.071 -0.3178  0.6397  0.8224
   26MOL   C56121611   7.290   5.751   2.964 -0.4737  0.3482 -0.3217
   26MOL   H56221612   0.682   4.842   3.400  1.5980 -0.5608  0.5125
   26MOL   H56321613   0.809   4.764   3.515  1.7850  1.5851 -0.7385
   26MOL   H56421614   0.633   4.724   3.673  1.6537 -2.2728 -1.1689
   26MOL   H56521615   0.400   4.752   3.648 -0.2236  0.5358  0.4884
   26MOL   H56621616   0.463   4.906   3.648  1.6991  0.4885 -1.2268
   26MOL   H56721617   0.329   4.765   3.431 -1.2949  2.1049 -1.6623
   26MOL   H56821618   0.457   4.890   3.394  0.1558 -0.1341 -0.1582
   26MOL   H56921619   0.179   4.917   3.534  0.3928  0.3179  0.9719
   26MOL   H57021620   0.303   5.038   3.556  1.2190 -0.9639  0.6082
   26MOL   H57121621   0.205   4.972   3.279 -0.2203  1.3927 -1.3901
   26MOL   H57221622   0.314   5.101   3.333 -0.9409  0.3518 -1.2911
   26MOL   H57321623   0.034   5.074   3.429  0.3097  0.3453  0.5372
   26MOL   H57421624   0.131   5.207   3.454  0.3354 -0.5071  1.1040
   26MOL   H57521625   0.006   5.125   3.180 -1.0016  2.7858 -2.2746
   26MOL   H57621626   0.142   5.230   3.181  1.1831 -0.7163  0.5812
   26MOL   H57721627   0.015   5.381   3.319  0.8083 -0.8954 -0.9349
   26MOL   H57821628   7.580   5.251   3.319  1.3303 -0.9966  1.2190
   26MOL   H57921629   7.682   5.416   3.077  1.1157 -0.3135  1.6610
   26MOL   H58021630   7.575   5.291   3.060  2.1698 -1.2174  0.9794
   26MOL   H58121631   7.528   5.549   3.229 -2.0699 -0.3773  1.9040
   26MOL   H58221632   7.409   5.425   3.193  0.2321 -0.3765 -0.5012
   26MOL   H58321633   7.536   5.638   3.015 -0.3366  1.0970 -1.3509
   26MOL   H58421634   7.437   5.524   2.933  1.1016  1.0619 -0.5004
   26MOL   H58521635   7.238   5.591   3.091 -0.7639  0.5862 -1.2184
   26MOL   H58621636   7.337   5.705   3.166 -1.7433  1.8591  0.3435
   26MOL   H58721637   7.380   5.809   2.944  0.9546 -0.9048  2.2452
   26MOL   H58821638   7.250   5.700   2.876  2.4899 -3.2673  0.2995
   26MOL   H58921639   7.214   5.821   2.997 -1.5218 -0.4266 -1.0370
   26MOL   C59021640   0.574   4.600   3.508  0.2817  0.4542  0.0534
   26MOL   C59121641   0.693   4.495   3.530  0.1373  0.2064  0.3278
   26MOL   C59221642   0.724   4.460   3.678 -0.3683  0.1282  0.4001
   26MOL   C59321643   0.612   4.408   3.763 -0.1082  0.0671  0.5847
   26MOL   C59421644   0.673   4.356   3.892  0.0304  0.2709 -0.1184
   26MOL   C59521645   0.581   4.293   4.000 -0.3396  0.1243  0.0870
   26MOL   C59621646   0.521   4.153   3.964 -0.8377  0.5103  0.7647
   26MOL   C59721647   0.440   4.088   4.067 -0.1556  0.2499 -0.6126
   26MOL   C59821648   0.354   3.970   4.015  0.2273 -0.8578  0.3550
   26MOL   C59921649   0.258   3.909   4.117 -0.4468  0.2782 -0.2308
   26MOL   C60021650   0.207   3.774   4.075 -0.5214 -0.2462  0.5796
   26MOL   C60121651   0.092   3.729   4.162 -0.7530 -0.9333  0.1220
   26MOL   C60221652   0.053   3.589   4.126 -0.0840  0.2247  0.8446
   26MOL   C60321653   7.632   3.536   4.203 -0.4634  0.4683  0.3668
   26MOL   H60421654   0.552   4.617   3.403 -1.1962 -0.6188  0.1731
   26MOL   H60521655   0.487   4.560   3.560  1.1248 -1.1607  0.2670
   26MOL   H60621656   0.785   4.543   3.500  0.8554  0.9912  3.5477
   26MOL   H60721657   0.766   4.546   3.731  0.9484  0.9226 -1.8546
   26MOL   H60821658   0.806   4.389   3.677 -2.6546 -2.5972  0.4857
   26MOL   H60921659   0.551   4.330   3.717 -0.8464  0.0192  1.6249
   26MOL   H61021660   0.537   4.484   3.781 -2.2782 -2.1906  1.4216
   26MOL   H61121661   0.728   4.439   3.937 -0.2202  0.0093  0.6930
   26MOL   H61221662   0.746   4.279   3.867 -2.3060 -1.4161 -1.8990
   26MOL   H61321663   0.501   4.365   4.019 -0.7207  0.0634 -1.2261
   26MOL   H61421664   0.637   4.276   4.092  0.4252  0.5627 -0.2862
   26MOL   H61521665   0.464   4.157   3.871  0.5044 -0.7262 -0.1317
   26MOL   H61621666   0.606   4.088   3.940  1.0433  3.4592 -0.8594
   26MOL   H61721667   0.496   4.044   4.150 -1.6434  0.0505  0.2945
   26MOL   H61821668   0.373   4.160   4.113  1.1398  1.7584 -1.0176
   26MOL   H61921669   0.307   3.998   3.921 -0.9024  0.2124  1.2211
   26MOL   H62021670   0.423   3.888   3.994  0.2606 -0.9477  0.8071
   26MOL   H62121671   0.306   3.900   4.214  1.2028 -1.2428 -1.1630
   26MOL   H62221672   0.169   3.970   4.135 -0.5079 -0.8523  3.6674
   26MOL   H62321673   0.283   3.697   4.066  0.6912  1.1536 -1.6094
   26MOL   H62421674   0.168   3.778   3.973 -1.3788  2.6924  0.9823
   26MOL   H62521675   0.001   3.788   4.166  0.1001  0.2929  1.6155
   26MOL   H62621676   0.142   3.719   4.258  2.1876  0.8179 -1.1432
   26MOL   H62721677   0.019   3.597   4.023  0.8275  0.0207  0.5222
   26MOL   H62821678   0.139   3.521   4.124  0.7978  1.3211  1.1897
   26MOL   H62921679   7.622   3.427   4.200  2.7943  0.1469 -1.6652
   26MOL   H63021680   7.537   3.573   4.165 -1.6943  0.3692  3.2519
   26MOL   H63121681   7.645   3.557   4.309  1.0346  0.4872  0.1965
   26MOL   C63221682   0.677   4.382   3.436  0.2375  0.2689 -0.8724
   26MOL   C63321683   0.797   4.282   3.416 -0.0720  0.1724 -0.0914
   26MOL   C63421684   0.774   4.158   3.510 -0.4215 -0.0795  0.3176
   26MOL   C63521685   0.903   4.064   3.529  0.1370 -0.2267  0.3475
   26MOL   C63621686   1.026   4.131   3.596  0.5738 -0.1706 -0.8523
   26MOL   C63721687   1.149   4.035   3.580  0.6287  0.5525 -0.1937
   26MOL   C63821688   1.269   4.084   3.665  0.4216  0.3524 -0.1877
   26MOL   C63921689   1.358   4.178   3.583  0.1895 -0.6720  0.2263
   26MOL   C64021690   1.468   4.241   3.661 -0.0533  0.0224  0.4212
   26MOL   C64121691   1.604   4.174   3.633  0.2390 -0.4315 -0.0647
   26MOL   C64221692   1.735   4.229   3.695  0.5563  0.1726  0.2460
   26MOL   C64321693   1.861   4.185   3.629 -0.0999 -0.5208  0.4616
   26MOL   C64421694   1.984   4.230   3.709  0.2541 -0.9909  0.2418
   26MOL   C64521695   2.116   4.178   3.644  0.1681 -0.6184 -0.2058
   26MOL   H64621696   0.644   4.424   3.340  2.0422  4.4046  0.1764
   26MOL   H64721697   0.589   4.326   3.467  0.2570  0.9214  0.3783
   26MOL   H64821698   0.890   4.330   3.447 -1.0521  0.7290  2.1160
   26MOL   H64921699   0.734   4.178   3.610  0.5979  2.6714  0.2240
   26MOL   H65021700   0.694   4.099   3.467 -0.3546  0.6741 -0.8599
   26MOL   H65121701   0.932   4.028   3.430  0.1908  0.7888 -0.0097
   26MOL   H65221702   0.869   3.982   3.592  0.5345  0.1189  1.0201
   26MOL   H65321703   0.999   4.180   3.689 -2.7348 -0.5988 -1.5206
   26MOL   H65421704   1.048   4.217   3.534  0.9362  0.4993  0.1996
   26MOL   H65521705   1.126   3.938   3.624 -1.4268 -0.0245 -2.4489
   26MOL   H65621706   1.175   4.016   3.476  0.7332 -0.1907 -0.0370
   26MOL   H65721707   1.228   4.125   3.757 -0.1093  1.0053 -0.7095
   26MOL   H65821708   1.327   3.997   3.696  0.0047  0.0995 -0.1118
   26MOL   H65921709   1.292   4.246   3.530  1.2699 -0.1771 -0.5219
   26MOL   H66021710   1.402   4.119   3.502 -1.6619  0.9037 -2.0005
   26MOL   H66121711   1.452   4.250   3.769 -1.2655 -0.5993  0.3091
   26MOL   H66221712   1.467   4.342   3.619 -1.6991 -0.5667 -1.0016
   26MOL   H66321713   1.607   4.066   3.646 -2.0839 -0.4439  0.6461
   26MOL   H66421714   1.625   4.188   3.526 -1.0605 -2.5558 -0.6293
   26MOL   H66521715   1.732   4.338   3.699  0.8458  0.1462  1.6562
   26MOL   H66621716   1.745   4.198   3.799 -0.0039  1.0585  0.5626
   26MOL   H66721717   1.868   4.219   3.526  0.3055  1.3956  1.1147
   26MOL   H66821718   1.857   4.076   3.640  2.2725 -0.5025  1.9357
   26MOL   H66921719   1.978   4.189   3.810 -0.6787 -0.2577  0.4891
   26MOL   H67021720   1.988   4.337   3.726  0.9009 -0.8993 -0.4621
   26MOL   H67121721   2.124   4.213   3.541 -1.1451 -1.2269 -0.5177
   26MOL   H67221722   2.198   4.209   3.709 -1.2229 -0.2141  1.3794
   26MOL   H67321723   2.143   4.072   3.640  0.2848 -0.6141  0.4455
   26MOL   C67421724   0.810   4.229   3.266  0.4102  0.2565 -0.5452
   26MOL   C67521725   0.896   4.317   3.167 -0.0910 -0.6591  0.5724
   26MOL   C67621726   0.839   4.460   3.159 -0.0177  0.0378 -0.6460
   26MOL   C67721727   0.709   4.476   3.073 -0.4313  0.1953 -0.0658
   26MOL   C67821728   0.655   4.621   3.073  0.8714 -0.1285  0.4841
   26MOL   C67921729   0.555   4.653   2.960  0.2293 -0.6043 -0.0103
   26MOL   C68021730   0.427   4.578   2.943  0.1334 -0.0628  0.3599
   26MOL   C68121731   0.346   4.640   2.830 -0.0474 -0.1661 -0.4877
   26MOL   C68221732   0.200   4.588   2.823  0.7375 -0.3666 -0.0994
   26MOL   C68321733   0.192   4.437   2.797 -0.0966  0.3219 -0.0366
   26MOL   C68421734   0.054   4.367   2.821 -0.2100  0.2924  0.6900
   26MOL   C68521735   0.051   4.215   2.774  0.2798 -0.2282  0.8005
   26MOL   C68621736   7.639   4.128   2.845  0.0211 -0.3078 -0.3699
   26MOL   C68721737   7.670   4.097   2.995  0.1026 -0.4225  0.2920
   26MOL   H68821738   0.710   4.232   3.223  0.9593  1.5192 -1.7759
   26MOL   H68921739   0.842   4.125   3.259  0.7226  0.3065  0.1970
   26MOL   H69021740   0.872   4.274   3.070 -1.0841  2.2599 -0.5468
   26MOL   H69121741   0.847   4.506   3.257 -0.5036  1.9489 -1.4622
   26MOL   H69221742   0.910   4.523   3.105  0.8030  0.1041  0.4914
   26MOL   H69321743   0.730   4.445   2.970  3.4847 -1.1229  1.0249
   26MOL   H69421744   0.632   4.408   3.106 -0.6641  0.2689 -0.4478
   26MOL   H69521745   0.620   4.628   3.176  0.4236  0.1316  0.3126
   26MOL   H69621746   0.742   4.685   3.057  0.3184  0.7890  1.1293
   26MOL   H69721747   0.540   4.761   2.949  1.1441 -0.3707  0.9382
   26MOL   H69821748   0.611   4.642   2.868 -0.7540 -0.3536 -0.6475
   26MOL   H69921749   0.450   4.474   2.919 -0.0218 -0.2568  1.0308
   26MOL   H70021750   0.368   4.578   3.035  1.6245  1.9493  1.3599
   26MOL   H70121751   0.348   4.748   2.837  1.0281  0.0507 -3.2623
   26MOL   H70221752   0.389   4.623   2.731  0.7350  1.0002 -0.3584
   26MOL   H70321753   0.140   4.623   2.907 -1.4960 -1.9022 -0.9982
   26MOL   H70421754   0.147   4.638   2.742 -1.0504 -0.0625  1.2296
   26MOL   H70521755   0.271   4.394   2.859 -2.3197  2.1218  4.2771
   26MOL   H70621756   0.232   4.415   2.698  2.1548 -1.5548  1.2399
   26MOL   H70721757   7.686   4.416   2.747  1.2108  0.1636 -0.6540
   26MOL   H70821758   0.010   4.377   2.920 -1.2054 -1.5706  0.4548
   26MOL   H70921759   0.150   4.173   2.796 -0.3054 -1.8364  0.4257
   26MOL   H71021760   0.041   4.207   2.666  1.1502  1.0053  0.6174
   26MOL   H71121761   7.544   4.180   2.834 -0.8293 -1.4525  1.3035
   26MOL   H71221762   7.612   4.045   2.781 -3.0564  1.1869 -1.1102
   26MOL   H71321763   7.596   4.037   3.046 -1.3014  0.7417 -0.3372
   26MOL   H71421764   0.071   4.046   3.001 -1.5409 -3.5963  0.2278
   26MOL   H71521765   7.662   4.186   3.058 -0.7942 -0.5545  0.3598
   26MOL   C71621766   1.046   4.312   3.201 -0.5290  0.5673 -0.0437
   26MOL   C71721767   1.141   4.367   3.091 -0.9332 -0.3937  0.2395
   26MOL   C71821768   1.288   4.352   3.142  0.5534  0.5702  0.3915
   26MOL   C71921769   1.334   4.456   3.246  0.3173  0.6714 -0.3574
   26MOL   C72021770   1.486   4.450   3.263 -0.0495  0.7406 -0.0086
   26MOL   C72121771   1.542   4.544   3.363  0.4348  0.7090  0.4602
   26MOL   C72221772   1.688   4.522   3.395 -0.3885  0.1564 -0.3733
   26MOL   C72321773   1.739   4.622   3.504  0.2980  0.5775  0.9510
   26MOL   C72421774   1.879   4.603   3.540  0.4260 -0.3143 -0.3484
   26MOL   C72521775   1.924   4.695   3.653  0.2429  0.1911  0.2981
   26MOL   C72621776   2.075   4.675   3.687 -0.5051 -0.7046  0.4970
   26MOL   C72721777   2.107   4.736   3.821  0.2284 -0.0495 -0.0932
   26MOL   C72821778   2.259   4.736   3.854  0.3124 -0.1672 -1.0812
   26MOL   C72921779   2.298   4.789   3.992 -0.1027 -0.3269 -0.2408
   26MOL   H73021780   1.061   4.346   3.303 -1.2130 -1.7466  0.8701
   26MOL   H73121781   1.069   4.206   3.218  3.1595  1.0893 -1.1894
   26MOL   H73221782   1.129   4.474   3.074  0.0909 -0.8718 -4.0728
   26MOL   H73321783   1.362   4.361   3.063 -0.0589 -0.7951 -0.3578
   26MOL   H73421784   1.300   4.249   3.176  0.7895  0.8737  1.2445
   26MOL   H73521785   1.305   4.558   3.222  1.5880  1.1128 -0.0650
   26MOL   H73621786   1.281   4.441   3.339 -1.4421 -0.1231 -1.4703
   26MOL   H73721787   1.497   4.346   3.294 -2.3785 -0.1473 -2.0906
   26MOL   H73821788   1.537   4.469   3.169 -1.0314 -0.0939 -0.7104
   26MOL   H73921789   1.523   4.649   3.343 -0.5751  0.6280  0.9803
   26MOL   H74021790   1.499   4.518   3.460 -0.1251 -0.5161 -0.1117
   26MOL   H74121791   1.705   4.419   3.426 -1.4764 -0.1759 -0.8869
   26MOL   H74221792   1.738   4.536   3.299 -1.4021 -0.0406 -0.9275
   26MOL   H74321793   1.679   4.601   3.593 -0.1252  0.6525  0.6876
   26MOL   H74421794   1.715   4.727   3.486 -2.6901 -0.3594 -0.9061
   26MOL   H74521795   1.910   4.505   3.576  1.2707  0.1412  0.1664
   26MOL   H74621796   1.946   4.627   3.457  3.2082 -2.5023  1.2112
   26MOL   H74721797   1.910   4.800   3.627 -1.4722 -0.2042 -0.4547
   26MOL   H74821798   1.863   4.681   3.742 -0.4238  0.4665 -0.1087
   26MOL   H74921799   2.103   4.570   3.697 -1.8712 -1.1287 -0.0796
   26MOL   H75021800   2.133   4.713   3.603  0.0957 -0.6152  0.9477
   26MOL   H75121801   2.062   4.834   3.811 -1.1193 -0.5465  0.8769
   26MOL   H75221802   2.048   4.682   3.896 -1.2758  2.2188  0.3969
   26MOL   H75321803   2.308   4.791   3.775  2.5735 -1.1407 -0.3920
   26MOL   H75421804   2.304   4.637   3.856  0.6292 -0.0353 -1.7219
   26MOL   H75521805   2.267   4.724   4.073 -0.2757  2.6039  2.1593
   26MOL   H75621806   2.255   4.885   4.022 -0.9676 -1.3346  1.8451
   26MOL   H75721807   2.405   4.789   4.009 -0.5615  0.7464  3.0959
   26MOL   C75821808   1.133   4.288   2.961  0.0767  0.1265  0.1544
   26MOL   C75921809   1.192   4.361   2.836  0.3514  0.3862  0.1786
   26MOL   C76021810   1.190   4.270   2.708 -0.2503 -0.5504  0.5619
   26MOL   C76121811   1.322   4.187   2.681  0.3881 -0.1676 -0.0563
   26MOL   C76221812   1.323   4.109   2.543 -0.0658 -0.3792  0.1352
   26MOL   C76321813   1.247   3.976   2.568 -0.3849  0.1474  0.4871
   26MOL   C76421814   1.246   3.897   2.436 -0.8076  0.1874 -0.2691
   26MOL   C76521815   1.147   3.773   2.431  0.0663 -0.3124 -0.6739
   26MOL   C76621816   1.193   3.647   2.501  0.4804  0.7068 -0.8743
   26MOL   C76721817   1.096   3.525   2.489  0.3870 -0.2376 -0.4613
   26MOL   C76821818   1.142   3.384   2.545 -0.0453  0.1303 -0.0702
   26MOL   C76921819   1.021   3.290   2.549  0.7832  0.0573 -0.2782
   26MOL   C77021820   0.970   3.218   2.418  0.7049 -0.6333 -0.2301
   26MOL   C77121821   0.829   3.157   2.440 -0.0962 -0.0050 -0.5480
   26MOL   H77221822   1.199   4.202   2.967  0.3123 -0.0188 -3.5444
   26MOL   H77321823   1.032   4.257   2.931  0.3624 -0.1421 -0.5414
   26MOL   H77421824   1.285   4.400   2.876  1.1585 -1.4867  0.1739
   26MOL   H77521825   1.106   4.201   2.705 -1.6235  1.1097 -0.0471
   26MOL   H77621826   1.169   4.327   2.618  0.9154  0.3482  0.8400
   26MOL   H77721827   1.411   4.248   2.697 -1.3952  2.2915  0.9200
   26MOL   H77821828   1.322   4.115   2.763  3.5866  1.1334  1.1768
   26MOL   H77921829   1.423   4.101   2.501  0.4844  1.3495  1.0666
   26MOL   H78021830   1.268   4.164   2.466 -0.5956 -0.4833  0.4322
   26MOL   H78121831   1.142   3.996   2.591  0.3174  3.8065  0.8874
   26MOL   H78221832   1.300   3.915   2.641  0.6449 -0.5653 -0.8166
   26MOL   H78321833   1.228   3.963   2.351 -1.3413 -1.8882 -1.8153
   26MOL   H78421834   1.351   3.875   2.419 -0.6068  2.1295 -1.5674
   26MOL   H78521835   1.142   3.748   2.325 -0.0467 -1.5179 -0.3832
   26MOL   H78621836   1.048   3.803   2.464 -0.0757 -3.4392  1.9241
   26MOL   H78721837   1.206   3.667   2.607  0.5812 -3.1891 -0.0610
   26MOL   H78821838   1.291   3.616   2.464  0.6147  0.6909 -0.5037
   26MOL   H78921839   1.091   3.506   2.382 -0.7891 -0.9655 -0.2840
   26MOL   H79021840   0.998   3.552   2.527  0.7777  0.1712  0.2745
   26MOL   H79121841   1.207   3.345   2.467  1.0572  0.6318  0.5862
   26MOL   H79221842   1.199   3.382   2.638  0.8060  1.3695 -0.5478
   26MOL   H79321843   1.041   3.220   2.630  0.3128 -0.1057 -0.3008
   26MOL   H79421844   0.945   3.358   2.587  0.2518 -0.8621  0.3423
   26MOL   H79521845   0.963   3.304   2.352 -0.7792  1.3009  2.3869
   26MOL   H79621846   1.040   3.145   2.376 -0.3088 -1.6270 -0.2064
   26MOL   H79721847   0.833   3.061   2.491 -1.0372  0.3036  0.1253
   26MOL   H79821848   0.777   3.235   2.497  2.2609  0.4412  1.0264
   26MOL   H79921849   0.774   3.158   2.346 -1.0891  1.4691  0.0245
   26MOL   C80021850   1.119   4.495   2.807 -0.4988 -0.1877  0.2492
   26MOL   C80121851   0.968   4.488   2.777 -0.1592 -0.5115 -0.2219
   26MOL   C80221852   0.893   4.618   2.759 -0.1613  0.3740 -0.6995
   26MOL   C80321853   0.922   4.684   2.621 -0.1985 -0.1432  0.0077
   26MOL   C80421854   0.864   4.818   2.584  0.3122 -0.0462 -0.2868
   26MOL   C80521855   0.705   4.808   2.590  0.3113 -0.2415  0.1182
   26MOL   C80621856   0.635   4.931   2.535  0.1866 -0.0857 -0.6360
   26MOL   C80721857   0.635   4.927   2.381  0.1377  0.6448  0.6888
   26MOL   C80821858   0.530   5.033   2.323  0.1821 -0.1519  0.2311
   26MOL   C80921859   0.560   5.180   2.351 -0.0329 -0.1849 -0.4559
   26MOL   C81021860   0.456   5.267   2.276 -0.2185 -0.6454 -0.4570
   26MOL   C81121861   0.495   5.419   2.271 -0.3609 -0.3923 -0.0060
   26MOL   C81221862   0.486   5.487   2.414  0.6563  0.6701 -0.1316
   26MOL   C81321863   0.349   5.471   2.474  0.8283 -0.1094  0.0286
   26MOL   H81421864   1.172   4.550   2.729 -0.5241 -1.0695 -0.3875
   26MOL   H81521865   1.131   4.573   2.883 -0.8815  0.0095  0.1158
   26MOL   H81621866   0.910   4.436   2.854 -0.1454  0.0816  0.1967
   26MOL   H81721867   0.918   4.675   2.848 -1.3645  0.6739 -0.5461
   26MOL   H81821868   0.791   4.579   2.764  0.3410 -1.3307 -2.8698
   26MOL   H81921869   0.891   4.613   2.544  0.5934 -1.4455  0.8730
   26MOL   H82021870   1.030   4.688   2.605 -0.3192 -2.0004 -1.5421
   26MOL   H82121871   0.899   4.890   2.658 -1.8701  0.4523  0.2887
   26MOL   H82221872   0.901   4.862   2.491 -0.7344 -1.9496 -1.6349
   26MOL   H82321873   0.664   4.783   2.688  0.1387 -0.7660 -0.0876
   26MOL   H82421874   0.678   4.725   2.525 -0.3898  0.5860 -0.6600
   26MOL   H82521875   0.534   4.936   2.576  0.6650  1.0958  0.4341
   26MOL   H82621876   0.698   5.012   2.570 -1.0285 -0.3231  2.3012
   26MOL   H82721877   0.732   4.949   2.337  0.0390  0.5247  0.4130
   26MOL   H82821878   0.594   4.831   2.349 -0.5867  1.4086 -0.6898
   26MOL   H82921879   0.526   5.013   2.216  2.1678 -0.0326  0.1128
   26MOL   H83021880   0.434   5.008   2.367  0.0387 -0.0230 -0.0081
   26MOL   H83121881   0.660   5.206   2.314  0.4906 -2.1978 -0.5334
   26MOL   H83221882   0.568   5.215   2.454  2.7152 -2.3126  0.1182
   26MOL   H83321883   0.427   5.233   2.177 -0.3426 -0.6163 -0.4321
   26MOL   H83421884   0.365   5.249   2.334 -1.1298  1.0838 -1.2686
   26MOL   H83521885   0.432   5.483   2.209  1.5962 -0.4534 -2.1165
   26MOL   H83621886   0.597   5.424   2.235 -0.1994 -1.1845  0.3294
   26MOL   H83721887   0.556   5.451   2.489  0.8193  0.7044 -0.2669
   26MOL   H83821888   0.509   5.593   2.404  0.5260  0.8964  1.8259
   26MOL   H83921889   0.335   5.375   2.523  0.9370  1.3788  3.1200
   26MOL   H84021890   0.347   5.545   2.554  0.3639 -0.5006  0.3773
   26MOL   H84121891   0.262   5.497   2.415  0.2161 -2.5204 -0.1759
   26MOL   H84221892   0.958   4.429   2.686 -3.5288 -1.0526  0.4269
   27MOL     C121893   2.262   3.583   5.950 -0.3302  0.0957  0.0474
   27MOL     C221894   2.276   3.731   5.943  0.5304  0.8874  0.2985
   27MOL     C321895   2.136   3.797   5.953 -0.4544  0.3489  0.0799
   27MOL     C421896   2.025   3.746   5.853  0.0072  0.3219  0.6524
   27MOL     C521897   1.907   3.837   5.844  0.2717  0.9722  0.3750
   27MOL     C621898   1.926   3.948   5.739  0.0112  0.3505  0.9253
   27MOL     C721899   1.799   4.029   5.712 -0.1423  0.1417 -0.2907
   27MOL     C821900   1.819   4.155   5.631 -0.7993 -0.5983 -0.5842
   27MOL     C921901   1.690   4.219   5.584  0.3653 -0.7194  0.8430
   27MOL    C1021902   1.714   4.343   5.494 -0.0581  0.5420  0.7209
   27MOL    C1121903   1.575   4.415   5.466 -0.1613 -0.8780  0.1723
   27MOL    C1221904   1.577   4.517   5.344 -0.7278  0.4545 -0.6918
   27MOL    C1321905   1.449   4.594   5.344  0.5595  0.8274 -0.4082
   27MOL    C1421906   1.464   4.729   5.276  0.1624  0.6743 -0.0420
   27MOL    H1521907   2.253   3.527   5.856  0.5096  0.3846 -0.2144
   27MOL    H1621908   2.180   3.565   6.019 -0.5416 -2.6173 -0.8410
   27MOL    H1721909   2.316   3.751   5.844 -0.0489  0.3166 -0.0535
   27MOL    H1821910   2.091   3.794   6.053 -2.9173 -0.7478 -1.0223
   27MOL    H1921911   2.144   3.905   5.938 -5.0435  0.8756  0.4971
   27MOL    H2021912   1.987   3.651   5.890 -1.2087 -0.2668 -1.9823
   27MOL    H2121913   2.069   3.733   5.754 -0.4957 -0.1354  0.4864
   27MOL    H2221914   1.875   3.885   5.936  2.1041 -0.3995  1.7554
   27MOL    H2321915   1.828   3.773   5.803  2.6449 -1.2154 -0.9155
   27MOL    H2421916   1.935   3.905   5.639 -0.5017 -0.6420  1.2994
   27MOL    H2521917   2.011   4.011   5.768 -0.2936  2.1258 -1.8486
   27MOL    H2621918   1.720   3.963   5.676  1.8970 -1.5817 -1.7404
   27MOL    H2721919   1.739   4.055   5.798 -1.7674  0.5817 -1.5307
   27MOL    H2821920   1.877   4.137   5.540 -1.4420  0.8056 -1.2853
   27MOL    H2921921   1.882   4.224   5.686 -1.5638  0.7219 -1.3355
   27MOL    H3021922   1.643   4.141   5.523  1.3786 -1.2474  0.7290
   27MOL    H3121923   1.613   4.247   5.656  0.7686  1.4087  0.4807
   27MOL    H3221924   1.792   4.405   5.539 -0.0075 -0.3525  1.9076
   27MOL    H3321925   1.757   4.298   5.405 -0.3879  0.7238  0.4718
   27MOL    H3421926   1.493   4.346   5.450 -0.9807  0.4642 -1.6430
   27MOL    H3521927   1.545   4.475   5.553 -0.8537  0.2902 -0.8551
   27MOL    H3621928   1.598   4.457   5.255  0.9548 -0.9452  0.6048
   27MOL    H3721929   1.662   4.585   5.352 -0.7470  0.5488 -1.2751
   27MOL    H3821930   1.380   4.529   5.290 -1.1822  1.8751  0.4985
   27MOL    H3921931   1.406   4.615   5.441  1.2639 -0.1151  0.1196
   27MOL    H4021932   1.490   4.722   5.170 -0.5593  1.5868 -0.2935
   27MOL    H4121933   1.369   4.783   5.282 -0.5085 -0.5206  0.1880
   27MOL    H4221934   1.535   4.802   5.315 -0.3499  0.4729  1.3062
   27MOL    H4321935   2.345   3.540   6.006 -1.0368 -0.2926  0.8028
   27MOL    C4421936   2.357   3.788   6.062 -0.3016 -0.0076 -0.4515
   27MOL    C4521937   2.502   3.757   6.074 -0.3111 -0.0276 -1.0706
   27MOL    C4621938   2.545   3.782   6.221 -0.7746 -0.3122 -0.3992
   27MOL    C4721939   2.691   3.753   6.261  0.5366  0.3994  0.1024
   27MOL    C4821940   2.712   3.763   6.414 -0.0096 -0.3238  0.0678
   27MOL    C4921941   2.867   3.761   6.438  0.1206  0.3165 -0.1275
   27MOL    C5021942   2.897   3.804   6.583  0.1209  0.6188  0.2924
   27MOL    C5121943   3.045   3.804   6.631 -0.1274 -0.8525  0.3016
   27MOL    C5221944   3.061   3.892   6.759 -0.1879  0.6287  0.2365
   27MOL    C5321945   3.202   3.880   6.811 -0.3877  0.1322  0.2676
   27MOL    C5421946   3.227   3.966   6.930 -0.3299  0.3352 -0.7400
   27MOL    C5521947   3.380   3.964   6.977  0.1809  0.5938  0.4363
   27MOL    C5621948   3.446   3.828   7.007  0.7077  0.0380  0.0234
   27MOL    C5721949   3.596   3.831   7.043 -0.2686  0.3739 -1.0643
   27MOL    H5821950   2.337   3.893   6.084  1.2152 -0.1321  1.7667
   27MOL    H5921951   2.310   3.742   6.149  0.4226  2.0982  1.1233
   27MOL    H6021952   2.505   3.649   6.062  1.8165  0.0127 -1.0673
   27MOL    H6121953   2.533   3.888   6.247 -0.3280 -0.4015  0.1834
   27MOL    H6221954   2.474   3.731   6.286 -1.4357 -3.5398 -3.5509
   27MOL    H6321955   2.761   3.812   6.201 -1.0680 -0.9302 -3.2124
   27MOL    H6421956   2.720   3.655   6.224 -0.3734 -0.8690  2.6898
   27MOL    H6521957   2.667   3.679   6.468  1.3973 -0.6890  0.6929
   27MOL    H6621958   2.664   3.847   6.465 -0.5700 -1.1417  0.9147
   27MOL    H6721959   2.898   3.658   6.415  0.3537  0.0727  1.2547
   27MOL    H6821960   2.908   3.833   6.367 -0.9585  0.4433 -0.6415
   27MOL    H6921961   2.865   3.909   6.585  0.0350  0.5845  0.6285
   27MOL    H7021962   2.849   3.743   6.659  1.5619 -0.8692  0.0295
   27MOL    H7121963   3.110   3.831   6.548  0.4562 -0.2595  0.9392
   27MOL    H7221964   3.061   3.698   6.650 -1.0271 -0.9431  0.5518
   27MOL    H7321965   3.028   3.996   6.760 -4.2558 -0.5630  2.9753
   27MOL    H7421966   2.993   3.845   6.829  0.8508 -0.4919  0.5065
   27MOL    H7521967   3.277   3.899   6.735 -1.3174 -0.0975 -0.7074
   27MOL    H7621968   3.231   3.778   6.836  1.4548  0.3693 -0.8117
   27MOL    H7721969   3.153   3.946   7.007 -0.3164  0.1585 -0.7737
   27MOL    H7821970   3.217   4.073   6.908  1.7375  0.3922 -1.5353
   27MOL    H7921971   3.442   4.009   6.900  0.7561  0.2421  0.6909
   27MOL    H8021972   3.391   4.032   7.062  0.6085  1.9352 -0.6826
   27MOL    H8121973   3.443   3.761   6.921 -2.0867 -1.3948  1.1598
   27MOL    H8221974   3.397   3.782   7.093 -1.0445  2.8957  0.6145
   27MOL    H8321975   3.626   3.922   7.095 -1.9639 -0.4898  1.5215
   27MOL    H8421976   3.659   3.834   6.954  1.4822 -1.1409  0.1105
   27MOL    H8521977   3.624   3.743   7.100  2.6529  1.2347 -1.1202
   27MOL    C8621978   2.590   3.837   5.969 -0.9616  0.4153 -0.5709
   27MOL    C8721979   2.693   3.738   5.913  0.0033 -0.3034  0.3251
   27MOL    C8821980   2.808   3.820   5.839 -0.3881  0.0273  0.2732
   27MOL    C8921981   2.918   3.864   5.942  0.4059  0.7311  0.5430
   27MOL    C9021982   3.004   3.758   6.004 -0.3485 -0.2605  0.2343
   27MOL    C9121983   3.110   3.840   6.080  0.7408 -0.3386  0.2025
   27MOL    C9221984   3.218   3.756   6.146 -0.6018 -0.3797  0.3169
   27MOL    C9321985   3.172   3.645   6.235  0.3895  0.1872  0.6690
   27MOL    C9421986   3.294   3.599   6.321 -0.4557 -0.5893 -0.6886
   27MOL    C9521987   3.258   3.503   6.432  0.9100  0.3515  0.4527
   27MOL    C9621988   3.391   3.442   6.487 -0.1031  0.0780  0.2536
   27MOL    C9721989   3.365   3.369   6.620  0.2754  0.0342 -0.5376
   27MOL    C9821990   3.493   3.349   6.704  0.1156  0.6220 -0.1403
   27MOL    C9921991   3.601   3.264   6.640 -1.0037  0.5562 -0.0080
   27MOL   H10021992   2.534   3.881   5.888 -0.5608  0.6378 -0.7303
   27MOL   H10121993   2.639   3.922   6.016 -1.5684  0.1261  0.6198
   27MOL   H10221994   2.742   3.682   5.993  2.0657  1.2256  0.1902
   27MOL   H10321995   2.871   3.765   5.768  1.2932 -0.0973  1.8136
   27MOL   H10421996   2.755   3.903   5.792  0.8461  0.1124 -1.0288
   27MOL   H10521997   2.983   3.930   5.885  1.5397 -1.7819 -1.1747
   27MOL   H10621998   2.872   3.935   6.011 -2.2212  0.1412 -0.5547
   27MOL   H10721999   3.044   3.688   5.930  2.9732  1.6819  0.0808
   27MOL   H10822000   2.953   3.696   6.077  0.1108 -0.6324  0.2453
   27MOL   H10922001   3.058   3.907   6.148 -0.2696 -1.1373  0.2261
   27MOL   H11022002   3.152   3.908   6.007 -0.2028 -0.1209 -0.1495
   27MOL   H11122003   3.279   3.702   6.074 -0.5964 -0.8456  0.6669
   27MOL   H11222004   3.275   3.835   6.194  0.8657 -1.6583  0.7038
   27MOL   H11322005   3.118   3.561   6.190  0.7202  0.2375  0.1743
   27MOL   H11422006   3.097   3.690   6.300  2.2741  1.8604  1.7250
   27MOL   H11522007   3.370   3.546   6.263  1.9430  1.2512  0.7098
   27MOL   H11622008   3.356   3.680   6.358 -0.7728 -0.0102 -1.4119
   27MOL   H11722009   3.196   3.422   6.395  0.5430  1.1767 -0.7936
   27MOL   H11822010   3.212   3.555   6.516 -1.3019 -1.4235  0.3646
   27MOL   H11922011   3.443   3.385   6.410  0.9832 -0.0858  1.1024
   27MOL   H12022012   3.464   3.522   6.498 -0.3241  0.4571 -1.0062
   27MOL   H12122013   3.293   3.426   6.678 -1.4888 -3.8654  1.2346
   27MOL   H12222014   3.322   3.269   6.612  0.5615 -0.0948 -0.4744
   27MOL   H12322015   3.470   3.306   6.802 -2.6258  0.1631 -0.9291
   27MOL   H12422016   3.531   3.451   6.705 -0.0764  0.7029 -1.2463
   27MOL   H12522017   3.642   3.309   6.550 -0.9322 -1.4369 -1.0169
   27MOL   H12622018   3.675   3.229   6.711  0.1012 -0.8893 -1.8252
   27MOL   H12722019   3.552   3.176   6.596  0.1633  0.7766 -1.7890
   27MOL   C12822020   2.637   3.636   5.813 -0.4580 -0.1323 -0.5071
   27MOL   C12922021   2.732   3.517   5.799 -0.5364 -0.2829  0.3910
   27MOL   C13022022   2.725   3.423   5.921 -0.1418  0.0778 -0.1768
   27MOL   C13122023   2.864   3.368   5.961 -0.1733 -0.0875 -0.2137
   27MOL   C13222024   2.871   3.261   6.077  0.3228  0.2974 -0.3168
   27MOL   C13322025   3.014   3.207   6.090 -0.0523 -0.0530 -0.4370
   27MOL   C13422026   3.042   3.120   6.209 -0.0358  0.3768  0.0884
   27MOL   C13522027   3.189   3.080   6.203 -0.1897  0.3064  0.6704
   27MOL   C13622028   3.225   3.015   6.341 -0.8198 -0.2602 -0.2264
   27MOL   C13722029   3.375   3.027   6.373  0.5890  0.2010  0.2317
   27MOL   C13822030   3.407   2.930   6.491 -1.0362  0.4664 -0.3464
   27MOL   C13922031   3.332   2.967   6.619  0.0067 -0.3410  0.6542
   27MOL   C14022032   3.388   2.892   6.742 -0.2514  0.0902 -0.0115
   27MOL   C14122033   3.335   2.952   6.874 -0.0119  0.2582  0.0100
   27MOL   H14222034   2.539   3.600   5.846  0.0282 -0.8793  0.1633
   27MOL   H14322035   2.624   3.694   5.722 -2.6399 -0.9733 -0.7793
   27MOL   H14422036   2.835   3.554   5.796 -0.4213 -0.7239 -1.9465
   27MOL   H14522037   2.668   3.461   6.005  1.7264  0.0984  1.1111
   27MOL   H14622038   2.671   3.336   5.883  0.2564 -0.4670  0.5017
   27MOL   H14722039   2.903   3.325   5.868 -1.3127 -3.3650  0.7530
   27MOL   H14822040   2.926   3.458   5.971 -0.7712  0.1554  1.4097
   27MOL   H14922041   2.847   3.312   6.170  3.3159  1.1714  0.0135
   27MOL   H15022042   2.796   3.182   6.066  0.3195  0.2513  0.0394
   27MOL   H15122043   3.030   3.146   6.001  1.0832 -1.9091  0.9899
   27MOL   H15222044   3.090   3.285   6.086  0.6488 -0.7019 -0.1476
   27MOL   H15322045   3.005   3.184   6.290 -1.6628  0.9163 -1.0444
   27MOL   H15422046   2.970   3.038   6.206 -0.9671  1.2556 -2.4831
   27MOL   H15522047   3.202   3.020   6.113 -0.8325  3.0158 -1.3056
   27MOL   H15622048   3.246   3.171   6.183 -3.0239  1.9570 -0.2255
   27MOL   H15722049   3.159   3.033   6.425 -1.5453  1.9452 -1.2176
   27MOL   H15822050   3.203   2.910   6.323 -1.6204 -0.1734  0.2407
   27MOL   H15922051   3.390   3.133   6.390 -1.8765  0.5629  0.3211
   27MOL   H16022052   3.435   3.008   6.284  1.6358  1.4464  0.6660
   27MOL   H16122053   3.375   2.832   6.455 -1.0759  1.2019 -2.4139
   27MOL   H16222054   3.513   2.924   6.515 -0.6697 -0.4160 -2.0893
   27MOL   H16322055   3.353   3.072   6.636  1.6654 -0.6477  0.5137
   27MOL   H16422056   3.224   2.954   6.612  0.0228  0.5074 -1.3742
   27MOL   H16522057   3.354   2.789   6.736 -1.2013  0.3660  0.5909
   27MOL   H16622058   3.497   2.884   6.750 -0.3357 -0.0506  1.0169
   27MOL   H16722059   3.360   2.891   6.961 -2.0582  2.2220  2.0479
   27MOL   H16822060   3.364   3.054   6.898  1.3522 -0.2904  0.7436
   27MOL   H16922061   3.226   2.961   6.873 -0.1346 -1.1604 -1.9971
   27MOL   C17022062   2.704   3.438   5.672  0.8170 -0.5264  1.2836
   27MOL   C17122063   2.725   3.516   5.535  0.2054 -0.0871  0.9177
   27MOL   C17222064   2.831   3.454   5.439 -0.0981  0.9841  0.1689
   27MOL   C17322065   2.783   3.322   5.377 -0.4818  0.7920  0.0941
   27MOL   C17422066   2.867   3.265   5.270 -0.7050 -0.1708 -0.4137
   27MOL   C17522067   2.825   3.298   5.123  0.7455  0.5614 -0.2699
   27MOL   C17622068   2.915   3.236   5.014  0.3816  0.2979 -0.7540
   27MOL   C17722069   2.855   3.244   4.876  0.4046  0.2387  0.0146
   27MOL   C17822070   2.842   3.387   4.824 -0.1750 -0.2724 -0.1017
   27MOL   C17922071   2.804   3.390   4.677 -0.4451  0.4147  0.7877
   27MOL   C18022072   2.803   3.531   4.619 -0.4153 -0.5341  0.0504
   27MOL   C18122073   2.781   3.530   4.471 -0.2247 -0.4097  0.7050
   27MOL   C18222074   2.631   3.539   4.440  0.3536  0.4546  0.2544
   27MOL   C18322075   2.623   3.593   4.299 -0.1106  0.4643 -0.3728
   27MOL   H18422076   2.599   3.410   5.684  1.0665 -2.9656 -1.7265
   27MOL   H18522077   2.755   3.342   5.674  1.2436 -0.4489 -2.5320
   27MOL   H18622078   2.766   3.612   5.567  2.9153 -1.2890  1.2003
   27MOL   H18722079   2.852   3.524   5.359  0.7063 -0.0714 -0.5571
   27MOL   H18822080   2.918   3.439   5.504 -0.4832 -0.4962  0.3527
   27MOL   H18922081   2.770   3.248   5.457 -2.4644  0.7058 -0.3006
   27MOL   H19022082   2.681   3.333   5.341 -0.9240 -2.3211  0.2065
   27MOL   H19122083   2.974   3.284   5.281 -0.3122 -3.0745  1.2697
   27MOL   H19222084   2.856   3.157   5.276 -0.8551 -0.0847  1.0821
   27MOL   H19322085   2.821   3.406   5.108  0.8644  0.2438 -2.7283
   27MOL   H19422086   2.726   3.255   5.108  0.9387  0.4153 -1.1672
   27MOL   H19522087   2.917   3.131   5.044 -2.7703  0.2702 -0.4448
   27MOL   H19622088   3.017   3.275   5.020  0.4911 -0.4148  2.8198
   27MOL   H19722089   2.761   3.189   4.873  1.2545 -1.2948  0.5124
   27MOL   H19822090   2.918   3.191   4.805  1.7091 -1.3726  2.3190
   27MOL   H19922091   2.943   3.429   4.828 -1.2178  2.2732  1.0227
   27MOL   H20022092   2.782   3.449   4.890  1.1281 -0.4730  1.2991
   27MOL   H20122093   2.709   3.337   4.668 -0.1645  0.2627 -1.6434
   27MOL   H20222094   2.886   3.334   4.632  0.1534  0.7438  1.4513
   27MOL   H20322095   2.904   3.569   4.634 -0.3620 -0.2008 -1.1166
   27MOL   H20422096   2.741   3.595   4.682  0.9473  0.4178  0.4604
   27MOL   H20522097   2.823   3.623   4.432 -0.3205 -0.2070  1.0828
   27MOL   H20622098   2.837   3.457   4.413  0.2135  0.3385  0.1677
   27MOL   H20722099   2.601   3.434   4.436 -1.0448  0.8462 -0.0073
   27MOL   H20822100   2.570   3.590   4.515 -2.7257 -0.7639 -1.3095
   27MOL   H20922101   2.676   3.527   4.230 -2.1661 -1.4243 -0.2104
   27MOL   H21022102   2.654   3.697   4.289 -1.1288  0.7444 -0.7174
   27MOL   H21122103   2.519   3.579   4.269 -0.0459 -1.6880  0.3075
   27MOL   C21222104   2.588   3.543   5.467 -0.6080  0.1600  0.0677
   27MOL   C21322105   2.590   3.630   5.335 -0.3822 -0.2519 -0.3161
   27MOL   C21422106   2.460   3.623   5.259 -0.0223 -0.9545  0.2636
   27MOL   C21522107   2.421   3.474   5.229  0.0565 -0.2057  0.3235
   27MOL   C21622108   2.330   3.464   5.104 -0.2240 -0.2351 -0.0473
   27MOL   C21722109   2.427   3.469   4.988  0.4656  0.4495  0.7628
   27MOL   C21822110   2.342   3.453   4.865  0.4928  0.5496 -0.6894
   27MOL   C21922111   2.425   3.440   4.742  0.7112  0.4914  0.5665
   27MOL   C22022112   2.366   3.380   4.617 -0.5252  0.5061 -0.0546
   27MOL   C22122113   2.265   3.474   4.544 -0.4380 -0.2263  0.1898
   27MOL   C22222114   2.221   3.398   4.419 -0.0156  0.4907  0.3707
   27MOL   C22322115   2.088   3.454   4.364 -0.9989  0.1293  0.1641
   27MOL   C22422116   2.039   3.391   4.240  0.6975 -0.0914 -0.0036
   27MOL   C22522117   1.900   3.456   4.201 -0.4579 -0.5417 -0.1513
   27MOL   H22622118   2.532   3.612   5.531 -1.6036  0.6514 -1.3112
   27MOL   H22722119   2.525   3.454   5.470  0.6092 -0.6772  1.8790
   27MOL   H22822120   2.661   3.589   5.263  1.2632  1.7208  0.1565
   27MOL   H22922121   2.378   3.670   5.313 -0.4744 -1.9614  0.4601
   27MOL   H23022122   2.474   3.677   5.165 -0.2577 -0.2222  0.6410
   27MOL   H23122123   2.361   3.440   5.314 -2.2238 -0.9261 -1.4959
   27MOL   H23222124   2.508   3.409   5.227  0.6893  0.5648  2.2019
   27MOL   H23322125   2.259   3.546   5.116 -0.9094 -0.2321 -3.5759
   27MOL   H23422126   2.266   3.376   5.104  1.1472 -1.2592 -0.2351
   27MOL   H23522127   2.500   3.389   4.998  0.3029  0.1711 -0.2079
   27MOL   H23622128   2.485   3.561   4.991  0.5917  0.4166 -0.4668
   27MOL   H23722129   2.288   3.358   4.856 -2.1841  1.7511  1.8055
   27MOL   H23822130   2.268   3.532   4.851  1.5549  1.2364 -2.6634
   27MOL   H23922131   2.465   3.537   4.714  0.6662 -0.4448 -3.0278
   27MOL   H24022132   2.503   3.366   4.761  1.1297  0.8020  0.0345
   27MOL   H24122133   2.306   3.294   4.643 -0.2282 -0.1873 -1.5900
   27MOL   H24222134   2.438   3.342   4.544  0.8499  0.1335  1.4641
   27MOL   H24322135   2.181   3.501   4.608  0.4799 -1.1299  1.8013
   27MOL   H24422136   2.321   3.565   4.519  3.6231 -1.6467  3.5461
   27MOL   H24522137   2.202   3.292   4.435 -1.6677  0.7663  0.3325
   27MOL   H24622138   2.307   3.405   4.352 -1.4310  0.5695 -1.4681
   27MOL   H24722139   2.105   3.559   4.340  2.3756 -0.6221 -0.9854
   27MOL   H24822140   2.015   3.449   4.444 -1.3583 -1.5767 -0.2501
   27MOL   H24922141   2.040   3.282   4.250  0.4235  0.0730  1.9432
   27MOL   H25022142   2.107   3.420   4.160 -0.5584  2.1436 -0.3032
   27MOL   H25122143   1.822   3.445   4.276 -0.8866 -0.0850 -0.5351
   27MOL   H25222144   1.920   3.562   4.213  3.6540 -1.4064  1.5644
   27MOL   H25322145   1.861   3.435   4.102  1.2542 -0.2744 -0.8989
   27MOL   C25422146   2.636   3.772   5.363  0.1726  0.2485 -0.0180
   27MOL   C25522147   2.671   3.865   5.241  0.2862  0.3699 -0.0651
   27MOL   C25622148   2.711   4.000   5.299  0.4521  0.6247 -0.4351
   27MOL   C25722149   2.577   4.068   5.337 -0.6229 -0.6659  0.6131
   27MOL   C25822150   2.589   4.192   5.426 -0.2990 -0.1144 -0.4656
   27MOL   C25922151   2.637   4.151   5.566 -0.3704  0.3676 -0.2642
   27MOL   C26022152   2.630   4.276   5.664  0.0581  0.4890  0.3264
   27MOL   C26122153   2.688   4.240   5.811  1.0723 -0.3732  0.6836
   27MOL   C26222154   2.835   4.203   5.809 -0.4754 -0.1020  0.0567
   27MOL   C26322155   2.929   4.328   5.800 -0.0388  0.2199  0.3782
   27MOL   C26422156   3.076   4.301   5.769  0.1071  0.0358 -0.4570
   27MOL   C26522157   3.179   4.385   5.844  0.8235 -0.4727 -0.2577
   27MOL   C26622158   3.208   4.337   5.988  0.1053 -0.1675  0.4135
   27MOL   C26722159   3.272   4.449   6.072 -0.0967 -0.4480  0.5473
   27MOL   H26822160   2.725   3.772   5.427  0.6397  0.2617 -0.6602
   27MOL   H26922161   2.548   3.808   5.417  1.1242  0.4625  1.4426
   27MOL   H27022162   2.575   3.885   5.194 -1.8418 -0.7215  3.6214
   27MOL   H27122163   2.769   4.065   5.233  0.2911  2.2036  0.9365
   27MOL   H27222164   2.764   3.982   5.393 -0.0987 -4.0169 -0.8966
   27MOL   H27322165   2.502   4.000   5.377 -0.5584 -0.1799  1.5832
   27MOL   H27422166   2.530   4.101   5.245 -3.0408 -0.7744  1.7589
   27MOL   H27522167   2.490   4.236   5.434 -1.4336 -2.5264 -0.6852
   27MOL   H27622168   2.660   4.263   5.384  0.6770 -0.2681  0.8973
   27MOL   H27722169   2.741   4.126   5.547 -0.4594  0.1826 -0.5067
   27MOL   H27822170   2.590   4.061   5.605 -0.0293  0.2907 -0.0275
   27MOL   H27922171   2.684   4.355   5.612 -1.3599  1.5673  0.4626
   27MOL   H28022172   2.524   4.296   5.675 -0.1872 -1.1211  1.0184
   27MOL   H28122173   2.625   4.158   5.846  2.4008 -1.2850  0.9592
   27MOL   H28222174   2.679   4.319   5.885 -0.6347 -1.1767  1.3690
   27MOL   H28322175   2.861   4.150   5.901 -0.5837  1.5813  1.0841
   27MOL   H28422176   2.856   4.130   5.731  1.7692 -0.2558  0.7804
   27MOL   H28522177   2.925   4.394   5.887 -0.5545 -0.5573  0.9476
   27MOL   H28622178   2.882   4.389   5.724 -3.6185 -1.3196  1.2570
   27MOL   H28722179   3.092   4.325   5.664 -0.7940  1.3671 -0.2978
   27MOL   H28822180   3.093   4.195   5.789 -2.1909  0.2646  3.0812
   27MOL   H28922181   3.269   4.390   5.783 -1.7263  1.5340 -4.1375
   27MOL   H29022182   3.143   4.488   5.844 -0.0717 -0.7575  1.9087
   27MOL   H29122183   3.128   4.279   6.035  0.1275 -0.0064  0.6534
   27MOL   H29222184   3.286   4.267   5.962  0.1347 -0.0803  0.2679
   27MOL   H29322185   3.194   4.518   6.106 -0.8253 -1.8598  1.8110
   27MOL   H29422186   3.348   4.499   6.012 -2.1861  3.0639  0.6528
   27MOL   H29522187   3.320   4.402   6.158  0.7747 -0.0183  0.2970
   27MOL   C29622188   2.776   3.805   5.141  0.4043 -0.0492  0.3063
   27MOL   C29722189   2.817   3.894   5.014  0.2631 -0.4037  0.3061
   27MOL   C29822190   2.921   3.829   4.922  0.0530 -0.3446 -0.2410
   27MOL   C29922191   3.058   3.810   4.993  0.5215  0.4073  0.1804
   27MOL   C30022192   3.160   3.727   4.897  0.2418 -0.1170 -0.0082
   27MOL   C30122193   3.310   3.771   4.923  0.2693  0.2805  0.0596
   27MOL   C30222194   3.410   3.657   4.877  0.0840  0.4762 -0.3437
   27MOL   C30322195   3.557   3.698   4.867 -0.3828 -0.1532 -0.2072
   27MOL   C30422196   3.647   3.574   4.842  0.4940  0.6410 -0.8148
   27MOL   C30522197   3.670   3.477   4.958  0.3278  0.3062  0.4988
   27MOL   C30622198   3.792   3.381   4.948  0.2372  0.3346 -0.0580
   27MOL   C30722199   3.784   3.281   5.061 -0.2496 -0.3027  0.4204
   27MOL   C30822200   3.790   3.341   5.202  0.2506 -0.1454  0.4182
   27MOL   C30922201   3.905   3.441   5.226  0.5736  0.1670  0.2268
   27MOL   H31022202   2.743   3.705   5.113  0.2104  0.6149 -1.9358
   27MOL   H31122203   2.866   3.774   5.195  0.2710 -1.9557 -0.5010
   27MOL   H31222204   2.852   3.991   5.048  1.9659 -0.5632 -0.9093
   27MOL   H31322205   2.943   3.886   4.832  4.5330 -1.2284  0.1922
   27MOL   H31422206   2.890   3.728   4.895  0.3607 -0.6722  0.5951
   27MOL   H31522207   3.053   3.767   5.093 -0.2971 -0.4149 -0.2056
   27MOL   H31622208   3.095   3.912   5.002 -1.0228  1.0146 -0.2377
   27MOL   H31722209   3.145   3.621   4.917 -0.2727  0.3311  2.1657
   27MOL   H31822210   3.141   3.734   4.790 -1.2966  2.6598  0.4035
   27MOL   H31922211   3.328   3.806   5.025  0.1647  2.5881 -0.6827
   27MOL   H32022212   3.325   3.864   4.868  0.8139  0.2418  0.1341
   27MOL   H32122213   3.398   3.567   4.938 -2.7546  0.7619 -0.4161
   27MOL   H32222214   3.385   3.623   4.777 -0.1641  0.5349 -0.3021
   27MOL   H32322215   3.586   3.741   4.963  1.3869 -1.1280 -0.2818
   27MOL   H32422216   3.573   3.765   4.782  1.6360 -0.9308 -0.4545
   27MOL   H32522217   3.609   3.518   4.757  0.3762  0.4164 -0.6124
   27MOL   H32622218   3.740   3.610   4.798  0.0006  1.5833 -1.1056
   27MOL   H32722219   3.589   3.406   4.944 -0.6311  1.2710  1.0960
   27MOL   H32822220   3.664   3.521   5.058 -1.3935  3.5387 -0.9637
   27MOL   H32922221   3.887   3.433   4.933  1.1872 -1.6903 -1.2099
   27MOL   H33022222   3.790   3.324   4.855  0.6927 -2.3014  1.4999
   27MOL   H33122223   3.858   3.201   5.054  1.3657  1.3162 -1.8687
   27MOL   H33222224   3.687   3.234   5.045 -1.5013  2.9787 -2.5383
   27MOL   H33322225   3.807   3.258   5.271 -0.7573  0.9064  1.9899
   27MOL   H33422226   3.702   3.391   5.243  0.3951 -2.1428  3.3139
   27MOL   H33522227   3.910   3.457   5.333  2.8645  0.3817  0.1297
   27MOL   H33622228   3.998   3.411   5.176  0.5572  0.1689  0.1949
   27MOL   H33722229   3.879   3.539   5.186 -0.1826 -0.0194  0.2613
   27MOL   C33822230   2.698   3.940   4.927  0.7669  0.5446 -0.6849
   27MOL   C33922231   2.723   4.055   4.830  0.8187 -0.4657 -0.4452
   27MOL   C34022232   2.606   4.077   4.731  0.2608  0.3296  0.0232
   27MOL   C34122233   2.567   3.963   4.631  0.4441 -0.2733  0.6939
   27MOL   C34222234   2.448   3.996   4.535 -0.1846  0.4397  0.3331
   27MOL   C34322235   2.412   3.884   4.431 -0.0839  0.8134  0.4356
   27MOL   C34422236   2.300   3.928   4.327 -0.3594 -0.2432 -0.5801
   27MOL   C34522237   2.231   3.814   4.260 -0.1360 -0.4030  0.1847
   27MOL   C34622238   2.307   3.791   4.127 -0.1396 -0.1079 -0.1589
   27MOL   C34722239   2.309   3.639   4.080  0.2429  0.1096 -0.2145
   27MOL   C34822240   2.408   3.616   3.969 -0.1573  0.1734 -0.0639
   27MOL   C34922241   2.398   3.478   3.898  0.5029 -0.1340 -0.2315
   27MOL   C35022242   2.528   3.410   3.849 -0.1913  0.5013  0.4483
   27MOL   C35122243   2.601   3.498   3.748  0.2156  0.1239  0.3606
   27MOL   H35222244   2.660   3.847   4.885  1.0454  0.3093 -0.4245
   27MOL   H35322245   2.617   3.963   4.996 -1.4347  0.1307 -3.0616
   27MOL   H35422246   2.797   4.023   4.757 -0.1318  0.5296 -1.8860
   27MOL   H35522247   2.520   4.108   4.791  0.8712 -1.0417  1.6304
   27MOL   H35622248   2.622   4.173   4.682  0.7642  1.0067  1.4788
   27MOL   H35722249   2.545   3.869   4.682 -0.3243 -0.8546 -0.6754
   27MOL   H35822250   2.643   3.947   4.555  0.4441  3.0316 -0.0679
   27MOL   H35922251   2.459   4.094   4.489 -2.5625  0.1235 -1.0563
   27MOL   H36022252   2.360   4.023   4.593  0.3832  0.1900  1.3049
   27MOL   H36122253   2.499   3.859   4.370 -0.5444 -1.3515  0.6304
   27MOL   H36222254   2.379   3.792   4.479  0.2535  0.1736 -0.5542
   27MOL   H36322255   2.221   3.967   4.392  2.3216  1.3226  1.8590
   27MOL   H36422256   2.333   4.010   4.262  0.1455  0.6579  0.7979
   27MOL   H36522257   2.233   3.724   4.321 -0.2161  0.4367  1.4393
   27MOL   H36622258   2.125   3.837   4.246 -0.7635 -2.4654  1.3681
   27MOL   H36722259   2.258   3.857   4.055  0.1780 -1.1114 -1.3094
   27MOL   H36822260   2.411   3.823   4.136 -0.7738  1.4801  1.8424
   27MOL   H36922261   2.330   3.573   4.164  0.2528  2.5740  1.7860
   27MOL   H37022262   2.206   3.606   4.064  0.7435 -1.1878 -0.7922
   27MOL   H37122263   2.508   3.633   4.009 -0.8829  1.4820  1.2398
   27MOL   H37222264   2.394   3.694   3.894  1.3459 -0.3038 -0.8533
   27MOL   H37322265   2.319   3.472   3.824 -1.0220 -2.3033  1.5094
   27MOL   H37422266   2.355   3.410   3.972 -0.9839 -0.5056 -1.4333
   27MOL   H37522267   2.589   3.393   3.938  0.4493  1.6182  0.2224
   27MOL   H37622268   2.510   3.312   3.804 -0.9451  1.2270 -0.8636
   27MOL   H37722269   2.676   3.434   3.702 -0.0343  1.5569 -2.1128
   27MOL   H37822270   2.546   3.544   3.667  0.8473 -1.4158 -0.9663
   27MOL   H37922271   2.659   3.580   3.790  1.1592 -0.1460 -0.3838
   27MOL   C38022272   2.756   4.187   4.910 -0.1048  0.0467  0.1576
   27MOL   C38122273   2.897   4.236   4.891  0.1265 -1.2266  0.4827
   27MOL   C38222274   2.917   4.295   4.742 -0.2223  0.3018  0.5398
   27MOL   C38322275   2.849   4.425   4.704  0.6430  0.2102  0.4238
   27MOL   C38422276   2.871   4.460   4.552 -0.7173  0.2257  0.2389
   27MOL   C38522277   2.806   4.368   4.444 -0.0080  0.2203 -0.4745
   27MOL   C38622278   2.831   4.422   4.300  0.3390  0.1401  0.4452
   27MOL   C38722279   2.981   4.389   4.262  0.1039  0.4049  0.8050
   27MOL   C38822280   3.001   4.241   4.204  0.5509 -0.3285 -0.2842
   27MOL   C38922281   3.152   4.215   4.182  0.6793 -0.4537 -0.9520
   27MOL   C39022282   3.172   4.100   4.084  0.7395 -0.3000  0.1601
   27MOL   C39122283   3.320   4.085   4.039  0.0913  0.2030  0.0269
   27MOL   C39222284   3.338   3.948   3.973  0.1173  0.6727 -0.0227
   27MOL   C39322285   3.348   3.843   4.078  0.2306  0.3261 -0.5433
   27MOL   H39422286   2.742   4.175   5.018 -0.3544  0.9800  0.2421
   27MOL   H39522287   2.681   4.263   4.885 -0.9764 -0.4299  1.2790
   27MOL   H39622288   2.955   4.144   4.898  0.1673 -1.2590 -0.1974
   27MOL   H39722289   2.871   4.217   4.682  0.3515  0.7349 -0.4803
   27MOL   H39822290   3.025   4.305   4.726 -0.3655 -1.6793 -2.0155
   27MOL   H39922291   2.901   4.495   4.769 -1.2263  1.8756  0.1874
   27MOL   H40022292   2.745   4.419   4.738  0.8818 -0.1646  1.0896
   27MOL   H40122293   2.980   4.465   4.540 -0.5966  0.2215  1.2838
   27MOL   H40222294   2.837   4.561   4.530  0.8356  0.9776  1.2204
   27MOL   H40322295   2.699   4.367   4.461  0.1048  1.4900  0.4562
   27MOL   H40422296   2.838   4.264   4.449  3.0486  1.1150 -0.3207
   27MOL   H40522297   2.766   4.370   4.230 -1.6334  2.1673  0.7209
   27MOL   H40622298   2.803   4.528   4.303 -1.5306 -0.3684  2.2065
   27MOL   H40722299   2.999   4.465   4.186 -1.2870  3.4524  3.4199
   27MOL   H40822300   3.057   4.409   4.336  0.2623 -0.2769  0.8285
   27MOL   H40922301   2.956   4.183   4.284 -0.9530  1.0821 -0.0660
   27MOL   H41022302   2.945   4.223   4.112 -0.1032  1.3573 -0.2551
   27MOL   H41122303   3.188   4.197   4.283  0.0968  0.4975 -0.5798
   27MOL   H41222304   3.183   4.303   4.126  0.8803 -0.9127 -1.5779
   27MOL   H41322305   3.134   4.006   4.126  2.0816 -0.7060  0.4765
   27MOL   H41422306   3.096   4.106   4.005  0.6146 -1.7998  0.1502
   27MOL   H41522307   3.397   4.098   4.115 -0.3754  4.2634 -0.0709
   27MOL   H41622308   3.340   4.168   3.971  0.7837  1.2802  1.5049
   27MOL   H41722309   3.258   3.913   3.907  0.9786 -3.0121  0.8070
   27MOL   H41822310   3.427   3.958   3.911 -0.0127 -1.5477 -0.5852
   27MOL   H41922311   3.249   3.811   4.110  0.4211  0.3635  0.0808
   27MOL   H42022312   3.396   3.874   4.171  1.4297  2.6860 -1.8814
   27MOL   H42122313   3.409   3.765   4.033  0.5357  0.3688 -0.2051
   27MOL   C42222314   2.947   4.349   4.989 -0.3126  0.4992  0.6572
   27MOL   C42322315   2.960   4.323   5.143 -1.0313 -0.2110 -0.3236
   27MOL   C42422316   3.043   4.198   5.170  0.8932 -0.0653 -0.8609
   27MOL   C42522317   3.031   4.136   5.310  0.4879  0.1865  0.1242
   27MOL   C42622318   3.104   3.999   5.324 -0.6339 -0.5449 -0.1215
   27MOL   C42722319   3.089   3.943   5.470  0.4220 -0.7983 -0.1316
   27MOL   C42822320   3.174   3.815   5.478  0.6666 -0.7012  1.3237
   27MOL   C42922321   3.132   3.713   5.584 -0.2122  0.7497 -0.2385
   27MOL   C43022322   3.211   3.583   5.578  0.0437 -0.3147  0.3278
   27MOL   C43122323   3.195   3.486   5.697 -0.3143  0.0253 -0.0134
   27MOL   C43222324   3.269   3.352   5.693  0.2132  0.2995 -0.5759
   27MOL   C43322325   3.223   3.263   5.581 -0.4972 -0.0996 -0.2614
   27MOL   C43422326   3.097   3.180   5.604 -0.3176 -0.1375  0.2141
   27MOL   C43522327   3.101   3.080   5.713 -0.5580 -0.4390  0.6985
   27MOL   H43622328   2.877   4.431   4.971 -1.6551 -0.5018  1.2548
   27MOL   H43722329   3.042   4.390   4.957 -0.6925  0.7096 -0.2288
   27MOL   H43822330   2.858   4.314   5.179 -0.6666 -1.2511  0.4555
   27MOL   H43922331   3.151   4.205   5.157  0.8904 -1.0069 -1.3984
   27MOL   H44022332   3.007   4.124   5.100  0.0083  0.4711 -0.9764
   27MOL   H44122333   3.071   4.203   5.386  4.1842 -1.0296 -0.6540
   27MOL   H44222334   2.928   4.124   5.344  0.8650  0.7171  1.4896
   27MOL   H44322335   3.210   4.002   5.301 -0.4622  0.8023  0.7610
   27MOL   H44422336   3.060   3.920   5.265 -1.3524 -0.9273  0.9036
   27MOL   H44522337   2.983   3.922   5.488  0.7232 -1.5076  0.8358
   27MOL   H44622338   3.121   4.021   5.539 -1.5036  0.3422 -0.4691
   27MOL   H44722339   3.176   3.765   5.381 -1.3223  0.6653  0.5615
   27MOL   H44822340   3.279   3.845   5.473 -0.2271  2.2895 -0.1972
   27MOL   H44922341   3.138   3.758   5.683 -2.4878 -0.9476  0.7208
   27MOL   H45022342   3.026   3.688   5.579  0.0554 -0.3025 -0.6782
   27MOL   H45122343   3.204   3.533   5.481  0.4024  2.3471 -1.1182
   27MOL   H45222344   3.316   3.613   5.574 -0.4941  1.6646  0.6753
   27MOL   H45322345   3.218   3.538   5.790  3.0236  2.1983 -1.9493
   27MOL   H45422346   3.091   3.464   5.722 -0.9499  0.5989 -2.1055
   27MOL   H45522347   3.375   3.365   5.670  0.3761 -0.4658 -0.3064
   27MOL   H45622348   3.259   3.292   5.784 -0.5091 -0.0047 -0.8520
   27MOL   H45722349   3.305   3.205   5.538  1.7634  1.1837  2.1631
   27MOL   H45822350   3.195   3.335   5.504  1.7714 -0.5793 -1.5691
   27MOL   H45922351   3.003   3.235   5.606 -0.4333 -0.2818 -1.0957
   27MOL   H46022352   3.081   3.112   5.521  0.3533  0.1524 -0.1619
   27MOL   H46122353   3.177   3.003   5.696  0.1647  0.5927 -0.9523
   27MOL   H46222354   3.003   3.035   5.724 -1.5050  1.7310  1.2640
   27MOL   H46322355   3.134   3.127   5.805 -0.2410 -1.5685  1.1786
   27MOL   C46422356   3.006   4.449   5.221 -0.3602  0.9805  0.3519
   27MOL   C46522357   2.917   4.575   5.215  1.0105  0.0446  0.0369
   27MOL   C46622358   2.896   4.645   5.354  0.7482  0.2940 -0.2444
   27MOL   C46722359   2.817   4.566   5.459  0.3725  0.1311  0.2021
   27MOL   C46822360   2.785   4.659   5.583  0.0476 -0.1732 -0.7907
   27MOL   C46922361   2.912   4.682   5.678 -0.6492  0.5113 -0.0285
   27MOL   C47022362   2.865   4.723   5.818  0.1528 -0.0741  0.3049
   27MOL   C47122363   2.961   4.718   5.935 -0.2026  0.1562  0.3871
   27MOL   C47222364   2.923   4.744   6.081 -0.3836 -0.2230 -0.4180
   27MOL   C47322365   2.842   4.650   6.167 -0.4908  0.0018  0.0134
   27MOL   C47422366   2.924   4.524   6.196  0.5468 -0.8242  0.4548
   27MOL   C47522367   2.854   4.415   6.277  0.0926 -0.4976 -0.0344
   27MOL   C47622368   2.824   4.289   6.190 -0.0125 -0.0976  0.2360
   27MOL   C47722369   2.752   4.184   6.273 -0.9730  1.1845 -0.2788
   27MOL   H47822370   3.104   4.468   5.177 -0.9138  2.2404 -0.3530
   27MOL   H47922371   3.018   4.419   5.325  0.6181 -0.2398 -0.0878
   27MOL   H48022372   2.817   4.538   5.191  0.0032  1.6215  1.6102
   27MOL   H48122373   2.986   4.691   5.395  1.3701 -0.1875 -1.0534
   27MOL   H48222374   2.841   4.738   5.339 -1.0012  0.0592  4.0040
   27MOL   H48322375   2.872   4.474   5.479  0.5824  0.0302 -0.8200
   27MOL   H48422376   2.724   4.529   5.415  1.2912 -2.0233  0.0187
   27MOL   H48522377   2.700   4.616   5.636 -0.5271  0.8274 -0.8762
   27MOL   H48622378   2.737   4.750   5.546 -0.1376 -0.0533 -0.2544
   27MOL   H48722379   2.978   4.595   5.679 -1.0988  0.1900  1.4410
   27MOL   H48822380   2.964   4.767   5.634  0.4371  0.3190  0.8765
   27MOL   H48922381   2.816   4.819   5.808 -0.1933 -0.4070 -1.4702
   27MOL   H49022382   2.778   4.663   5.844  0.5933 -0.2813  1.2999
   27MOL   H49122383   3.011   4.621   5.929  0.4884  0.4477  1.2013
   27MOL   H49222384   3.048   4.781   5.913 -0.8547  0.8399 -0.2425
   27MOL   H49322385   3.014   4.764   6.138 -0.0962  2.0520 -1.6061
   27MOL   H49422386   2.872   4.840   6.068  3.5919  1.8839 -1.2757
   27MOL   H49522387   2.818   4.694   6.264 -1.5728 -0.5352 -0.0041
   27MOL   H49622388   2.751   4.622   6.113  0.9704 -2.2842 -1.3757
   27MOL   H49722389   2.968   4.494   6.102 -2.1815  0.6567 -1.3612
   27MOL   H49822390   3.005   4.557   6.261  0.2523  0.0710  0.3805
   27MOL   H49922391   2.758   4.454   6.312  0.3199  0.6685 -0.6654
   27MOL   H50022392   2.906   4.406   6.372 -0.3617 -1.5211  0.1203
   27MOL   H50122393   2.762   4.317   6.105 -0.4830  1.3850  1.0474
   27MOL   H50222394   2.916   4.253   6.143 -0.0872 -1.1411  0.8663
   27MOL   H50322395   2.817   4.159   6.357  0.1494  1.0384 -1.1798
   27MOL   H50422396   2.657   4.221   6.310 -1.5235 -0.8420  0.4131
   27MOL   H50522397   2.732   4.100   6.207 -1.7281  1.2594 -0.1424
   27MOL   C50622398   2.947   4.677   5.102  0.1083 -0.5694  0.6054
   27MOL   C50722399   3.052   4.801   5.127  0.0772  0.1526 -0.2258
   27MOL   C50822400   3.194   4.764   5.070  0.0467  0.5919  0.5776
   27MOL   C50922401   3.314   4.843   5.104  0.3103  0.2274 -0.2523
   27MOL   C51022402   3.436   4.802   5.025 -0.3445 -0.3992 -0.5894
   27MOL   C51122403   3.565   4.873   5.060  0.2446 -0.8985  0.0085
   27MOL   C51222404   3.695   4.796   5.016 -0.6254 -0.6323  0.0675
   27MOL   C51322405   3.809   4.892   5.045 -0.5697 -0.5571  0.9785
   27MOL   C51422406   3.951   4.830   5.034 -0.1960 -0.6192  0.4338
   27MOL   C51522407   4.063   4.922   5.070  0.8932  0.2317  0.1410
   27MOL   C51622408   4.198   4.851   5.072  0.0053 -0.3561 -0.4477
   27MOL   C51722409   4.211   4.759   5.193 -0.1816 -0.0678 -0.3451
   27MOL   C51822410   4.324   4.660   5.170 -0.5139  0.3655 -0.2064
   27MOL   C51922411   4.352   4.583   5.303  0.4930  0.0317 -0.6652
   27MOL   H52022412   2.850   4.719   5.075  0.0655 -0.0433  1.5507
   27MOL   H52122413   2.974   4.643   5.002 -2.7425  1.1624 -0.8435
   27MOL   H52222414   3.059   4.824   5.233 -0.5400 -1.6130  0.2240
   27MOL   H52322415   3.224   4.667   5.111  0.1464  0.5113  0.3102
   27MOL   H52422416   3.185   4.758   4.962  0.8622  0.8736  0.4983
   27MOL   H52522417   3.298   4.948   5.079  2.1429  0.7971  0.8820
   27MOL   H52622418   3.341   4.829   5.209  0.5845  1.4947 -0.1471
   27MOL   H52722419   3.410   4.788   4.920  0.1567 -0.6685 -0.6783
   27MOL   H52822420   3.455   4.703   5.067  1.3016  0.8870  1.8298
   27MOL   H52922421   3.559   4.888   5.168  0.8725  1.6204 -0.2749
   27MOL   H53022422   3.574   4.974   5.018  2.7353 -0.9115  0.4294
   27MOL   H53122423   3.711   4.700   5.065  1.0635 -0.8189 -0.8218
   27MOL   H53222424   3.693   4.770   4.910 -0.4968 -2.6341  0.5376
   27MOL   H53322425   3.789   4.952   5.134  0.6840  0.3046  0.6915
   27MOL   H53422426   3.823   4.969   4.969  1.0174 -2.1667 -0.4107
   27MOL   H53522427   3.964   4.775   4.941  0.5251 -0.6752  0.5649
   27MOL   H53622428   3.940   4.750   5.108 -2.3367 -1.6317 -0.9498
   27MOL   H53722429   4.063   5.002   4.996  0.3213  2.0807  2.1145
   27MOL   H53822430   4.034   4.975   5.160 -0.9101  0.5606 -0.6096
   27MOL   H53922431   4.202   4.789   4.982  1.0320  0.9328 -1.2977
   27MOL   H54022432   4.282   4.920   5.068  0.3364 -0.6533  1.2886
   27MOL   H54122433   4.129   4.688   5.201  0.8674 -1.4509 -1.4849
   27MOL   H54222434   4.226   4.819   5.283 -0.8399 -1.6436  0.8284
   27MOL   H54322435   4.413   4.711   5.133 -0.2396  0.7506  0.9605
   27MOL   H54422436   4.313   4.589   5.088 -0.5184 -1.2548  1.1489
   27MOL   H54522437   4.382   4.643   5.390  1.8655 -1.1893 -0.2791
   27MOL   H54622438   4.262   4.534   5.341  1.3798 -1.0058  0.1537
   27MOL   H54722439   4.421   4.501   5.286  0.8619 -0.0145  0.9698
   27MOL   C54822440   2.994   4.931   5.056 -0.4124  0.6970 -0.4956
   27MOL   C54922441   2.886   5.005   5.134 -0.4325 -0.5458  0.2410
   27MOL   C55022442   2.953   5.082   5.254 -0.4135 -0.8138 -0.0341
   27MOL   C55122443   2.865   5.161   5.343 -0.0598 -0.3213  0.1174
   27MOL   C55222444   2.943   5.221   5.466 -0.2288  0.4373 -0.3370
   27MOL   C55322445   2.923   5.371   5.487 -0.2003  0.5575  0.3628
   27MOL   C55422446   3.017   5.451   5.392 -0.2913  0.5101 -0.1825
   27MOL   C55522447   2.994   5.600   5.413  0.0614 -0.2565 -0.6638
   27MOL   C55622448   3.078   5.689   5.319  0.1560 -0.1239 -0.2594
   27MOL   C55722449   3.060   5.845   5.330 -0.9209  1.1835  0.2583
   27MOL   C55822450   2.944   5.898   5.248  0.2056  0.5667  0.4170
   27MOL   C55922451   2.918   6.046   5.276 -0.6816 -0.3411  0.7125
   27MOL   C56022452   2.791   6.102   5.205 -0.6410 -0.2876 -0.3159
   27MOL   C56122453   2.657   6.096   5.287 -0.4254 -0.3211  0.1627
   27MOL   H56222454   3.077   4.998   5.035 -2.3359  2.8790 -1.3536
   27MOL   H56322455   2.957   4.899   4.958 -0.1426 -0.7016 -0.1552
   27MOL   H56422456   2.817   4.936   5.183  0.5300 -0.8260  1.2294
   27MOL   H56522457   2.999   5.004   5.315 -0.5466 -2.5190 -2.0557
   27MOL   H56622458   3.031   5.144   5.210  0.2524 -2.2432 -0.8843
   27MOL   H56722459   2.788   5.103   5.394 -1.5886  1.3144 -0.2845
   27MOL   H56822460   2.824   5.246   5.288  0.1249  0.5567  1.3139
   27MOL   H56922461   2.914   5.164   5.554 -2.7461 -1.1567 -2.1076
   27MOL   H57022462   3.050   5.209   5.449  0.1260  2.1349  0.5366
   27MOL   H57122463   2.937   5.390   5.593 -0.3532 -1.3715  0.7438
   27MOL   H57222464   2.818   5.388   5.463  0.3866  0.6913 -2.3723
   27MOL   H57322465   3.122   5.433   5.411  0.0683  1.2753 -1.4048
   27MOL   H57422466   3.001   5.417   5.290 -0.8340 -2.4740  0.8605
   27MOL   H57522467   3.013   5.635   5.515 -2.3721 -1.3763  0.1968
   27MOL   H57622468   2.889   5.625   5.398 -0.1745  0.2817  1.6433
   27MOL   H57722469   3.059   5.648   5.220 -2.1727 -0.3091  0.2381
   27MOL   H57822470   3.181   5.658   5.337 -0.0341 -0.1134  0.9189
   27MOL   H57922471   3.037   5.878   5.432  0.2812  0.0651  0.9074
   27MOL   H58022472   3.155   5.891   5.305 -1.2644  1.3678 -0.7317
   27MOL   H58122473   2.852   5.844   5.273 -0.8897  2.1581 -0.0486
   27MOL   H58222474   2.965   5.874   5.144  3.0654 -0.0333  1.1014
   27MOL   H58322475   2.911   6.065   5.383 -0.3494  0.2177  0.6399
   27MOL   H58422476   2.999   6.109   5.237  0.5450 -1.1035  2.0068
   27MOL   H58522477   2.806   6.206   5.178  0.5747 -0.0492  1.1598
   27MOL   H58622478   2.786   6.043   5.114 -2.6495 -0.1876 -0.2857
   27MOL   H58722479   2.570   6.143   5.239 -0.1614 -0.0421 -0.0413
   27MOL   H58822480   2.622   5.997   5.317 -2.1028 -0.2670 -1.4856
   27MOL   H58922481   2.661   6.152   5.381 -0.5202 -0.1525  0.0669
   27MOL   C59022482   2.816   5.097   5.040 -0.3661 -0.3826  0.5226
   27MOL   C59122483   2.731   5.045   4.935 -0.5435  0.3525 -0.1343
   27MOL   C59222484   2.582   5.027   4.980 -0.1580 -0.1489  0.1537
   27MOL   C59322485   2.494   4.940   4.888 -0.3529  0.2192  0.3010
   27MOL   C59422486   2.349   4.928   4.928  0.8238  0.1601  0.2688
   27MOL   C59522487   2.270   4.861   4.815 -0.1452 -0.6726  0.2714
   27MOL   C59622488   2.134   4.796   4.858  0.5010  0.5659  0.9023
   27MOL   C59722489   2.034   4.762   4.749  0.1494  0.5686  0.2928
   27MOL   C59822490   2.085   4.720   4.604 -0.9925 -0.3730 -0.6485
   27MOL   C59922491   1.975   4.684   4.500 -0.0216 -0.3593 -0.5877
   27MOL   C60022492   2.020   4.629   4.364 -0.2848  0.3542  0.4574
   27MOL   C60122493   1.907   4.563   4.293  0.1191 -0.8611 -0.3929
   27MOL   C60222494   1.934   4.508   4.155  0.0192  0.4444 -0.2145
   27MOL   C60322495   1.815   4.480   4.064 -0.1410 -0.2094 -0.3880
   27MOL   H60422496   2.884   5.177   5.011 -2.2171  0.7214 -0.9471
   27MOL   H60522497   2.763   5.166   5.106 -0.9905 -0.2213 -0.1452
   27MOL   H60622498   2.763   4.945   4.906  3.0850  2.1925 -2.7394
   27MOL   H60722499   2.539   5.123   5.008  0.9776 -0.1843  2.1612
   27MOL   H60822500   2.582   4.993   5.084 -0.2382  0.6894  0.4303
   27MOL   H60922501   2.531   4.841   4.862 -1.0163  0.4964 -1.8049
   27MOL   H61022502   2.496   4.984   4.788  0.4859  1.5563  0.8941
   27MOL   H61122503   2.311   5.030   4.926 -0.5327 -0.3072  1.2695
   27MOL   H61222504   2.347   4.886   5.028 -1.4206 -3.1221 -1.0436
   27MOL   H61322505   2.331   4.790   4.758  0.6516  0.3235 -0.1511
   27MOL   H61422506   2.243   4.937   4.742 -1.4632 -1.9374 -0.5862
   27MOL   H61522507   2.155   4.705   4.915 -0.3496 -1.3654 -1.7469
   27MOL   H61622508   2.085   4.851   4.939 -0.4585  1.2998 -0.1694
   27MOL   H61722509   1.956   4.699   4.793  0.3805 -0.2662 -0.4638
   27MOL   H61822510   1.977   4.854   4.736 -1.1300 -0.2510 -0.0800
   27MOL   H61922511   2.152   4.790   4.553 -0.6078 -2.1663 -2.7144
   27MOL   H62022512   2.144   4.630   4.619 -0.1067  0.8495  3.6918
   27MOL   H62122513   1.917   4.601   4.540 -2.5204  0.9722 -1.3676
   27MOL   H62222514   1.914   4.773   4.486 -0.1133 -0.2941  0.2043
   27MOL   H62322515   2.105   4.565   4.388 -0.5450  0.4963  1.7775
   27MOL   H62422516   2.062   4.706   4.299  0.3620  1.0418  1.6667
   27MOL   H62522517   1.829   4.638   4.284 -0.5448 -1.5478 -0.4365
   27MOL   H62622518   1.871   4.480   4.354 -0.9421  0.5111  0.8598
   27MOL   H62722519   1.993   4.585   4.104  2.5727 -1.5617 -0.4021
   27MOL   H62822520   2.011   4.431   4.163 -0.8767 -0.5836 -1.3532
   27MOL   H62922521   1.752   4.566   4.041 -0.5845 -1.0160 -2.2120
   27MOL   H63022522   1.764   4.392   4.103  0.6484 -0.3335  0.4103
   27MOL   H63122523   1.851   4.459   3.964  0.8727  0.2280 -0.1338
   27MOL   C63222524   2.739   5.129   4.799  0.0828  0.3236 -0.4316
   27MOL   C63322525   2.872   5.125   4.720 -0.4574  0.0953  0.3749
   27MOL   C63422526   2.900   4.984   4.666  0.1989 -0.1880  0.0075
   27MOL   C63522527   3.046   4.948   4.636 -0.2627 -0.2114 -0.5769
   27MOL   C63622528   3.055   4.801   4.595 -0.1108  0.2750 -0.8233
   27MOL   C63722529   3.196   4.771   4.546  0.5093 -0.5651 -0.3541
   27MOL   C63822530   3.213   4.626   4.507 -0.3948  0.6782  0.1830
   27MOL   C63922531   3.346   4.596   4.443 -0.3126  0.2404  0.7200
   27MOL   C64022532   3.361   4.442   4.412 -0.1390 -0.0080 -0.2834
   27MOL   C64122533   3.486   4.419   4.316 -0.3557 -0.3708  0.0708
   27MOL   C64222534   3.479   4.442   4.162  0.6286  0.3758 -0.1461
   27MOL   C64322535   3.519   4.581   4.106 -0.8894  0.4082 -0.0717
   27MOL   C64422536   3.460   4.604   3.973 -0.1376 -1.1358 -0.3670
   27MOL   C64522537   3.505   4.739   3.916  0.6302 -0.2358 -0.0837
   27MOL   H64622538   2.707   5.230   4.824 -2.3134 -0.1647 -1.3872
   27MOL   H64722539   2.655   5.099   4.735  1.3201 -3.8281 -0.2824
   27MOL   H64822540   2.946   5.149   4.797  0.1089 -0.1551 -0.0846
   27MOL   H64922541   2.857   4.907   4.730  1.2881  0.2686  1.3164
   27MOL   H65022542   2.835   4.952   4.584  1.8449 -1.8598 -0.6776
   27MOL   H65122543   3.113   4.969   4.719 -0.7983 -1.1551  0.0990
   27MOL   H65222544   3.081   5.013   4.556  0.6495 -1.5596 -1.2940
   27MOL   H65322545   2.977   4.774   4.523 -2.0252  1.9796  0.5548
   27MOL   H65422546   3.036   4.744   4.686 -2.5481 -0.2808 -1.6475
   27MOL   H65522547   3.236   4.839   4.471  0.7407 -0.3415 -0.0299
   27MOL   H65622548   3.258   4.797   4.632 -1.9347 -0.5550  1.4569
   27MOL   H65722549   3.198   4.560   4.592 -0.5616 -0.1456 -0.4771
   27MOL   H65822550   3.148   4.604   4.422  2.5680 -0.2742 -1.9059
   27MOL   H65922551   3.428   4.627   4.508 -0.2095  1.8140 -0.1473
   27MOL   H66022552   3.355   4.650   4.349 -1.1737  1.1947  1.1792
   27MOL   H66122553   3.270   4.405   4.365 -0.6907  1.3156 -0.2601
   27MOL   H66222554   3.368   4.394   4.509 -2.4928  1.3244  0.5705
   27MOL   H66322555   3.577   4.473   4.343 -0.3783 -1.2733  2.0499
   27MOL   H66422556   3.515   4.316   4.333 -0.6920 -0.9576 -2.7125
   27MOL   H66522557   3.551   4.373   4.118 -1.8468 -1.7031 -1.0799
   27MOL   H66622558   3.382   4.405   4.129 -0.5871  2.9249  0.4594
   27MOL   H66722559   3.628   4.573   4.105 -1.0450 -2.6728  1.2798
   27MOL   H66822560   3.499   4.659   4.179 -0.9994  0.6077 -0.3155
   27MOL   H66922561   3.351   4.600   3.969 -0.2647  0.1515  1.3937
   27MOL   H67022562   3.500   4.531   3.903  0.4332  2.2062 -3.6846
   27MOL   H67122563   3.512   4.821   3.987  2.0869  0.2151 -0.7325
   27MOL   H67222564   3.605   4.717   3.879 -0.3674 -0.3160 -2.8314
   27MOL   H67322565   3.461   4.766   3.820  1.2248  0.5475 -0.1400
   27MOL   C67422566   2.870   5.224   4.607  0.2742  0.7957 -0.3142
   27MOL   C67522567   2.990   5.315   4.603  0.3967 -0.3106 -0.3479
   27MOL   C67622568   2.969   5.405   4.473 -0.7127  0.0241  0.0173
   27MOL   C67722569   3.019   5.333   4.338  0.4752  0.3287  0.0709
   27MOL   C67822570   3.014   5.431   4.221 -0.8752  0.5543  0.4234
   27MOL   C67922571   3.081   5.360   4.096  0.4790 -0.7167  0.6281
   27MOL   C68022572   3.085   5.450   3.974 -0.0985 -0.4804 -0.0188
   27MOL   C68122573   3.118   5.367   3.840  0.2726  0.2620 -0.3116
   27MOL   C68222574   3.121   5.450   3.712  0.1837 -0.0773 -0.1259
   27MOL   C68322575   3.235   5.540   3.697  0.3809 -0.2746  0.0266
   27MOL   C68422576   3.226   5.687   3.761  0.2256  1.0405  0.3678
   27MOL   C68522577   3.351   5.758   3.716  0.6914 -0.4228  0.1810
   27MOL   C68622578   3.490   5.682   3.729  0.1696 -0.9508 -0.3209
   27MOL   C68722579   3.609   5.778   3.758  0.0610  0.0020 -0.0009
   27MOL   H68822580   2.784   5.288   4.630  1.1505  0.9122  2.9118
   27MOL   H68922581   2.849   5.178   4.510 -1.2693 -2.3900  1.4518
   27MOL   H69022582   3.071   5.243   4.593  1.6537  1.3590 -2.9043
   27MOL   H69122583   2.871   5.449   4.453 -1.3746 -1.1181  0.7085
   27MOL   H69222584   3.034   5.491   4.490 -0.0001 -0.5408  0.1678
   27MOL   H69322585   3.122   5.305   4.362  0.3277 -1.6677 -1.4623
   27MOL   H69422586   2.963   5.241   4.319 -0.1610  0.8394 -0.5646
   27MOL   H69522587   2.908   5.451   4.203 -0.0796  1.7384 -3.5779
   27MOL   H69622588   3.062   5.526   4.245 -2.1616  1.3597 -0.1347
   27MOL   H69722589   3.175   5.321   4.135  0.0930 -1.3375  0.9398
   27MOL   H69822590   3.023   5.272   4.069  1.2357 -1.2718  0.8050
   27MOL   H69922591   2.991   5.505   3.980  0.4817  0.7984 -1.9765
   27MOL   H70022592   3.159   5.528   3.993 -0.4942 -0.0316 -0.2982
   27MOL   H70122593   3.213   5.313   3.843 -0.4768 -0.9997  3.0497
   27MOL   H70222594   3.037   5.294   3.835  1.7914 -1.2832 -3.7696
   27MOL   H70322595   3.117   5.391   3.621 -1.1316 -1.4726  0.8125
   27MOL   H70422596   3.032   5.512   3.701 -0.7001 -1.5347 -1.4096
   27MOL   H70522597   3.253   5.558   3.590  0.2001 -3.0511 -0.4929
   27MOL   H70622598   3.322   5.490   3.740  0.9197 -0.5768 -1.3585
   27MOL   H70722599   3.234   5.681   3.869  1.2946 -1.3777  0.1825
   27MOL   H70822600   3.132   5.741   3.753 -0.1159  0.8166  2.7790
   27MOL   H70922601   3.342   5.850   3.775 -2.7064 -0.5311 -0.0545
   27MOL   H71022602   3.349   5.788   3.611  2.0849 -1.6809 -0.2259
   27MOL   H71122603   3.484   5.611   3.811 -0.2278 -0.3243  0.2041
   27MOL   H71222604   3.509   5.618   3.644 -2.2293 -2.1734 -0.0006
   27MOL   H71322605   3.687   5.729   3.816  0.5089 -1.6761 -1.9519
   27MOL   H71422606   3.642   5.836   3.671  0.9867  1.0632  1.0364
   27MOL   H71522607   3.555   5.848   3.821 -3.1532 -0.9222 -1.5941
   27MOL   C71622608   3.014   5.403   4.726  0.5140  0.3119  0.4560
   27MOL   C71722609   3.154   5.471   4.742  0.1162 -0.0320  0.0811
   27MOL   C71822610   3.141   5.577   4.857 -0.6960  0.0360  0.0086
   27MOL   C71922611   3.241   5.688   4.849 -0.1891 -0.4341 -0.0933
   27MOL   C72022612   3.226   5.788   4.966  0.0936 -0.0640 -0.0859
   27MOL   C72122613   3.335   5.892   4.966 -0.2568 -0.1202  0.8008
   27MOL   C72222614   3.286   6.016   5.038 -0.3086  0.2713 -1.0423
   27MOL   C72322615   3.408   6.110   5.065  0.0628  0.0485 -0.8954
   27MOL   C72422616   3.371   6.250   5.117 -0.3586 -0.2185 -0.0630
   27MOL   C72522617   3.498   6.334   5.150 -0.1782 -0.7383 -0.7607
   27MOL   C72622618   3.465   6.475   5.202  0.2146  0.0936  0.5527
   27MOL   C72722619   3.597   6.544   5.244  0.0600  0.1137  0.1854
   27MOL   C72822620   3.567   6.678   5.299 -0.4924  0.4027  0.1170
   27MOL   C72922621   3.701   6.747   5.350 -0.1857 -0.4497 -0.6209
   27MOL   H73022622   2.938   5.480   4.716  0.8155  0.4036 -1.2149
   27MOL   H73122623   2.981   5.349   4.815 -0.7319  2.3159  1.2300
   27MOL   H73222624   3.166   5.526   4.649 -0.4672 -1.3566 -0.7860
   27MOL   H73322625   3.143   5.529   4.955  0.0426 -0.8980 -0.4484
   27MOL   H73422626   3.043   5.623   4.848 -1.8356 -2.2542  0.2934
   27MOL   H73522627   3.343   5.650   4.851  0.1434  0.4389 -0.1591
   27MOL   H73622628   3.248   5.741   4.754 -1.1342  0.9327  0.5834
   27MOL   H73722629   3.132   5.838   4.946 -0.4265 -1.0913 -0.2422
   27MOL   H73822630   3.214   5.754   5.069 -0.9417  0.8171  0.0972
   27MOL   H73922631   3.431   5.866   5.011 -0.0390 -0.8295 -0.0583
   27MOL   H74022632   3.356   5.906   4.860 -0.6007  1.2943  0.9128
   27MOL   H74122633   3.201   6.063   4.988 -1.8410 -2.0326 -0.7004
   27MOL   H74222634   3.240   5.994   5.134  2.1139 -1.0058 -0.1412
   27MOL   H74322635   3.452   6.127   4.966 -1.4997  1.2384 -1.4177
   27MOL   H74422636   3.480   6.061   5.131 -0.8948  0.5323  0.5251
   27MOL   H74522637   3.314   6.302   5.040 -0.3584  1.3357  0.9624
   27MOL   H74622638   3.304   6.241   5.202  0.4133 -2.2465  0.3585
   27MOL   H74722639   3.560   6.282   5.224 -0.5671  1.5850  1.2398
   27MOL   H74822640   3.559   6.349   5.061  0.6652 -0.1639 -0.0908
   27MOL   H74922641   3.407   6.526   5.125  2.7908  1.7278 -0.3901
   27MOL   H75022642   3.405   6.457   5.291 -1.2310  0.2754 -0.3758
   27MOL   H75122643   3.654   6.482   5.313 -0.6553 -0.0097  0.6700
   27MOL   H75222644   3.652   6.557   5.151 -2.6520  0.9611 -1.3822
   27MOL   H75322645   3.497   6.671   5.383 -1.4427 -0.0925 -0.7097
   27MOL   H75422646   3.528   6.739   5.218  1.4748  1.3884 -0.1231
   27MOL   H75522647   3.746   6.694   5.434 -0.8308 -1.4331 -0.8772
   27MOL   H75622648   3.689   6.851   5.378  2.7337 -0.2480  0.0470
   27MOL   H75722649   3.772   6.754   5.268 -0.6698 -0.5729 -1.0513
   27MOL   C75822650   3.263   5.366   4.774  0.0088  0.2421 -0.5629
   27MOL   C75922651   3.342   5.299   4.654  0.6424  0.0946 -0.1727
   27MOL   C76022652   3.428   5.408   4.585 -0.4927  0.2238 -0.4268
   27MOL   C76122653   3.393   5.433   4.440  0.3309 -0.3734 -0.1420
   27MOL   C76222654   3.443   5.563   4.381  0.9552 -0.3576 -0.3123
   27MOL   C76322655   3.398   5.603   4.239  0.5039  0.2310 -0.3959
   27MOL   C76422656   3.430   5.747   4.184  0.4894  0.2584 -0.1730
   27MOL   C76522657   3.579   5.795   4.180  0.4524  0.1083  0.5945
   27MOL   C76622658   3.596   5.954   4.150 -0.3661 -0.2305 -0.4250
   27MOL   C76722659   3.740   5.999   4.110  0.1469  0.3690 -0.1738
   27MOL   C76822660   3.772   6.146   4.078 -0.0100 -0.6739  0.9707
   27MOL   C76922661   3.899   6.174   3.989 -0.2087  0.2833 -0.2924
   27MOL   C77022662   3.897   6.322   3.950 -0.1720  0.8064  0.5750
   27MOL   C77122663   4.015   6.366   3.859 -0.0886 -0.0473 -0.1682
   27MOL   H77222664   3.334   5.404   4.848  0.8121 -1.0057 -0.6693
   27MOL   H77322665   3.216   5.286   4.831  0.9384 -0.1211 -0.2883
   27MOL   H77422666   3.270   5.258   4.583  0.8721 -0.4754 -0.0733
   27MOL   H77522667   3.422   5.504   4.636  0.3587  1.1484 -2.0422
   27MOL   H77622668   3.532   5.376   4.589 -1.0713 -2.2992 -3.5969
   27MOL   H77722669   3.449   5.362   4.379  0.0638 -1.3945  0.7789
   27MOL   H77822670   3.286   5.436   4.422  0.6357  1.0147 -1.8132
   27MOL   H77922671   3.550   5.576   4.395  1.1714 -2.0445 -0.2713
   27MOL   H78022672   3.400   5.639   4.446  1.4451  0.2255 -0.6626
   27MOL   H78122673   3.290   5.589   4.233  0.6634 -1.2517 -0.0866
   27MOL   H78222674   3.440   5.528   4.172 -0.2165 -0.3100 -0.2529
   27MOL   H78322675   3.389   5.743   4.082 -0.1260 -2.1269  0.1254
   27MOL   H78422676   3.370   5.813   4.246  1.6326  0.3363  0.8438
   27MOL   H78522677   3.645   5.739   4.114  0.7808 -1.2360  2.0479
   27MOL   H78622678   3.620   5.770   4.277 -0.2042 -2.1623  0.3242
   27MOL   H78722679   3.561   6.012   4.236 -0.3422 -0.2546 -0.3986
   27MOL   H78822680   3.528   5.974   4.067 -0.3778  0.3181 -0.2866
   27MOL   H78922681   3.756   5.954   4.012  1.9702  0.2506  0.1646
   27MOL   H79022682   3.821   5.973   4.178  1.7649  0.9018 -1.8708
   27MOL   H79122683   3.685   6.179   4.022  0.3021 -0.1791  0.7764
   27MOL   H79222684   3.792   6.200   4.170  1.1421  1.5093 -0.5244
   27MOL   H79322685   3.990   6.154   4.045 -1.1158 -0.0717  1.1035
   27MOL   H79422686   3.900   6.110   3.901  1.4673  0.2796 -0.2808
   27MOL   H79522687   3.804   6.353   3.901 -0.7420 -1.7270  0.0134
   27MOL   H79622688   3.905   6.380   4.042 -2.8802  3.4211 -0.7139
   27MOL   H79722689   3.996   6.320   3.763 -1.9879  2.8087 -1.2369
   27MOL   H79822690   4.026   6.474   3.845  0.1012 -0.0928 -0.3596
   27MOL   H79922691   4.111   6.329   3.895  0.8413  1.2356 -1.2587
   27MOL   C80022692   3.423   5.185   4.727  0.0568  0.2194  0.6203
   27MOL   C80122693   3.500   5.103   4.617 -0.1609 -0.0898 -0.1843
   27MOL   C80222694   3.553   4.971   4.676 -0.2255 -0.0712 -0.4847
   27MOL   C80322695   3.594   4.870   4.558 -0.2967 -0.2892 -0.9329
   27MOL   C80422696   3.708   4.904   4.462 -0.6502  0.3242 -0.6859
   27MOL   C80522697   3.717   4.799   4.348 -0.2587 -0.2996  0.2100
   27MOL   C80622698   3.818   4.848   4.239  0.7468 -0.8332 -0.4601
   27MOL   C80722699   3.960   4.851   4.297 -0.3774  0.2028  0.5236
   27MOL   C80822700   4.066   4.866   4.188 -0.0023  0.2273  0.8242
   27MOL   C80922701   4.213   4.850   4.240  0.5979 -0.1463  0.5621
   27MOL   C81022702   4.312   4.919   4.143  1.0810 -0.4216 -0.3190
   27MOL   C81122703   4.338   4.868   4.003 -0.3866 -0.5543 -0.1044
   27MOL   C81222704   4.466   4.921   3.937  0.3431 -0.3754 -0.7805
   27MOL   C81322705   4.486   5.073   3.923 -0.3947  0.2857 -0.2833
   27MOL   H81422706   3.366   5.112   4.785  1.2466  0.1819  1.7602
   27MOL   H81522707   3.492   5.229   4.798  1.9252 -1.8361  0.1285
   27MOL   H81622708   3.585   5.155   4.573  1.2740  0.7636  3.3894
   27MOL   H81722709   3.473   4.920   4.729  0.5546 -0.9871 -0.1558
   27MOL   H81822710   3.630   4.991   4.752  0.1187  1.2297 -1.1660
   27MOL   H81922711   3.506   4.851   4.496 -1.2781  1.8293 -0.2376
   27MOL   H82022712   3.600   4.765   4.588 -0.0177 -0.1551 -0.5257
   27MOL   H82122713   3.696   5.007   4.428 -0.0683  0.8321  0.6236
   27MOL   H82222714   3.801   4.917   4.517 -0.3249  1.1195 -1.4189
   27MOL   H82322715   3.618   4.786   4.304  0.0144  0.2391 -0.5847
   27MOL   H82422716   3.751   4.705   4.392 -1.2563 -1.4917 -1.5312
   27MOL   H82522717   3.817   4.766   4.168 -2.6483 -0.9230 -0.4017
   27MOL   H82622718   3.784   4.935   4.182  1.3983 -0.1041  0.2631
   27MOL   H82722719   3.971   4.936   4.364  2.7240  0.5940 -0.4169
   27MOL   H82822720   3.968   4.753   4.343 -1.4890 -0.9188 -1.5801
   27MOL   H82922721   4.051   4.797   4.106 -0.5329 -0.1734  1.2522
   27MOL   H83022722   4.052   4.967   4.149  0.8272  0.0261 -0.0192
   27MOL   H83122723   4.251   4.749   4.251 -1.1805 -1.0881 -1.6126
   27MOL   H83222724   4.236   4.891   4.339  2.1301 -0.6796  0.4417
   27MOL   H83322725   4.276   5.020   4.124  0.5034 -0.3822  0.9554
   27MOL   H83422726   4.405   4.929   4.199 -1.9199  2.5111  4.5404
   27MOL   H83522727   4.253   4.882   3.936 -0.1424 -1.7933 -0.6882
   27MOL   H83622728   4.351   4.760   4.015 -1.5932 -0.5674  1.2243
   27MOL   H83722729   4.553   4.881   3.989 -1.0752 -2.7745 -0.1976
   27MOL   H83822730   4.468   4.882   3.836  0.3033 -3.1563  0.2492
   27MOL   H83922731   4.407   5.137   3.884  0.8611  2.8632  1.2000
   27MOL   H84022732   4.498   5.108   4.025 -0.1043 -2.4138  0.6416
   27MOL   H84122733   4.577   5.106   3.873 -0.3221 -0.4854 -0.6557
   27MOL   H84222734   3.432   5.065   4.541 -0.0139 -0.8642  0.0592
   28MOL     C122735   1.775   5.455   2.102  0.1868 -0.1456 -0.1523
   28MOL     C222736   1.807   5.597   2.117  0.7244 -0.1529  0.9230
   28MOL     C322737   1.873   5.655   1.990 -0.1779 -0.4250  0.4515
   28MOL     C422738   1.971   5.765   2.036 -0.0013 -0.7078  0.2994
   28MOL     C522739   2.047   5.837   1.928  1.1375  0.4483  0.8092
   28MOL     C622740   2.155   5.752   1.859 -0.8222  0.5083  0.1181
   28MOL     C722741   2.264   5.839   1.789 -0.7147 -0.0474  0.3379
   28MOL     C822742   2.346   5.760   1.691  0.1269  0.9457  0.6619
   28MOL     C922743   2.453   5.837   1.620 -0.8124 -0.0709 -0.2732
   28MOL    C1022744   2.577   5.859   1.705  0.3367  0.2145 -0.1728
   28MOL    C1122745   2.706   5.887   1.629 -0.2807  0.0354  0.4116
   28MOL    C1222746   2.834   5.889   1.716  0.1994 -0.4861  0.2334
   28MOL    C1322747   2.968   5.920   1.657 -0.4814  0.3003 -0.7546
   28MOL    C1422748   3.081   5.935   1.758 -0.1346  0.0061  0.9168
   28MOL    H1522749   1.731   5.408   2.190 -0.7491  0.1440 -0.4580
   28MOL    H1622750   1.864   5.406   2.063 -0.1453  0.2840 -1.4902
   28MOL    H1722751   1.876   5.600   2.201  0.5064  0.5528  1.0780
   28MOL    H1822752   1.917   5.578   1.926  0.8195  0.5512 -0.0487
   28MOL    H1922753   1.799   5.707   1.930 -0.0090  0.8964  1.3595
   28MOL    H2022754   2.041   5.725   2.109  3.0109  1.0130 -1.5627
   28MOL    H2122755   1.908   5.843   2.079 -0.4032 -0.9180  0.1005
   28MOL    H2222756   2.093   5.926   1.971  0.4993  1.3004 -0.2626
   28MOL    H2322757   1.973   5.878   1.860 -0.3108 -0.4576  1.8119
   28MOL    H2422758   2.099   5.690   1.789  0.9868 -2.2071  0.9979
   28MOL    H2522759   2.211   5.684   1.923  2.5918  0.6722 -2.5361
   28MOL    H2622760   2.209   5.923   1.747 -0.4937  0.6944  1.4966
   28MOL    H2722761   2.337   5.873   1.863 -0.1384 -0.8701  0.1575
   28MOL    H2822762   2.283   5.717   1.613  0.7889  2.0958 -0.5249
   28MOL    H2922763   2.387   5.675   1.745  3.1941  2.0754  0.2385
   28MOL    H3022764   2.488   5.790   1.529 -0.3176  1.8065 -1.0725
   28MOL    H3122765   2.411   5.932   1.586 -2.6218 -1.0539 -0.8244
   28MOL    H3222766   2.546   5.938   1.773 -1.1545  0.1862 -0.7976
   28MOL    H3322767   2.589   5.776   1.775 -0.5435  1.2891  1.2760
   28MOL    H3422768   2.722   5.803   1.562  0.4892  1.7493 -1.6107
   28MOL    H3522769   2.708   5.968   1.557 -1.0807 -0.3041 -0.0041
   28MOL    H3622770   2.841   5.801   1.780  0.1914 -1.5739 -1.2537
   28MOL    H3722771   2.805   5.970   1.783 -2.0615 -1.1591  0.1135
   28MOL    H3822772   2.991   5.833   1.596  1.0599 -0.1557  0.4506
   28MOL    H3922773   2.960   6.005   1.589  1.5425  2.2413  1.3266
   28MOL    H4022774   3.060   6.018   1.825  2.2895  0.4946  1.0960
   28MOL    H4122775   3.095   5.839   1.807  2.9213 -0.2493 -0.3558
   28MOL    H4222776   3.178   5.947   1.710 -0.8291  2.3323  0.0474
   28MOL    H4322777   1.702   5.436   2.023  1.6404 -1.3274 -1.2394
   28MOL    C4422778   1.689   5.674   2.170  0.6909  0.7139 -0.3493
   28MOL    C4522779   1.667   5.663   2.332  0.5038 -0.1777 -0.0186
   28MOL    C4622780   1.522   5.707   2.368 -0.2339  0.9954 -0.1961
   28MOL    C4722781   1.433   5.585   2.342 -0.6822  0.0661  0.2731
   28MOL    C4822782   1.293   5.605   2.379 -0.3086 -0.0410 -0.4728
   28MOL    C4922783   1.262   5.577   2.525  0.0218  0.2593  0.2747
   28MOL    C5022784   1.275   5.706   2.614  0.1210 -0.1371 -0.3798
   28MOL    C5122785   1.182   5.700   2.737  0.7482 -0.1586 -0.0369
   28MOL    C5222786   1.181   5.837   2.814  0.4094  0.0003  0.2965
   28MOL    C5322787   1.100   5.842   2.944  0.5076 -0.1198  0.4654
   28MOL    C5422788   1.195   5.830   3.070  0.6514  0.4220  0.9900
   28MOL    C5522789   1.274   5.700   3.084  0.6666 -0.3317  0.0656
   28MOL    C5622790   1.352   5.693   3.223 -0.2455 -0.2587 -0.3561
   28MOL    C5722791   1.449   5.572   3.235  0.4384 -0.0429 -0.0185
   28MOL    H5822792   1.691   5.780   2.143  3.2331  0.2641 -2.0768
   28MOL    H5922793   1.602   5.639   2.115 -0.4536  0.2511  1.6721
   28MOL    H6022794   1.691   5.561   2.361  0.0587 -0.6181 -1.1624
   28MOL    H6122795   1.520   5.741   2.472 -2.6200  1.3213 -0.3055
   28MOL    H6222796   1.498   5.792   2.304  2.6844  2.6130  0.8100
   28MOL    H6322797   1.479   5.498   2.389  0.2152 -0.2570 -1.1634
   28MOL    H6422798   1.443   5.564   2.235 -0.6428  0.7355  0.1462
   28MOL    H6522799   1.232   5.542   2.315  0.1351 -1.1659  0.1935
   28MOL    H6622800   1.259   5.705   2.351  0.6396 -0.0444 -1.6564
   28MOL    H6722801   1.160   5.541   2.518  0.9269 -2.3285  0.0358
   28MOL    H6822802   1.326   5.496   2.559 -2.6054 -2.7094 -1.6222
   28MOL    H6922803   1.380   5.728   2.636 -0.2519  0.2314  1.1328
   28MOL    H7022804   1.255   5.786   2.544 -0.7055 -1.6567 -1.9107
   28MOL    H7122805   1.209   5.616   2.801  0.1005 -0.7509 -0.5403
   28MOL    H7222806   1.085   5.671   2.698  0.7814 -0.6452  0.2360
   28MOL    H7322807   1.280   5.883   2.822  0.0054  1.1278 -1.0719
   28MOL    H7422808   1.135   5.900   2.739 -1.5438 -0.5614  0.9946
   28MOL    H7522809   1.014   5.774   2.948  0.7167 -0.3341  1.3827
   28MOL    H7622810   1.051   5.939   2.945  0.7783  0.0507 -1.3202
   28MOL    H7722811   1.128   5.840   3.156 -0.5265  1.6121 -0.0253
   28MOL    H7822812   1.263   5.916   3.074  0.4641  0.6527 -0.4770
   28MOL    H7922813   1.203   5.619   3.070 -0.6302  0.8415 -0.2094
   28MOL    H8022814   1.347   5.690   3.003 -1.4020 -0.0693 -1.8753
   28MOL    H8122815   1.280   5.705   3.303  0.3748  0.4891  0.1035
   28MOL    H8222816   1.418   5.780   3.219  1.0282 -1.2597 -1.7054
   28MOL    H8322817   1.548   5.598   3.196  1.1003  0.2941  1.8440
   28MOL    H8422818   1.400   5.485   3.192 -0.1611 -0.7404  2.0697
   28MOL    H8522819   1.453   5.558   3.342 -0.0811  2.1669  0.3270
   28MOL    C8622820   1.772   5.746   2.403  0.4795  0.0235 -0.3307
   28MOL    C8722821   1.840   5.676   2.525 -0.3488  1.1841  0.2887
   28MOL    C8822822   1.745   5.653   2.647  0.0122  0.4181  0.5785
   28MOL    C8922823   1.704   5.778   2.720 -0.0701  0.4606 -0.1367
   28MOL    C9022824   1.649   5.749   2.857 -0.2077  0.1216  0.5209
   28MOL    C9122825   1.574   5.874   2.922  0.4454  0.5745 -0.4434
   28MOL    C9222826   1.678   5.980   2.961 -0.7031 -0.3639 -0.3012
   28MOL    C9322827   1.616   6.107   3.020 -0.5714 -0.5488 -0.7324
   28MOL    C9422828   1.721   6.200   3.087  0.5219  0.8382 -0.2570
   28MOL    C9522829   1.677   6.318   3.171 -0.2724 -0.6373 -0.2678
   28MOL    C9622830   1.785   6.402   3.244 -0.4594  0.1670 -0.4272
   28MOL    C9722831   1.849   6.508   3.162 -0.0168 -0.5098 -0.2166
   28MOL    C9822832   1.954   6.582   3.241  0.1850  0.5828 -0.3502
   28MOL    C9922833   2.051   6.660   3.145 -0.1317 -0.1582  0.0536
   28MOL   H10022834   1.846   5.782   2.332 -1.3567  1.1334 -1.7191
   28MOL   H10122835   1.724   5.838   2.435 -1.4453 -0.5193 -1.5389
   28MOL   H10222836   1.880   5.579   2.495 -1.3833  0.1694  2.0921
   28MOL   H10322837   1.653   5.606   2.612  0.5709 -1.1439  1.1680
   28MOL   H10422838   1.809   5.592   2.710  1.0299 -2.0972 -2.7148
   28MOL   H10522839   1.794   5.835   2.746  0.6068 -0.9359  0.6184
   28MOL   H10622840   1.642   5.844   2.659 -1.2732 -0.1570  0.4195
   28MOL   H10722841   1.726   5.703   2.919 -0.7462 -2.3630 -0.5760
   28MOL   H10822842   1.576   5.667   2.856  0.6453 -0.6352 -1.0599
   28MOL   H10922843   1.513   5.857   3.011 -0.6755  2.7525 -0.7623
   28MOL   H11022844   1.501   5.907   2.849  0.4756 -0.8217 -1.1263
   28MOL   H11122845   1.737   5.934   3.040 -3.6272  1.7040  3.2614
   28MOL   H11222846   1.752   5.997   2.883 -1.0588  2.6544 -0.0652
   28MOL   H11322847   1.533   6.080   3.085  0.8197  1.3705  1.9622
   28MOL   H11422848   1.576   6.167   2.940 -0.7144  0.8449  0.3669
   28MOL   H11522849   1.778   6.136   3.155  0.0511 -1.1869 -1.6991
   28MOL   H11622850   1.796   6.245   3.022  2.0920  0.3116  1.1471
   28MOL   H11722851   1.607   6.281   3.246 -0.1320  0.3893  0.3774
   28MOL   H11822852   1.623   6.385   3.105  0.8832  2.5135  1.8547
   28MOL   H11922853   1.741   6.451   3.331 -0.0608 -0.2172 -0.0070
   28MOL   H12022854   1.862   6.331   3.274 -0.3776  0.1510 -0.6785
   28MOL   H12122855   1.896   6.468   3.072 -1.5724 -0.2998 -1.1358
   28MOL   H12222856   1.769   6.577   3.134  0.9371  0.9385  0.5341
   28MOL   H12322857   2.004   6.518   3.314  0.8267 -0.3281 -1.5712
   28MOL   H12422858   1.895   6.651   3.301 -1.2494  0.4651 -1.5905
   28MOL   H12522859   2.111   6.724   3.210  1.1079  0.7021 -1.8722
   28MOL   H12622860   2.127   6.594   3.104  1.8942  0.7900  2.1453
   28MOL   H12722861   2.009   6.721   3.065 -0.0480 -0.4472 -0.2136
   28MOL   C12822862   1.959   5.762   2.568 -0.8829  0.0836  0.5112
   28MOL   C12922863   2.086   5.726   2.483 -0.4349 -0.0904  0.5655
   28MOL   C13022864   2.170   5.851   2.469  0.1360 -0.2786  0.2427
   28MOL   C13122865   2.111   5.960   2.382 -1.0007  0.5559 -0.5291
   28MOL   C13222866   2.225   6.015   2.294  0.6106  1.1043  0.2890
   28MOL   C13322867   2.179   6.127   2.208  0.0392 -0.5653 -0.4450
   28MOL   C13422868   2.286   6.151   2.099 -0.4695  0.1607  0.1783
   28MOL   C13522869   2.264   6.283   2.010 -0.3408 -0.1567 -0.0488
   28MOL   C13622870   2.147   6.265   1.916  0.1376  0.1949  0.3399
   28MOL   C13722871   2.096   6.401   1.856 -0.6173  0.4612 -0.1522
   28MOL   C13822872   1.973   6.391   1.765  0.3960 -0.1290  0.5597
   28MOL   C13922873   1.923   6.521   1.694 -0.3422 -0.0652 -0.0010
   28MOL   C14022874   2.024   6.571   1.592  0.2952  0.4142  0.0647
   28MOL   C14122875   1.995   6.719   1.550  0.5123 -0.1993  0.0341
   28MOL   H14222876   1.936   5.867   2.554  2.0298  0.9355  1.7979
   28MOL   H14322877   1.990   5.743   2.671  2.8426  1.6779 -0.2459
   28MOL   H14422878   2.055   5.708   2.380  1.1764  0.2114  0.0160
   28MOL   H14522879   2.182   5.893   2.569  0.3176  0.9363 -0.2700
   28MOL   H14622880   2.270   5.821   2.437  1.0850  2.1447  0.8292
   28MOL   H14722881   2.037   5.913   2.318 -0.3459 -2.5716  0.9343
   28MOL   H14822882   2.052   6.037   2.432 -1.2631  0.6202 -0.9383
   28MOL   H14922883   2.323   6.029   2.340  1.0575  1.1674 -0.6801
   28MOL   H15022884   2.254   5.936   2.224 -0.8738 -1.0634  2.0391
   28MOL   H15122885   2.081   6.101   2.168 -1.0691  0.6209  1.4610
   28MOL   H15222886   2.169   6.215   2.271  0.9048 -0.3766 -0.5578
   28MOL   H15322887   2.383   6.157   2.148  0.8716 -4.1963 -1.6962
   28MOL   H15422888   2.287   6.069   2.028 -0.2815  0.7019 -0.4527
   28MOL   H15522889   2.246   6.370   2.072  0.7605  0.4958 -0.6128
   28MOL   H15622890   2.360   6.309   1.966  0.3472  0.6605  1.8877
   28MOL   H15722891   2.184   6.209   1.830 -1.3014  0.2649 -0.3477
   28MOL   H15822892   2.058   6.213   1.950 -0.0528  0.8600  0.8727
   28MOL   H15922893   2.186   6.433   1.803  0.1221 -0.3425  0.6017
   28MOL   H16022894   2.081   6.468   1.941  1.1273  1.5901 -0.7137
   28MOL   H16122895   1.994   6.310   1.695 -1.8855  1.3634 -1.9506
   28MOL   H16222896   1.883   6.344   1.805 -1.3667  1.9106 -0.9239
   28MOL   H16322897   1.827   6.509   1.643 -0.2075  0.4996 -0.4013
   28MOL   H16422898   1.908   6.594   1.773 -1.5824  0.2464 -0.5082
   28MOL   H16522899   2.124   6.550   1.629  0.4201 -1.6058 -1.2943
   28MOL   H16622900   2.020   6.510   1.501  0.0553  0.8315 -0.2028
   28MOL   H16722901   2.015   6.782   1.637  0.9117 -1.6615  1.0435
   28MOL   H16822902   2.073   6.730   1.475  0.6098  1.2891  0.3403
   28MOL   H16922903   1.896   6.738   1.510 -0.7828  4.7469  4.9204
   28MOL   C17022904   2.154   5.606   2.550  0.4415  0.0297 -0.8149
   28MOL   C17122905   2.255   5.515   2.466  0.0652 -0.6116 -0.5709
   28MOL   C17222906   2.191   5.472   2.340  0.0704  0.0474 -0.4096
   28MOL   C17322907   2.064   5.379   2.351  0.2621 -0.2201  0.5393
   28MOL   C17422908   2.082   5.230   2.381  0.2406 -0.3928 -0.1684
   28MOL   C17522909   2.130   5.135   2.274 -0.7360 -0.2505  0.5017
   28MOL   C17622910   2.099   4.991   2.315 -0.3623  0.1347  0.5199
   28MOL   C17722911   2.131   4.890   2.211  0.1583 -0.0039 -0.7861
   28MOL   C17822912   2.274   4.835   2.206 -0.2710 -0.2271 -0.0550
   28MOL   C17922913   2.294   4.724   2.093 -0.5891 -0.3934 -0.9307
   28MOL   C18022914   2.257   4.779   1.949 -0.3596  0.5289 -0.3695
   28MOL   C18122915   2.280   4.675   1.840  0.3473 -0.1828  0.5245
   28MOL   C18222916   2.212   4.722   1.705 -0.0795 -0.1011 -0.2928
   28MOL   C18322917   2.206   4.606   1.605  0.4628 -0.3867  0.1425
   28MOL   H18422918   2.079   5.545   2.600  0.6963  0.2170 -0.2004
   28MOL   H18522919   2.217   5.650   2.627  1.4665  0.8216 -2.0923
   28MOL   H18622920   2.278   5.433   2.533  2.0078 -1.0952 -1.7885
   28MOL   H18722921   2.170   5.544   2.261  0.4850 -0.7270 -1.2391
   28MOL   H18822922   2.260   5.400   2.296  0.1240 -0.8142  1.0781
   28MOL   H18922923   1.994   5.417   2.426  2.1913  0.1178  2.1965
   28MOL   H19022924   2.010   5.390   2.257 -1.0045  0.9357  1.3843
   28MOL   H19122925   2.120   5.194   2.477  0.5094  0.9345  0.2274
   28MOL   H19222926   1.977   5.201   2.383 -0.0838  0.5678 -2.5293
   28MOL   H19322927   2.237   5.144   2.254 -0.6955 -2.7234 -0.5542
   28MOL   H19422928   2.084   5.155   2.177 -0.0092 -2.1282 -0.2548
   28MOL   H19522929   1.991   4.986   2.329 -0.5444  1.1489 -0.5077
   28MOL   H19622930   2.150   4.968   2.409  2.4164  0.9307 -0.7255
   28MOL   H19722931   2.098   4.930   2.115  1.0627  3.8575  0.4188
   28MOL   H19822932   2.070   4.802   2.232  0.0912  0.4357  0.9918
   28MOL   H19922933   2.271   4.776   2.297  1.4245  0.6889  0.6063
   28MOL   H20022934   2.344   4.918   2.215 -0.1496 -0.4870  1.6034
   28MOL   H20122935   2.240   4.631   2.113  0.0193 -0.4310  0.5846
   28MOL   H20222936   2.400   4.697   2.093 -0.0320  1.6784  0.4377
   28MOL   H20322937   2.299   4.877   1.929 -0.4627  0.9907  1.5366
   28MOL   H20422938   2.149   4.794   1.962 -0.8586  1.7723 -5.1018
   28MOL   H20522939   2.386   4.660   1.821  0.6478  2.8543 -0.4249
   28MOL   H20622940   2.242   4.578   1.871 -1.3024  0.5768  0.9288
   28MOL   H20722941   2.115   4.752   1.743  0.2952 -0.3094  0.8418
   28MOL   H20822942   2.263   4.809   1.665 -1.4061  1.4225  1.2899
   28MOL   H20922943   2.184   4.643   1.505  3.3492  3.0796  0.6996
   28MOL   H21022944   2.136   4.530   1.638 -0.2715  0.8055  1.3655
   28MOL   H21122945   2.302   4.556   1.590 -0.3967 -1.7926 -0.7694
   28MOL   C21222946   2.398   5.573   2.433  0.8247  0.1719  0.9738
   28MOL   C21322947   2.474   5.649   2.550  0.5475  0.7822  0.2391
   28MOL   C21422948   2.505   5.561   2.675  0.0032 -0.1932  0.9052
   28MOL   C21522949   2.596   5.437   2.649 -0.9134  0.4926  0.3670
   28MOL   C21622950   2.674   5.392   2.776  0.2216 -0.5949  0.8998
   28MOL   C21722951   2.581   5.374   2.901  0.6446 -0.4809 -0.1577
   28MOL   C21822952   2.656   5.316   3.022 -0.2614 -0.9134  0.5173
   28MOL   C21922953   2.672   5.165   3.002  0.2384 -0.7310  0.1212
   28MOL   C22022954   2.756   5.093   3.114 -0.4399 -0.1792  0.0728
   28MOL   C22122955   2.737   4.938   3.135  0.0198 -0.5948  0.3394
   28MOL   C22222956   2.838   4.884   3.236 -0.4937 -0.5109 -0.3356
   28MOL   C22322957   2.816   4.741   3.288 -0.4106  0.2115  0.4506
   28MOL   C22422958   2.936   4.700   3.378  0.5910  0.2441 -0.0382
   28MOL   C22522959   2.956   4.549   3.400  0.2243  0.1452  0.4041
   28MOL   H22622960   2.383   5.644   2.352  0.3199 -0.4227  0.5363
   28MOL   H22722961   2.461   5.496   2.388  0.1620  0.0901  0.1606
   28MOL   H22822962   2.398   5.720   2.581 -2.1236 -1.6587 -0.5161
   28MOL   H22922963   2.562   5.627   2.740  0.1300  0.3277  0.2609
   28MOL   H23022964   2.420   5.541   2.740 -0.9236 -0.3734 -0.3556
   28MOL   H23122965   2.663   5.466   2.569 -1.5800  0.1947 -0.3106
   28MOL   H23222966   2.542   5.357   2.599 -0.3026  2.2780 -3.2799
   28MOL   H23322967   2.747   5.469   2.801 -0.9498  0.9149 -0.2543
   28MOL   H23422968   2.732   5.303   2.750  0.9994  0.7288 -2.1052
   28MOL   H23522969   2.496   5.310   2.878 -2.5536  2.9582  1.4694
   28MOL   H23622970   2.535   5.470   2.925  2.4677  0.3291  0.1739
   28MOL   H23722971   2.754   5.362   3.033 -1.0470  0.4500  1.9108
   28MOL   H23822972   2.606   5.343   3.115 -2.1455  0.4948 -0.8610
   28MOL   H23922973   2.570   5.126   3.005 -0.3202  0.6676 -0.3338
   28MOL   H24022974   2.711   5.142   2.903  3.1407  0.7827  0.8535
   28MOL   H24122975   2.741   5.156   3.202  0.1233 -1.4912  1.1341
   28MOL   H24222976   2.859   5.112   3.083 -0.5908 -2.4930 -2.0290
   28MOL   H24322977   2.637   4.911   3.169 -0.0821  0.8114  1.1937
   28MOL   H24422978   2.748   4.892   3.037 -0.0285  1.0722 -0.4661
   28MOL   H24522979   2.846   4.945   3.326 -0.5611  1.0017 -1.3209
   28MOL   H24622980   2.937   4.880   3.191 -0.6764  1.3795 -0.9566
   28MOL   H24722981   2.805   4.666   3.210  0.8744  1.8326 -1.3425
   28MOL   H24822982   2.724   4.728   3.345 -0.4174  0.5195  0.5130
   28MOL   H24922983   2.923   4.744   3.477 -0.8862 -0.4495  0.0948
   28MOL   H25022984   3.029   4.737   3.335 -0.5714  1.4493 -1.5809
   28MOL   H25122985   2.872   4.519   3.462 -1.2919  1.6029 -0.8914
   28MOL   H25222986   2.940   4.496   3.306 -1.8862  0.6071  0.4711
   28MOL   H25322987   3.042   4.510   3.454 -2.2633 -3.4180  1.9896
   28MOL   C25422988   2.604   5.721   2.499 -0.2640  0.0877  0.1084
   28MOL   C25522989   2.647   5.855   2.561  0.3613  0.0373 -0.2202
   28MOL   C25622990   2.789   5.899   2.505 -0.1175  0.7248 -0.0072
   28MOL   C25722991   2.906   5.801   2.541 -0.7290  0.5262  0.4786
   28MOL   C25822992   2.924   5.764   2.691 -0.3645 -0.0902 -0.1590
   28MOL   C25922993   3.043   5.681   2.738 -0.0899  1.1733  1.1634
   28MOL   C26022994   3.176   5.748   2.698 -0.3767 -0.0797  0.1254
   28MOL   C26122995   3.300   5.677   2.752 -0.6501 -0.1098 -0.7283
   28MOL   C26222996   3.415   5.777   2.744  0.0204 -0.4027  0.6561
   28MOL   C26322997   3.547   5.737   2.812  0.0822  0.7482  1.0839
   28MOL   C26422998   3.650   5.852   2.797 -0.0487 -0.8285  0.3115
   28MOL   C26522999   3.773   5.827   2.872  0.5758  0.0165 -0.0214
   28MOL   C26623000   3.871   5.728   2.811  0.3353  0.1307 -0.0933
   28MOL   C26723001   4.007   5.749   2.872  0.3358  0.6663  0.2320
   28MOL   H26823002   2.572   5.759   2.402 -1.7339 -2.2188 -0.3686
   28MOL   H26923003   2.687   5.660   2.465  0.5301  1.9461 -1.3473
   28MOL   H27023004   2.662   5.840   2.668 -2.0520 -1.4344 -0.0424
   28MOL   H27123005   2.818   6.001   2.531 -0.3216  0.1312  2.6766
   28MOL   H27223006   2.778   5.910   2.397  3.2007 -0.3416 -0.4806
   28MOL   H27323007   3.002   5.838   2.505 -0.9090  0.7065  0.1892
   28MOL   H27423008   2.904   5.707   2.486  1.1248  1.7704 -1.8204
   28MOL   H27523009   2.837   5.706   2.724 -0.2932 -0.1906 -0.1468
   28MOL   H27623010   2.914   5.859   2.744  0.1339 -1.4851  2.5240
   28MOL   H27723011   3.026   5.581   2.697 -2.4122  1.6044  0.9782
   28MOL   H27823012   3.043   5.662   2.846  0.5268  1.9248  1.2980
   28MOL   H27923013   3.182   5.748   2.589 -0.2229 -1.4099  0.1298
   28MOL   H28023014   3.179   5.853   2.729 -1.5416  0.5064 -1.6345
   28MOL   H28123015   3.323   5.584   2.699 -0.7416 -1.7569  2.0002
   28MOL   H28223016   3.283   5.655   2.857 -0.6440 -0.9882 -0.9047
   28MOL   H28323017   3.427   5.809   2.641 -0.9511 -0.5898  0.4814
   28MOL   H28423018   3.382   5.869   2.793  0.7631  0.9705 -1.3534
   28MOL   H28523019   3.599   5.646   2.783 -0.8324  0.5576  0.0256
   28MOL   H28623020   3.523   5.712   2.915  0.8456 -0.0175  1.0867
   28MOL   H28723021   3.589   5.939   2.822  1.2507 -0.1468  1.2035
   28MOL   H28823022   3.668   5.850   2.690 -0.6921  0.2183  0.1790
   28MOL   H28923023   3.811   5.923   2.905  0.4833  0.2899 -0.6928
   28MOL   H29023024   3.735   5.786   2.965 -0.6185 -1.2982 -1.0650
   28MOL   H29123025   3.831   5.628   2.831  0.2555  0.0539 -0.6301
   28MOL   H29223026   3.890   5.746   2.705 -1.4035 -0.8761 -0.6085
   28MOL   H29323027   4.085   5.679   2.842 -0.2009 -0.6657  1.8502
   28MOL   H29423028   3.998   5.750   2.980  0.8146 -0.5663  0.2873
   28MOL   H29523029   4.042   5.846   2.836  0.1149  0.1786 -1.3546
   28MOL   C29623030   2.537   5.957   2.569 -0.6106  0.3934  0.0360
   28MOL   C29723031   2.577   6.085   2.653 -0.2758 -0.9318  0.1145
   28MOL   C29823032   2.513   6.208   2.581 -0.2976 -0.6545  0.2743
   28MOL   C29923033   2.565   6.248   2.441  0.1293  0.7489 -0.1603
   28MOL   C30023034   2.523   6.386   2.388 -0.6879 -0.3534 -0.0532
   28MOL   C30123035   2.609   6.442   2.274  0.2890  0.1850 -0.2663
   28MOL   C30223036   2.571   6.584   2.232 -0.3283  0.1895 -0.4270
   28MOL   C30323037   2.439   6.595   2.150  0.1364  0.0935 -0.2035
   28MOL   C30423038   2.403   6.739   2.103 -0.1545  0.1835  0.4185
   28MOL   C30523039   2.253   6.755   2.076  0.0018  0.3307  0.4403
   28MOL   C30623040   2.217   6.904   2.043  0.3990  0.0971  0.1119
   28MOL   C30723041   2.076   6.912   1.984  0.2143  0.2568  0.0919
   28MOL   C30823042   2.044   7.045   1.907 -0.1812 -0.0389 -0.0314
   28MOL   C30923043   1.915   7.033   1.822  1.1805  0.9155  0.5387
   28MOL   H31023044   2.440   5.911   2.590  0.0604 -0.8259  0.5413
   28MOL   H31123045   2.516   5.987   2.466 -2.1480 -1.8427 -0.3573
   28MOL   H31223046   2.686   6.093   2.659 -0.0880 -2.2313 -1.2067
   28MOL   H31323047   2.541   6.292   2.643 -0.6222  1.4454 -2.3446
   28MOL   H31423048   2.404   6.208   2.583 -0.2849  0.1425  2.9142
   28MOL   H31523049   2.548   6.174   2.362 -0.3542  0.0357  0.5969
   28MOL   H31623050   2.674   6.243   2.445  0.1600 -1.0427 -2.1276
   28MOL   H31723051   2.421   6.387   2.349 -1.1396  0.9263  1.1322
   28MOL   H31823052   2.522   6.458   2.470  0.0630  0.9455 -1.1589
   28MOL   H31923053   2.623   6.377   2.187 -4.4496  0.8579 -1.6972
   28MOL   H32023054   2.705   6.438   2.325 -0.4710 -0.1905  1.1638
   28MOL   H32123055   2.554   6.650   2.317 -0.2811 -0.8111  0.3768
   28MOL   H32223056   2.651   6.619   2.168 -0.8724  1.2553 -0.5435
   28MOL   H32323057   2.356   6.552   2.207  0.5113  0.2532  0.4645
   28MOL   H32423058   2.440   6.527   2.064 -1.9143 -1.2932  0.8133
   28MOL   H32523059   2.431   6.802   2.187 -0.4607 -0.3287  0.9038
   28MOL   H32623060   2.459   6.780   2.019 -0.5591  0.5433  0.3214
   28MOL   H32723061   2.192   6.721   2.159  0.8913  2.2916  1.9165
   28MOL   H32823062   2.231   6.697   1.986 -1.5614  0.8436  0.4748
   28MOL   H32923063   2.285   6.947   1.969  1.4400  0.9281  1.5304
   28MOL   H33023064   2.221   6.966   2.132 -1.3741 -0.6652  0.7488
   28MOL   H33123065   2.011   6.910   2.071  1.5286 -1.4241  1.0732
   28MOL   H33223066   2.054   6.830   1.916  0.2786 -0.3816  0.8369
   28MOL   H33323067   2.111   7.069   1.825  0.0926 -1.4358 -0.2315
   28MOL   H33423068   2.050   7.122   1.984  0.9330 -1.3366  1.2069
   28MOL   H33523069   1.923   6.982   1.726 -1.7353 -0.8710  1.1807
   28MOL   H33623070   1.833   6.985   1.875  1.8826 -2.3253 -1.1682
   28MOL   H33723071   1.893   7.135   1.789  0.5756  1.7072  3.2495
   28MOL   C33823072   2.508   6.090   2.796  0.1831 -0.0838 -0.6177
   28MOL   C33923073   2.559   5.992   2.911  0.3957  0.2231 -0.1098
   28MOL   C34023074   2.716   6.002   2.943  1.1891  0.0328 -0.1821
   28MOL   C34123075   2.772   6.122   3.023  0.0287  0.1038  0.4834
   28MOL   C34223076   2.919   6.111   3.064  0.5901 -0.3500 -0.5811
   28MOL   C34323077   3.022   6.125   2.950  0.9861  0.5344  0.9679
   28MOL   C34423078   3.175   6.119   2.990  0.1651  0.1994 -0.1179
   28MOL   C34523079   3.208   5.999   3.079 -0.5941 -0.4658  0.3129
   28MOL   C34623080   3.350   6.013   3.111  0.2832 -0.3426 -0.0557
   28MOL   C34723081   3.402   5.913   3.212  0.3132  0.2330 -0.3444
   28MOL   C34823082   3.549   5.940   3.244 -0.8825  0.1374 -0.3098
   28MOL   C34923083   3.616   5.831   3.336  0.0413  0.2174  0.3231
   28MOL   C35023084   3.752   5.886   3.395 -0.3300  0.7184  0.9734
   28MOL   C35123085   3.853   5.903   3.284  0.6469  0.1093 -0.1590
   28MOL   H35223086   2.511   6.188   2.843 -1.8267 -1.2122  2.0088
   28MOL   H35323087   2.401   6.076   2.782  0.0056  0.2701  0.3102
   28MOL   H35423088   2.561   5.899   2.855  0.6427 -0.7996  1.5583
   28MOL   H35523089   2.753   5.920   3.003  1.2597  1.4241  1.7183
   28MOL   H35623090   2.782   5.995   2.857  1.1436  2.0751 -0.4174
   28MOL   H35723091   2.731   6.115   3.124 -1.4608  1.2951 -0.0283
   28MOL   H35823092   2.738   6.216   2.980 -0.3036  0.6674  1.9343
   28MOL   H35923093   2.935   6.023   3.127  2.5248  1.2213  1.2121
   28MOL   H36023094   2.939   6.191   3.135  0.9341 -0.1204 -0.9358
   28MOL   H36123095   3.002   6.045   2.879 -0.1556  0.9155  0.8486
   28MOL   H36223096   3.019   6.214   2.888  0.2896 -1.1771 -1.5533
   28MOL   H36323097   3.228   6.120   2.895 -0.3401 -1.0829 -0.4211
   28MOL   H36423098   3.204   6.212   3.039 -2.8240 -0.3641  2.8219
   28MOL   H36523099   3.149   5.991   3.170 -1.4182 -1.6611 -0.3188
   28MOL   H36623100   3.197   5.914   3.012  1.8062 -0.4917 -0.1059
   28MOL   H36723101   3.402   6.003   3.016  1.0535 -1.1617  0.4426
   28MOL   H36823102   3.376   6.112   3.149 -0.5685  1.7726 -4.5978
   28MOL   H36923103   3.346   5.914   3.305  1.5933 -0.3317  0.4522
   28MOL   H37023104   3.382   5.814   3.172  0.4446 -0.2352  0.7265
   28MOL   H37123105   3.555   6.039   3.289 -0.1814  0.7810 -1.7667
   28MOL   H37223106   3.606   5.936   3.151  1.8851 -0.4106  1.3400
   28MOL   H37323107   3.637   5.744   3.274 -0.7002 -1.0184  1.7796
   28MOL   H37423108   3.548   5.786   3.409  1.7007  0.2485  1.8982
   28MOL   H37523109   3.733   5.969   3.463 -0.6005  0.9367  0.6336
   28MOL   H37623110   3.791   5.812   3.465 -1.5222  0.6666  1.5866
   28MOL   H37723111   3.833   5.983   3.213  0.7082  1.0419  0.8572
   28MOL   H37823112   3.954   5.926   3.320  0.3488  0.9251  0.1730
   28MOL   H37923113   3.848   5.812   3.224  1.0488 -0.2610  0.3660
   28MOL   C38023114   2.468   5.975   3.036 -0.2770 -0.2244 -0.0660
   28MOL   C38123115   2.327   5.913   3.006  0.9003  0.1598  0.2675
   28MOL   C38223116   2.341   5.769   3.035 -0.1150  0.3244  0.3411
   28MOL   C38323117   2.218   5.687   3.004 -0.6196  0.1114  0.1058
   28MOL   C38423118   2.247   5.540   3.009  0.0096  0.3631  0.0467
   28MOL   C38523119   2.125   5.464   2.956 -0.2890 -0.2339  0.1876
   28MOL   C38623120   2.166   5.321   2.908 -0.5883 -0.0183  0.6628
   28MOL   C38723121   2.050   5.229   2.895  0.1046 -0.6812  0.2540
   28MOL   C38823122   2.085   5.084   2.847 -0.5846  0.6490 -0.0283
   28MOL   C38923123   1.972   5.000   2.790  0.0864 -0.1310 -0.5815
   28MOL   C39023124   2.017   4.871   2.730 -0.5363 -0.1581  0.4448
   28MOL   C39123125   1.914   4.825   2.624 -0.3358  0.6565  0.4727
   28MOL   C39223126   1.943   4.694   2.550  0.2743 -0.0309  0.2720
   28MOL   C39323127   1.847   4.656   2.441  0.1785 -0.4078  0.1616
   28MOL   H39423128   2.451   6.076   3.075 -2.0537 -0.8064  0.6657
   28MOL   H39523129   2.530   5.917   3.104  1.9211  1.0555 -0.8866
   28MOL   H39623130   2.303   5.927   2.901 -1.3533 -0.3837  0.6948
   28MOL   H39723131   2.384   5.751   3.133 -0.4293  0.0625  0.4313
   28MOL   H39823132   2.418   5.727   2.969 -1.0305 -1.5145  0.4248
   28MOL   H39923133   2.186   5.704   2.901 -1.5558  1.5307  0.6224
   28MOL   H40023134   2.133   5.713   3.067 -0.4444  3.1691 -0.8319
   28MOL   H40123135   2.265   5.505   3.110  1.0641  1.9406  0.4113
   28MOL   H40223136   2.330   5.518   2.942 -0.5597 -1.8265 -0.0134
   28MOL   H40323137   2.071   5.513   2.875  0.7712  2.9453  1.3409
   28MOL   H40423138   2.039   5.464   3.023 -0.9319  1.3695 -0.6291
   28MOL   H40523139   2.218   5.335   2.813 -2.2748 -2.0647 -0.6126
   28MOL   H40623140   2.236   5.277   2.979 -0.9972 -0.9874  0.4793
   28MOL   H40723141   2.011   5.219   2.996  1.3964  0.3394  0.8621
   28MOL   H40823142   1.972   5.277   2.836 -0.2084 -1.2487  0.1933
   28MOL   H40923143   2.158   5.105   2.769 -0.9439  2.8471  0.1895
   28MOL   H41023144   2.146   5.039   2.926 -1.1509 -0.6081 -0.2988
   28MOL   H41123145   1.920   5.055   2.711 -0.0515 -1.9749 -1.8048
   28MOL   H41223146   1.888   4.989   2.859 -0.2951 -1.0573 -1.1804
   28MOL   H41323147   2.116   4.874   2.685 -0.7992  0.2168 -0.1104
   28MOL   H41423148   2.034   4.797   2.808  2.2797 -0.9626 -0.8699
   28MOL   H41523149   1.907   4.898   2.544 -0.5070 -1.7485 -1.7792
   28MOL   H41623150   1.820   4.822   2.680  0.6940  1.8554  2.3102
   28MOL   H41723151   2.048   4.684   2.522  0.8951 -0.6082  2.6741
   28MOL   H41823152   1.928   4.621   2.629  0.2150  0.7452  0.9899
   28MOL   H41923153   1.866   4.708   2.347  1.8984 -1.8123 -0.2962
   28MOL   H42023154   1.747   4.671   2.482  0.5534 -1.1996  1.3887
   28MOL   H42123155   1.853   4.553   2.406 -1.2974 -0.6221  0.5003
   28MOL   C42223156   2.210   5.975   3.085 -0.1210  0.2516  0.5555
   28MOL   C42323157   2.182   6.123   3.044  0.6381  0.1147  0.1241
   28MOL   C42423158   2.085   6.137   2.921  0.2003 -0.2562  0.1023
   28MOL   C42523159   2.104   6.275   2.856 -0.3492 -0.8999  0.0367
   28MOL   C42623160   2.045   6.282   2.713  0.0011 -0.2514  0.4779
   28MOL   C42723161   1.890   6.274   2.722  0.2116 -0.0372  0.5082
   28MOL   C42823162   1.817   6.290   2.585  0.0682  1.3098  0.0833
   28MOL   C42923163   1.663   6.249   2.603 -0.4749  0.3885 -0.3075
   28MOL   C43023164   1.583   6.238   2.472  0.2368  0.5360 -0.1810
   28MOL   C43123165   1.432   6.223   2.484 -0.1376 -0.1844 -0.5605
   28MOL   C43223166   1.372   6.215   2.342  0.3538  0.4058  0.4212
   28MOL   C43323167   1.378   6.090   2.261 -0.2445 -0.2323 -0.0573
   28MOL   C43423168   1.301   6.090   2.134  0.4751 -0.2178  0.5839
   28MOL   C43523169   1.147   6.082   2.150 -0.3081  0.1029 -0.5810
   28MOL   H43623170   2.245   5.968   3.188 -2.1970 -1.3831  1.1888
   28MOL   H43723171   2.117   5.918   3.081  0.0067 -0.0255  1.4375
   28MOL   H43823172   2.276   6.165   3.009  0.9475  1.3456  2.3183
   28MOL   H43923173   1.983   6.120   2.956  0.5173  0.1860  1.2395
   28MOL   H44023174   2.125   6.056   2.861  0.8631  1.0536 -1.2754
   28MOL   H44123175   2.067   6.360   2.914  0.1874  0.4150 -1.5107
   28MOL   H44223176   2.211   6.291   2.846 -0.7471  0.7043 -1.9735
   28MOL   H44323177   2.075   6.203   2.644 -2.3130  1.2288 -2.3632
   28MOL   H44423178   2.067   6.382   2.675 -0.6234 -0.5376 -0.6539
   28MOL   H44523179   1.853   6.351   2.790  1.0468 -0.4652  1.4554
   28MOL   H44623180   1.852   6.191   2.781 -0.1644  0.2067  0.6108
   28MOL   H44723181   1.826   6.395   2.558 -1.6135  1.5942  0.5932
   28MOL   H44823182   1.859   6.221   2.512  0.8304 -0.3270  2.0063
   28MOL   H44923183   1.653   6.153   2.654 -0.5853 -0.7531 -2.4388
   28MOL   H45023184   1.619   6.330   2.661  0.7667 -0.1058  1.3754
   28MOL   H45123185   1.610   6.326   2.413  2.7846  0.6281  1.0492
   28MOL   H45223186   1.628   6.157   2.415  0.9076 -0.6510  1.9725
   28MOL   H45323187   1.402   6.135   2.541 -0.1833  0.6583  0.7373
   28MOL   H45423188   1.397   6.309   2.541 -0.3643 -1.2428  0.9402
   28MOL   H45523189   1.267   6.238   2.358 -0.1160 -1.1648 -0.2724
   28MOL   H45623190   1.394   6.303   2.281  1.2218  0.9974  1.5705
   28MOL   H45723191   1.350   6.010   2.331 -1.3582  0.7629  0.6559
   28MOL   H45823192   1.484   6.080   2.240  0.1966  0.2726  1.8132
   28MOL   H45923193   1.334   6.167   2.064  1.4751 -0.5915  0.6281
   28MOL   H46023194   1.332   6.001   2.080  1.9651  1.5750 -1.6399
   28MOL   H46123195   1.110   6.180   2.181 -0.9360 -0.2710 -0.1464
   28MOL   H46223196   1.120   6.010   2.228 -1.1750 -0.0212 -0.9925
   28MOL   H46323197   1.090   6.058   2.060  4.1141 -2.0296 -2.9839
   28MOL   C46423198   2.135   6.212   3.165 -0.7220 -0.7960  0.2527
   28MOL   C46523199   2.233   6.269   3.266  0.0652 -1.0815 -0.6586
   28MOL   C46623200   2.300   6.161   3.360  0.5056  0.1055  0.0692
   28MOL   C46723201   2.202   6.070   3.433  0.0379 -0.4418 -0.2812
   28MOL   C46823202   2.101   6.139   3.526  0.1889  0.8985 -0.2777
   28MOL   C46923203   2.152   6.216   3.642 -0.7377  0.1211 -0.3480
   28MOL   C47023204   2.036   6.280   3.715 -0.2834 -0.3533 -0.1925
   28MOL   C47123205   2.084   6.351   3.837  0.2656 -0.2703 -0.2850
   28MOL   C47223206   1.978   6.439   3.905  0.0648  0.6581  0.2974
   28MOL   C47323207   1.963   6.575   3.841 -0.2727  0.4404  0.3607
   28MOL   C47423208   2.085   6.662   3.864  0.3190  0.3734 -0.2198
   28MOL   C47523209   2.053   6.803   3.823  0.6293 -0.0115  0.3316
   28MOL   C47623210   2.171   6.899   3.831 -0.0182 -0.5136 -0.4856
   28MOL   C47723211   2.120   7.046   3.788 -0.2208 -0.2713 -0.0886
   28MOL   H47823212   2.060   6.158   3.223  0.9561 -1.6194  1.7195
   28MOL   H47923213   2.079   6.294   3.120  1.0070  1.3158  1.8525
   28MOL   H48023214   2.169   6.333   3.326  1.4101  0.4703 -0.8591
   28MOL   H48123215   2.379   6.108   3.305  0.7219 -0.1726  0.6490
   28MOL   H48223216   2.362   6.210   3.435  2.0459  0.9133 -1.6530
   28MOL   H48323217   2.261   6.016   3.507 -0.5783 -0.6970  0.0335
   28MOL   H48423218   2.148   6.002   3.367  0.3066 -0.9028 -0.0301
   28MOL   H48523219   2.043   6.054   3.563  0.3275  0.4077 -1.1755
   28MOL   H48623220   2.043   6.213   3.470  0.2305  1.3858  0.3162
   28MOL   H48723221   2.215   6.163   3.713 -2.3539 -1.0389  0.2255
   28MOL   H48823222   2.216   6.296   3.603 -1.9071  0.3887 -1.7349
   28MOL   H48923223   1.987   6.356   3.654 -1.9865 -1.0758  0.2456
   28MOL   H49023224   1.962   6.202   3.734 -0.0186 -0.6503 -0.3885
   28MOL   H49123225   2.114   6.269   3.901  1.2831  1.9304  2.1609
   28MOL   H49223226   2.175   6.407   3.815 -0.2272  1.0842  1.0310
   28MOL   H49323227   1.883   6.386   3.891  0.9550 -0.5727 -1.3068
   28MOL   H49423228   1.996   6.438   4.012  0.7912  0.0120  0.1754
   28MOL   H49523229   1.922   6.565   3.740  3.0395 -1.0103 -0.9361
   28MOL   H49623230   1.880   6.616   3.898 -0.1306 -0.6751  1.3906
   28MOL   H49723231   2.120   6.639   3.964  1.3060  0.6792 -0.4866
   28MOL   H49823232   2.168   6.631   3.801 -0.7626 -0.5703 -1.2056
   28MOL   H49923233   1.977   6.853   3.883 -0.1275 -1.0041  0.2263
   28MOL   H50023234   2.030   6.806   3.716 -1.8912 -0.5132  0.8308
   28MOL   H50123235   2.203   6.927   3.931 -1.0541 -0.9498 -0.0190
   28MOL   H50223236   2.257   6.865   3.773  0.7295  2.7814 -1.4026
   28MOL   H50323237   2.066   7.048   3.693  0.2816  1.4843 -0.3697
   28MOL   H50423238   2.049   7.085   3.860  0.4982  0.7981  0.0565
   28MOL   H50523239   2.197   7.123   3.789 -0.0530 -0.4245 -0.8138
   28MOL   C50623240   2.333   6.363   3.201 -0.3788 -0.1916 -0.6417
   28MOL   C50723241   2.421   6.457   3.291 -0.2202  0.4812  0.0129
   28MOL   C50823242   2.547   6.511   3.215 -0.0747 -0.5045 -0.5419
   28MOL   C50923243   2.670   6.419   3.202 -0.4244 -0.5448 -0.5277
   28MOL   C51023244   2.776   6.468   3.109 -0.0273 -0.0089  0.3055
   28MOL   C51123245   2.735   6.513   2.963 -0.2647  0.0126 -0.1173
   28MOL   C51223246   2.855   6.554   2.876  0.0262  0.0421  0.4176
   28MOL   C51323247   2.825   6.555   2.728 -0.0450 -0.2572 -0.4032
   28MOL   C51423248   2.930   6.627   2.646  0.4086  0.5576  0.1625
   28MOL   C51523249   2.891   6.641   2.498 -0.2356  0.3710  0.2811
   28MOL   C51623250   3.003   6.710   2.416  0.5870  0.6071  0.0914
   28MOL   C51723251   2.959   6.772   2.281 -0.7726  0.5031 -0.1740
   28MOL   C51823252   3.066   6.853   2.218 -0.1246  0.0658  0.5605
   28MOL   C51923253   3.035   6.872   2.068 -0.7571 -0.2560 -0.9189
   28MOL   H52023254   2.284   6.436   3.137 -1.6049 -0.2019  0.2772
   28MOL   H52123255   2.397   6.305   3.134 -2.1171 -1.9656 -0.8150
   28MOL   H52223256   2.458   6.388   3.367 -1.4898  1.6580  1.7396
   28MOL   H52323257   2.526   6.527   3.109 -0.9546 -0.7102 -0.4003
   28MOL   H52423258   2.569   6.609   3.256 -1.5901 -0.5943  0.5196
   28MOL   H52523259   2.717   6.402   3.299 -0.1611 -0.0934 -0.5750
   28MOL   H52623260   2.627   6.323   3.176  0.1202 -1.2100  0.9319
   28MOL   H52723261   2.857   6.396   3.101  0.2151  0.3572 -0.5613
   28MOL   H52823262   2.821   6.559   3.149  2.7810 -0.4084 -1.8224
   28MOL   H52923263   2.675   6.604   2.956  0.9884  1.1822  3.1895
   28MOL   H53023264   2.697   6.420   2.921 -0.5084  0.0015  0.1226
   28MOL   H53123265   2.870   6.658   2.905 -1.0379  0.3760 -0.1961
   28MOL   H53223266   2.949   6.505   2.902 -0.5255 -1.3525 -0.1572
   28MOL   H53323267   2.727   6.597   2.705 -0.2956 -0.4801  0.2284
   28MOL   H53423268   2.825   6.449   2.703 -1.1418 -0.5849  0.8840
   28MOL   H53523269   3.028   6.580   2.652  0.0138 -0.4626 -1.2464
   28MOL   H53623270   2.952   6.719   2.700  1.8301 -0.3167  1.1266
   28MOL   H53723271   2.881   6.540   2.459  2.9273 -0.3776  1.1990
   28MOL   H53823272   2.793   6.685   2.480 -0.3202  0.3745  0.7431
   28MOL   H53923273   3.023   6.802   2.471  3.0577 -1.3732  2.6340
   28MOL   H54023274   3.088   6.647   2.390  0.4153  0.9062 -1.2351
   28MOL   H54123275   2.873   6.839   2.291 -2.1555 -1.1324 -0.8206
   28MOL   H54223276   2.929   6.692   2.213  0.5989  0.0028 -0.1952
   28MOL   H54323277   3.168   6.817   2.222 -0.0130  0.4409  1.2287
   28MOL   H54423278   3.070   6.950   2.267 -0.8961 -0.0125  0.7915
   28MOL   H54523279   3.052   6.776   2.019  0.2813  0.0119 -1.0990
   28MOL   H54623280   2.937   6.915   2.049 -0.6830 -0.8545 -2.7849
   28MOL   H54723281   3.103   6.947   2.028  1.6763 -2.7449 -1.6366
   28MOL   C54823282   2.342   6.568   3.369 -0.7635 -0.3000  0.4818
   28MOL   C54923283   2.418   6.628   3.482 -0.1238  0.3331 -0.8910
   28MOL   C55023284   2.369   6.766   3.540 -1.1671  0.9460  0.6916
   28MOL   C55123285   2.380   6.891   3.450 -0.4428  0.0011 -0.0799
   28MOL   C55223286   2.512   6.973   3.481 -0.0826  0.1324  0.2181
   28MOL   C55323287   2.642   6.898   3.464  0.0758  0.5542  0.0575
   28MOL   C55423288   2.769   6.984   3.465 -0.1621 -0.5505  0.5832
   28MOL   C55523289   2.890   6.900   3.479  0.1204  0.8848  0.1248
   28MOL   C55623290   3.017   6.984   3.477  0.8955 -0.4770 -0.3719
   28MOL   C55723291   3.139   6.919   3.540  0.4504  0.1509 -0.2619
   28MOL   C55823292   3.273   6.983   3.497  0.3999  0.3016  0.1823
   28MOL   C55923293   3.393   6.943   3.578 -0.1762  0.2497 -0.0443
   28MOL   C56023294   3.426   6.801   3.570 -0.4349 -0.0015  0.5179
   28MOL   C56123295   3.502   6.742   3.690 -0.0662  0.3858 -0.0142
   28MOL   H56223296   2.326   6.642   3.291 -1.0831 -0.4091  0.4447
   28MOL   H56323297   2.244   6.544   3.411 -0.0335 -0.9510  1.8537
   28MOL   H56423298   2.521   6.643   3.449  0.7276 -1.0653  1.0741
   28MOL   H56523299   2.263   6.749   3.558 -1.0332  1.0233  1.5961
   28MOL   H56623300   2.418   6.772   3.637 -0.3950 -1.4670  0.4975
   28MOL   H56723301   2.297   6.961   3.460  0.6310  1.3921 -0.6847
   28MOL   H56823302   2.385   6.866   3.344  0.2281  0.9069 -0.2696
   28MOL   H56923303   2.507   7.065   3.423  0.0822  0.6343  0.9860
   28MOL   H57023304   2.511   7.008   3.584  0.3743 -0.2971  0.3769
   28MOL   H57123305   2.625   6.843   3.372 -1.5971 -1.2561  1.4039
   28MOL   H57223306   2.653   6.823   3.542 -1.0588  1.5222  1.1858
   28MOL   H57323307   2.766   7.052   3.380  1.4946 -1.0522  0.1155
   28MOL   H57423308   2.769   7.051   3.551 -1.3211  0.2663 -0.0268
   28MOL   H57523309   2.894   6.828   3.398  1.3764 -0.3775  1.2842
   28MOL   H57623310   2.897   6.840   3.569  2.8910 -0.9240 -1.2255
   28MOL   H57723311   3.008   7.076   3.535 -2.8581 -1.0598  0.0803
   28MOL   H57823312   3.027   7.013   3.372 -3.0785  0.3857 -0.6127
   28MOL   H57923313   3.131   6.931   3.648  0.2544  4.5042 -0.6788
   28MOL   H58023314   3.133   6.814   3.509 -0.0698 -0.2554  1.2007
   28MOL   H58123315   3.267   7.092   3.508  3.0738  0.4001  1.2118
   28MOL   H58223316   3.285   6.964   3.390  0.6735  0.1520  0.2388
   28MOL   H58323317   3.478   7.004   3.547  0.5366 -1.0120 -0.6031
   28MOL   H58423318   3.384   6.973   3.682 -1.5758  2.4587 -0.7749
   28MOL   H58523319   3.333   6.748   3.555 -0.5209  0.4213 -0.4948
   28MOL   H58623320   3.483   6.793   3.477 -1.1854  0.6451 -0.0093
   28MOL   H58723321   3.428   6.749   3.769  0.6682 -1.7979  0.9116
   28MOL   H58823322   3.520   6.636   3.675  1.6286  1.0068 -2.7009
   28MOL   H58923323   3.597   6.792   3.713  0.7143 -1.0473 -0.0521
   28MOL   C59023324   2.419   6.522   3.595  0.5037 -0.3205 -0.0185
   28MOL   C59123325   2.548   6.515   3.684 -0.3663 -0.3049  0.0388
   28MOL   C59223326   2.530   6.424   3.807 -0.0198 -0.0425  0.6847
   28MOL   C59323327   2.511   6.274   3.775  0.7718 -0.3688  0.7971
   28MOL   C59423328   2.482   6.203   3.912 -0.0399  0.4768  0.4564
   28MOL   C59523329   2.447   6.054   3.911  0.5209 -0.7012  0.4144
   28MOL   C59623330   2.422   5.996   4.054 -0.0705  0.2545  0.3581
   28MOL   C59723331   2.540   6.013   4.157  0.5886  0.8084 -0.2824
   28MOL   C59823332   2.534   5.909   4.276  0.2599  0.2244  0.0204
   28MOL   C59923333   2.665   5.919   4.357  0.1774  0.1829 -0.1514
   28MOL   C60023334   2.786   5.832   4.315  0.2619 -0.0641  0.6935
   28MOL   C60123335   2.904   5.801   4.411  0.1883  0.6285 -0.1955
   28MOL   C60223336   2.999   5.921   4.434  0.7314  0.5536 -0.1732
   28MOL   C60323337   3.123   5.887   4.507  0.1443 -0.5829  0.0219
   28MOL   H60423338   2.411   6.423   3.549 -1.3282  1.6257 -4.0767
   28MOL   H60523339   2.324   6.531   3.648  0.6087  1.7720 -0.1506
   28MOL   H60623340   2.545   6.617   3.722  1.5378 -0.6441  1.2206
   28MOL   H60723341   2.438   6.458   3.855 -1.5386 -0.2416 -2.0275
   28MOL   H60823342   2.614   6.431   3.877  0.6033  0.4270 -0.1120
   28MOL   H60923343   2.597   6.229   3.727 -0.6170 -4.0869  1.6238
   28MOL   H61023344   2.440   6.258   3.694  1.4902 -0.2676  0.1442
   28MOL   H61123345   2.405   6.267   3.954  0.5429  0.4331  1.6048
   28MOL   H61223346   2.570   6.206   3.975 -0.6784 -1.3924  1.4917
   28MOL   H61323347   2.541   6.005   3.889  1.3241 -0.1518  2.4816
   28MOL   H61423348   2.377   6.027   3.833  1.6522 -0.8790 -0.5476
   28MOL   H61523349   2.330   6.030   4.102  1.1005  0.9708  2.1665
   28MOL   H61623350   2.405   5.889   4.043  0.3573  0.1068  1.1204
   28MOL   H61723351   2.633   5.991   4.105  1.4393  1.2694  1.0266
   28MOL   H61823352   2.542   6.110   4.206  0.3185  0.4368  0.4734
   28MOL   H61923353   2.450   5.929   4.342 -0.6435  1.1658 -1.3999
   28MOL   H62023354   2.534   5.813   4.225  1.3541 -0.2241  0.8306
   28MOL   H62123355   2.698   6.021   4.376 -0.6837  0.2178  1.1941
   28MOL   H62223356   2.635   5.873   4.451  1.3543 -0.1006  0.0919
   28MOL   H62323357   2.833   5.876   4.228 -1.7739  3.2621  1.1827
   28MOL   H62423358   2.754   5.739   4.266  0.5519  0.3972 -0.3750
   28MOL   H62523359   2.963   5.716   4.376  1.1597  1.3538 -0.3381
   28MOL   H62623360   2.859   5.772   4.505 -1.3771  0.9288 -0.8406
   28MOL   H62723361   3.038   5.954   4.337  3.6913  1.0272  1.1230
   28MOL   H62823362   2.953   6.012   4.472  0.6107 -0.0112  1.0429
   28MOL   H62923363   3.183   5.805   4.468 -0.8256 -0.1647 -2.4469
   28MOL   H63023364   3.102   5.856   4.610 -0.1859 -0.5988 -0.0509
   28MOL   H63123365   3.186   5.976   4.519 -0.9479 -0.0581  2.1542
   28MOL   C63223366   2.673   6.470   3.592  1.0826  0.8872 -0.2387
   28MOL   C63323367   2.804   6.430   3.667 -0.0503  0.2628  0.2390
   28MOL   C63423368   2.902   6.346   3.580  0.8475  0.3465  0.1160
   28MOL   C63523369   2.851   6.204   3.537 -0.3266  0.0266  0.5803
   28MOL   C63623370   2.973   6.115   3.508  0.3004  0.2893  0.2212
   28MOL   C63723371   2.950   5.964   3.487  0.0548  0.0320 -0.5924
   28MOL   C63823372   3.075   5.880   3.464  0.5794 -0.6763 -0.1354
   28MOL   C63923373   3.045   5.735   3.418  0.3609 -0.1842 -1.5548
   28MOL   C64023374   3.011   5.718   3.264  0.0667  0.0568 -0.3245
   28MOL   C64123375   2.979   5.576   3.216 -0.1522 -1.0397  0.2964
   28MOL   C64223376   3.091   5.474   3.236 -0.2064 -0.3877  0.0566
   28MOL   C64323377   3.212   5.493   3.136  0.1784 -0.0120  0.1092
   28MOL   C64423378   3.313   5.383   3.144  0.0621 -0.1053 -0.5873
   28MOL   C64523379   3.434   5.412   3.059 -0.2949  0.9584  0.7575
   28MOL   H64623380   2.680   6.557   3.528  1.4355  0.8386 -0.2696
   28MOL   H64723381   2.641   6.387   3.528  0.5008  0.0846  1.0576
   28MOL   H64823382   2.775   6.364   3.749 -2.1389  1.8820  0.8268
   28MOL   H64923383   2.921   6.401   3.488 -1.0078 -0.5331 -0.8068
   28MOL   H65023384   2.988   6.324   3.644  2.6390 -0.1469 -2.4088
   28MOL   H65123385   2.769   6.200   3.464 -0.5421  0.9476  0.7720
   28MOL   H65223386   2.809   6.163   3.629 -2.9222  2.1237  0.3985
   28MOL   H65323387   3.037   6.115   3.597  1.0716 -1.0873 -0.3211
   28MOL   H65423388   3.029   6.154   3.423 -1.2649  0.7230 -0.6276
   28MOL   H65523389   2.896   5.912   3.567 -0.2126 -0.2841 -0.9739
   28MOL   H65623390   2.886   5.978   3.400 -1.0121  0.4432  0.2473
   28MOL   H65723391   3.128   5.937   3.387  0.3744  1.1104  1.0159
   28MOL   H65823392   3.131   5.874   3.557 -1.2747  1.3445  1.1607
   28MOL   H65923393   2.965   5.693   3.477  0.7771  0.2262 -0.6949
   28MOL   H66023394   3.137   5.678   3.431 -0.2931 -1.4838 -2.4742
   28MOL   H66123395   3.093   5.756   3.202 -0.6142  1.0358 -0.6469
   28MOL   H66223396   2.926   5.780   3.238  2.3434  2.6025 -2.0957
   28MOL   H66323397   2.884   5.542   3.258 -0.4148 -1.7583 -0.8534
   28MOL   H66423398   2.961   5.582   3.109 -0.2475 -0.9654  0.3172
   28MOL   H66523399   3.124   5.483   3.340 -1.9891 -0.4854  0.6406
   28MOL   H66623400   3.053   5.373   3.222 -0.1773 -0.2681 -0.9064
   28MOL   H66723401   3.256   5.590   3.160 -1.5774  1.4433 -2.3087
   28MOL   H66823402   3.167   5.500   3.037  0.7906  1.8889 -0.0479
   28MOL   H66923403   3.277   5.283   3.118  0.7152 -0.8169  1.1452
   28MOL   H67023404   3.337   5.374   3.250 -0.2822 -1.9334 -0.6420
   28MOL   H67123405   3.400   5.417   2.956 -2.5550  0.8236  1.4823
   28MOL   H67223406   3.483   5.505   3.090 -0.1594  1.1558 -0.0471
   28MOL   H67323407   3.515   5.340   3.070  1.0002  1.5683 -3.7977
   28MOL   C67423408   2.865   6.557   3.731 -0.5868 -0.0222 -0.7183
   28MOL   C67523409   2.979   6.546   3.837 -0.1265  0.4077 -0.0768
   28MOL   C67623410   3.038   6.684   3.872 -0.1196  0.2010  0.0160
   28MOL   C67723411   3.186   6.689   3.923 -0.0417  0.0643  0.0346
   28MOL   C67823412   3.233   6.822   3.986  0.1980  0.0976  0.4240
   28MOL   C67923413   3.175   6.859   4.119 -0.4672 -0.9065 -0.2945
   28MOL   C68023414   3.186   6.737   4.225 -0.0976 -0.7284 -0.0436
   28MOL   C68123415   3.198   6.788   4.371 -0.6185 -0.3959  0.3233
   28MOL   C68223416   3.167   6.686   4.472  0.0833 -0.6648  0.0220
   28MOL   C68323417   3.217   6.707   4.623  0.2302 -0.1350  0.3238
   28MOL   C68423418   3.213   6.600   4.726 -0.1681 -0.0503  0.7689
   28MOL   C68523419   3.086   6.522   4.761 -0.3869  0.4047 -0.2557
   28MOL   C68623420   3.104   6.427   4.883 -0.4979 -0.6255  0.4078
   28MOL   C68723421   3.000   6.322   4.879 -0.6003  0.2371 -1.1774
   28MOL   H68823422   2.779   6.613   3.765 -1.7930 -1.1694 -1.8035
   28MOL   H68923423   2.914   6.614   3.652  0.7507 -1.7313 -1.1739
   28MOL   H69023424   3.064   6.491   3.796 -1.6875 -0.5360 -2.1231
   28MOL   H69123425   3.038   6.753   3.788  1.4146  1.2471  0.8361
   28MOL   H69223426   2.979   6.733   3.949  0.9366 -0.5191  1.3035
   28MOL   H69323427   3.195   6.615   4.002 -2.0754  2.5716  2.7327
   28MOL   H69423428   3.252   6.668   3.839 -2.1615 -1.5580 -1.2851
   28MOL   H69523429   3.341   6.815   3.987  0.0437 -2.7080  1.5648
   28MOL   H69623430   3.221   6.906   3.917 -1.8559 -0.0932  0.4909
   28MOL   H69723431   3.236   6.944   4.149  1.5627 -1.0868 -3.6263
   28MOL   H69823432   3.071   6.888   4.101  0.2508  0.9346 -1.5324
   28MOL   H69923433   3.100   6.669   4.219 -0.5563 -0.1877  0.3847
   28MOL   H70023434   3.276   6.685   4.192  0.6592  0.6722 -0.1946
   28MOL   H70123435   3.302   6.818   4.387  0.1868 -2.9080  0.0754
   28MOL   H70223436   3.132   6.873   4.384  0.7105  0.6574  0.2799
   28MOL   H70323437   3.059   6.679   4.461  0.2949  0.5443 -3.3834
   28MOL   H70423438   3.215   6.592   4.443  1.0334 -0.7600  1.7815
   28MOL   H70523439   3.154   6.781   4.673  0.4384 -0.1547  0.6154
   28MOL   H70623440   3.319   6.745   4.630 -0.2671  1.3188 -0.2130
   28MOL   H70723441   3.253   6.649   4.815 -1.0668 -0.2936  1.3037
   28MOL   H70823442   3.294   6.531   4.699  0.5294  0.4833  1.4708
   28MOL   H70923443   3.058   6.471   4.669 -0.6048  1.5685 -0.8493
   28MOL   H71023444   3.007   6.593   4.786 -0.7437  0.7197 -2.1825
   28MOL   H71123445   3.200   6.376   4.880  0.5100  1.2847 -1.8672
   28MOL   H71223446   3.106   6.479   4.978  0.5021 -0.8065  0.4897
   28MOL   H71323447   2.904   6.374   4.873 -2.4169 -2.5900  1.3245
   28MOL   H71423448   3.015   6.254   4.796 -0.5838  0.1717 -1.1213
   28MOL   H71523449   3.006   6.267   4.973  0.4554  0.4529 -1.1192
   28MOL   C71623450   2.926   6.466   3.963  0.0420  0.0009 -0.4691
   28MOL   C71723451   3.015   6.354   4.027 -0.4367 -0.6299 -0.2713
   28MOL   C71823452   2.981   6.340   4.178 -0.1416  0.9884  0.8387
   28MOL   C71923453   2.832   6.298   4.208  0.6337  0.0573  1.0264
   28MOL   C72023454   2.794   6.308   4.359  0.5929 -0.4769  0.0922
   28MOL   C72123455   2.770   6.451   4.414 -0.4990 -0.4827 -0.2013
   28MOL   C72223456   2.741   6.457   4.565  0.2935  0.1099  0.0359
   28MOL   C72323457   2.684   6.600   4.595  0.2589  0.2039 -0.8495
   28MOL   C72423458   2.660   6.630   4.738  0.3154  0.1693 -0.1823
   28MOL   C72523459   2.605   6.779   4.751  0.1533  0.1409 -0.3876
   28MOL   C72623460   2.591   6.826   4.896  0.2590 -0.0739  0.0054
   28MOL   C72723461   2.521   6.958   4.912  0.3040  0.1702  0.3789
   28MOL   C72823462   2.551   7.020   5.048  0.3984  0.5103 -0.6263
   28MOL   C72923463   2.477   6.943   5.158 -0.0220 -0.9753  0.1124
   28MOL   H73023464   2.927   6.544   4.039  1.3691 -1.4958  1.0847
   28MOL   H73123465   2.820   6.440   3.957  0.5472 -2.5409  1.0725
   28MOL   H73223466   3.118   6.390   4.024 -0.0512 -1.8087 -1.1489
   28MOL   H73323467   2.992   6.437   4.225  1.5691  1.4746 -0.5141
   28MOL   H73423468   3.046   6.270   4.231 -0.9165  0.0855  0.6096
   28MOL   H73523469   2.764   6.355   4.145  1.7533  0.4850  0.1898
   28MOL   H73623470   2.810   6.195   4.179  0.1376  0.0750  1.3251
   28MOL   H73723471   2.701   6.251   4.370 -0.6156  1.5622  0.7690
   28MOL   H73823472   2.869   6.267   4.426  0.6483 -0.4597  0.0392
   28MOL   H73923473   2.865   6.505   4.408  0.2858 -2.0066 -2.0836
   28MOL   H74023474   2.699   6.510   4.356  0.0786  1.8160  1.3877
   28MOL   H74123475   2.653   6.398   4.591  0.2832 -0.5689 -1.4785
   28MOL   H74223476   2.824   6.413   4.620  0.2511 -0.6382 -0.4950
   28MOL   H74323477   2.593   6.615   4.537 -0.3934 -0.2165  0.0587
   28MOL   H74423478   2.750   6.671   4.545 -0.1213  0.6202 -0.7644
   28MOL   H74523479   2.592   6.560   4.787 -0.7565  2.0815  1.1532
   28MOL   H74623480   2.753   6.623   4.794  0.5672  0.7905 -0.5196
   28MOL   H74723481   2.691   6.834   4.713 -0.5623  0.3323 -1.7472
   28MOL   H74823482   2.515   6.798   4.692 -0.0828 -0.7764 -0.3361
   28MOL   H74923483   2.523   6.752   4.940 -0.2462  1.4739  1.9067
   28MOL   H75023484   2.694   6.826   4.930  0.6210 -0.7372 -1.0693
   28MOL   H75123485   2.571   7.025   4.842  0.0349  1.2189  1.1790
   28MOL   H75223486   2.414   6.950   4.893  0.8274 -1.6416 -2.1354
   28MOL   H75323487   2.520   7.124   5.042  0.4305  0.5960  0.5596
   28MOL   H75423488   2.658   7.024   5.065 -0.0126 -2.4596  3.5647
   28MOL   H75523489   2.503   6.837   5.151  0.8846 -0.8006  0.8030
   28MOL   H75623490   2.370   6.953   5.141 -0.1335 -0.6612  0.9849
   28MOL   H75723491   2.493   6.978   5.260 -1.5096 -0.1899  0.0935
   28MOL   C75823492   3.003   6.229   3.941  0.1168  0.4764 -0.1857
   28MOL   C75923493   3.086   6.108   3.991 -0.4874 -0.5264 -0.6048
   28MOL   C76023494   3.051   5.975   3.913 -0.2428 -0.6128 -0.3399
   28MOL   C76123495   2.904   5.933   3.912  0.6799 -0.1160 -0.9138
   28MOL   C76223496   2.874   5.797   3.850 -0.2386 -0.8045  0.4346
   28MOL   C76323497   2.728   5.774   3.843 -0.4224  0.6472 -0.5891
   28MOL   C76423498   2.694   5.643   3.768 -0.2273  0.1479  0.0309
   28MOL   C76523499   2.733   5.507   3.820  0.7712  0.1122  0.0464
   28MOL   C76623500   2.680   5.395   3.736 -0.6325  0.8079 -0.5792
   28MOL   C76723501   2.764   5.361   3.602 -0.3459  0.5267  0.6375
   28MOL   C76823502   2.725   5.234   3.524  0.3894  0.2829 -0.6083
   28MOL   C76923503   2.587   5.253   3.459 -0.4165 -0.4031 -0.1121
   28MOL   C77023504   2.525   5.116   3.445 -0.2038  0.5137 -0.3403
   28MOL   C77123505   2.388   5.130   3.384  0.1577 -0.5882 -0.1139
   28MOL   H77223506   2.897   6.207   3.936  0.2623 -0.5358  1.0980
   28MOL   H77323507   3.032   6.254   3.839  0.6554  1.6616  0.2517
   28MOL   H77423508   3.061   6.086   4.095  0.9730 -0.8906 -0.3137
   28MOL   H77523509   3.077   5.988   3.808 -1.3399  0.0619 -0.5257
   28MOL   H77623510   3.113   5.895   3.955  0.8655  0.6784  0.5337
   28MOL   H77723511   2.863   5.923   4.012 -1.0443  1.0514 -1.4796
   28MOL   H77823512   2.848   6.006   3.852  0.1813 -0.1987 -0.5463
   28MOL   H77923513   2.936   5.728   3.907 -0.4284 -1.0453  0.3495
   28MOL   H78023514   2.910   5.805   3.747 -0.9726  1.2248  0.3206
   28MOL   H78123515   2.683   5.861   3.794  0.6862  2.9541  2.3138
   28MOL   H78223516   2.697   5.773   3.947  1.4797 -1.1562 -0.0119
   28MOL   H78323517   2.587   5.648   3.748 -0.4765  1.3399  1.5819
   28MOL   H78423518   2.737   5.660   3.669  2.2040 -0.8810  0.8713
   28MOL   H78523519   2.681   5.507   3.915  1.3267 -0.7488  0.3613
   28MOL   H78623520   2.838   5.491   3.846  0.0976  0.8547  3.3580
   28MOL   H78723521   2.573   5.407   3.719 -0.8454 -2.0593 -1.4405
   28MOL   H78823522   2.678   5.308   3.801  0.2567  1.1210 -0.1151
   28MOL   H78923523   2.866   5.334   3.629 -0.1480  1.3570  0.7373
   28MOL   H79023524   2.772   5.441   3.528  0.4323 -0.9590 -0.9227
   28MOL   H79123525   2.789   5.222   3.437 -0.2402 -0.5231 -0.9723
   28MOL   H79223526   2.738   5.146   3.587 -1.8033 -0.1411 -0.7054
   28MOL   H79323527   2.526   5.323   3.516  1.1790  0.3499  0.6968
   28MOL   H79423528   2.594   5.303   3.363  1.5434 -0.5979 -0.0869
   28MOL   H79523529   2.579   5.046   3.380  1.3954  1.2218  0.1932
   28MOL   H79623530   2.519   5.067   3.542 -1.5118  1.9571  0.3252
   28MOL   H79723531   2.326   5.213   3.420  1.6400  0.7941 -0.6896
   28MOL   H79823532   2.393   5.167   3.282 -4.2244 -0.7953 -0.4851
   28MOL   H79923533   2.325   5.041   3.381 -1.1563  0.3400 -0.7207
   28MOL   C80023534   3.239   6.142   3.996 -0.0838 -0.1283  0.2421
   28MOL   C80123535   3.306   6.195   3.864  0.7414  0.0625  0.1378
   28MOL   C80223536   3.456   6.158   3.843  0.1856  0.1358  0.4036
   28MOL   C80323537   3.513   6.198   3.703 -0.3045 -0.0241 -0.4489
   28MOL   C80423538   3.557   6.348   3.685  0.3891  0.6286  0.3814
   28MOL   C80523539   3.626   6.368   3.542  0.1458 -0.0509  0.7537
   28MOL   C80623540   3.523   6.345   3.430 -1.2011  0.5741 -0.2178
   28MOL   C80723541   3.405   6.443   3.438 -0.3083 -0.2445  0.4109
   28MOL   C80823542   3.305   6.416   3.325  0.8094 -0.7363 -0.1658
   28MOL   C80923543   3.189   6.526   3.309 -0.4650  0.0728  0.7598
   28MOL   C81023544   3.238   6.644   3.214 -0.3245  0.7562 -0.2470
   28MOL   C81123545   3.120   6.722   3.155  0.1175  0.3908  0.4310
   28MOL   C81223546   3.158   6.844   3.067  0.5896  0.3397  0.0444
   28MOL   C81323547   3.055   6.964   3.073  0.1072 -0.3768  0.0892
   28MOL   H81423548   3.290   6.049   4.020 -1.1399 -0.9038 -0.4675
   28MOL   H81523549   3.251   6.201   4.086 -0.3992  2.3909 -1.3032
   28MOL   H81623550   3.291   6.302   3.880 -1.7675 -0.3167  0.5523
   28MOL   H81723551   3.463   6.050   3.842  0.5792  0.1623 -0.3932
   28MOL   H81823552   3.515   6.204   3.923  2.2267 -1.2464 -0.2677
   28MOL   H81923553   3.446   6.160   3.626 -0.6106  0.9075 -0.6418
   28MOL   H82023554   3.599   6.132   3.691  1.1633  1.9166 -0.8879
   28MOL   H82123555   3.464   6.404   3.686 -1.3807 -2.1863 -0.5891
   28MOL   H82223556   3.612   6.375   3.776  0.0360 -0.4171  0.9218
   28MOL   H82323557   3.704   6.292   3.537 -0.9072 -1.3899  3.6785
   28MOL   H82423558   3.671   6.467   3.538 -0.3554  0.1369 -0.4307
   28MOL   H82523559   3.562   6.360   3.329 -1.3564  0.0094 -0.3643
   28MOL   H82623560   3.487   6.242   3.431 -0.1504  0.2098  0.2044
   28MOL   H82723561   3.353   6.461   3.531 -1.3080  1.2190 -0.4056
   28MOL   H82823562   3.445   6.544   3.426  0.7615 -0.6196  0.7926
   28MOL   H82923563   3.356   6.413   3.228  1.7819 -1.0202  0.3393
   28MOL   H83023564   3.277   6.314   3.351 -0.8303  0.2207  1.9023
   28MOL   H83123565   3.176   6.576   3.405 -0.0791  2.4076 -0.3490
   28MOL   H83223566   3.096   6.483   3.274  0.3491 -1.4308  0.4270
   28MOL   H83323567   3.298   6.712   3.274  0.3182 -0.3173  0.3408
   28MOL   H83423568   3.308   6.604   3.141 -0.9162  0.0975 -0.4578
   28MOL   H83523569   3.071   6.756   3.246  0.3518  1.6529  0.0895
   28MOL   H83623570   3.042   6.663   3.106 -1.2451  1.6557  1.0580
   28MOL   H83723571   3.254   6.882   3.103  0.1894  1.5808 -0.1577
   28MOL   H83823572   3.166   6.809   2.964 -2.4831  1.0438 -0.4608
   28MOL   H83923573   3.086   7.039   3.000  1.2820  1.1616  2.0968
   28MOL   H84023574   2.966   6.915   3.034  0.1619  0.3270 -0.9221
   28MOL   H84123575   3.050   7.002   3.175 -0.8863  1.9042 -0.7833
   28MOL   H84223576   3.245   6.167   3.777  2.2987  0.6388 -1.1668
   29MOL     C123577   4.648   0.238   0.933  0.0467  0.1234 -0.2617
   29MOL     C223578   4.747   0.357   0.923  0.3388 -0.0024 -0.3325
   29MOL     C323579   4.830   0.365   1.051 -0.6058 -0.0908  0.2521
   29MOL     C423580   4.759   0.354   1.183  0.6679  0.3488 -0.5205
   29MOL     C523581   4.686   0.478   1.231 -0.6178  0.5446 -0.5876
   29MOL     C623582   4.597   0.453   1.350 -0.5364 -0.7194  0.0144
   29MOL     C723583   4.499   0.562   1.402  0.0100 -0.1649  0.2034
   29MOL     C823584   4.400   0.512   1.508 -0.0528  0.3648 -0.1667
   29MOL     C923585   4.281   0.605   1.521 -0.0322 -0.3718  0.4140
   29MOL    C1023586   4.163   0.524   1.576  0.4539  0.2793 -0.1389
   29MOL    C1123587   4.039   0.609   1.581 -0.3324  0.5271 -0.3373
   29MOL    C1223588   4.042   0.716   1.696  0.3149  0.2712 -0.1820
   29MOL    C1323589   4.067   0.665   1.840  0.8235  0.2135 -0.0237
   29MOL    C1423590   4.053   0.764   1.957 -0.9961  0.2295 -0.8563
   29MOL    H1523591   4.703   0.160   0.986 -0.4552  1.3662  2.1237
   29MOL    H1623592   4.601   0.214   0.838 -0.8081  1.5420 -0.2103
   29MOL    H1723593   4.682   0.444   0.923  1.7610  1.0784  0.1713
   29MOL    H1823594   4.909   0.291   1.047 -2.4933 -2.0562 -3.1137
   29MOL    H1923595   4.880   0.462   1.055 -0.3818 -0.2500  1.7498
   29MOL    H2023596   4.840   0.324   1.249  0.8330 -1.3993 -1.4828
   29MOL    H2123597   4.690   0.269   1.181 -0.0065  0.8993 -1.4015
   29MOL    H2223598   4.630   0.516   1.146 -1.2928  0.9532  0.0285
   29MOL    H2323599   4.769   0.543   1.261  0.8287 -1.4535 -0.1835
   29MOL    H2423600   4.677   0.422   1.417 -0.7474 -0.1760  0.5196
   29MOL    H2523601   4.540   0.366   1.318 -1.9991 -0.4423  1.7318
   29MOL    H2623602   4.557   0.646   1.442 -0.4589  0.4100 -0.3263
   29MOL    H2723603   4.435   0.608   1.327 -0.6547 -1.0001  0.2570
   29MOL    H2823604   4.449   0.506   1.605 -0.7139 -0.3197  0.1241
   29MOL    H2923605   4.363   0.412   1.486  0.0476  0.2257  0.2885
   29MOL    H3023606   4.306   0.683   1.593 -2.1363 -0.9614  1.8368
   29MOL    H3123607   4.246   0.641   1.425  0.4669 -1.1683 -0.0740
   29MOL    H3223608   4.141   0.434   1.520  0.7189 -0.0194  0.2342
   29MOL    H3323609   4.181   0.489   1.678 -2.7335 -0.8374  0.0847
   29MOL    H3423610   4.025   0.655   1.484  3.5650 -1.3417 -1.8824
   29MOL    H3523611   3.955   0.539   1.589  1.3273 -1.8047 -2.4153
   29MOL    H3623612   3.944   0.761   1.682  0.0230  0.0906  1.2251
   29MOL    H3723613   4.121   0.787   1.672  0.6712  0.4571  1.5003
   29MOL    H3823614   4.016   0.572   1.864  0.5730  0.6059  0.9850
   29MOL    H3923615   4.172   0.639   1.858  1.0560  0.5174 -0.8874
   29MOL    H4023616   4.079   0.730   2.057 -1.2115 -0.7577 -1.1360
   29MOL    H4123617   4.104   0.860   1.945  3.1101 -1.7375 -0.1880
   29MOL    H4223618   3.949   0.794   1.956 -1.6662 -2.0382 -1.8964
   29MOL    H4323619   4.566   0.271   0.996  1.4603  0.6010  1.3751
   29MOL    C4423620   4.832   0.340   0.794 -0.0116 -0.4106 -0.4767
   29MOL    C4523621   4.931   0.460   0.763  0.6349 -0.4758  0.4407
   29MOL    C4623622   4.867   0.606   0.767 -0.7277  0.1343 -0.3992
   29MOL    C4723623   4.750   0.635   0.674 -0.0152  0.6072 -0.0210
   29MOL    C4823624   4.659   0.756   0.718 -0.6035  0.0926 -0.0955
   29MOL    C4923625   4.573   0.721   0.845  0.6746  0.3834  0.3643
   29MOL    C5023626   4.497   0.844   0.899  0.0719  0.2222 -0.5196
   29MOL    C5123627   4.433   0.799   1.029  0.0421 -0.0399 -0.3650
   29MOL    C5223628   4.370   0.913   1.101  0.0880 -0.4669 -0.4200
   29MOL    C5323629   4.343   0.886   1.250 -0.1893  0.2630  0.3208
   29MOL    C5423630   4.260   0.995   1.322 -0.5469  0.2624 -0.1907
   29MOL    C5523631   4.215   0.954   1.467 -0.2174  0.0149 -0.6348
   29MOL    C5623632   4.121   1.064   1.522  0.5360 -0.5797  0.2758
   29MOL    C5723633   4.192   1.185   1.586  0.0833  0.2679  0.1263
   29MOL    H5823634   4.894   0.252   0.813  2.2128  0.8141 -1.9175
   29MOL    H5923635   4.773   0.310   0.708 -0.7692 -0.9406  0.2234
   29MOL    H6023636   5.003   0.453   0.845  1.3671  0.4054 -0.1260
   29MOL    H6123637   4.831   0.622   0.868 -1.7461 -0.6706 -0.6179
   29MOL    H6223638   4.948   0.678   0.764 -0.0107 -0.6834 -1.2109
   29MOL    H6323639   4.691   0.544   0.668 -0.2198  0.8498 -2.4302
   29MOL    H6423640   4.778   0.644   0.569 -0.5688  1.1899 -0.1174
   29MOL    H6523641   4.594   0.779   0.634  1.3995  1.1299 -1.4069
   29MOL    H6623642   4.715   0.848   0.734 -2.9082  1.7626 -1.3156
   29MOL    H6723643   4.507   0.641   0.811 -1.1145  1.4008  1.3725
   29MOL    H6823644   4.636   0.678   0.923 -1.5330  0.7655  2.4124
   29MOL    H6923645   4.566   0.928   0.913  1.6389 -1.0116 -0.7608
   29MOL    H7023646   4.424   0.880   0.827 -1.1626  0.8828  1.0331
   29MOL    H7123647   4.523   0.773   1.085 -0.0336  0.5718  0.0479
   29MOL    H7223648   4.363   0.715   1.023 -0.6255  0.2705  2.5015
   29MOL    H7323649   4.433   1.001   1.086 -2.5961  1.6122 -0.0071
   29MOL    H7423650   4.280   0.938   1.045  0.3672  1.7415  0.0646
   29MOL    H7523651   4.434   0.853   1.300  1.8397  2.2347 -1.9569
   29MOL    H7623652   4.282   0.796   1.259 -1.3257  0.8357 -1.4492
   29MOL    H7723653   4.179   1.026   1.256 -0.7209  2.6290  1.0991
   29MOL    H7823654   4.318   1.086   1.332 -1.9178  1.3565 -1.7831
   29MOL    H7923655   4.161   0.859   1.461 -0.1712  0.0093 -0.9521
   29MOL    H8023656   4.304   0.950   1.529 -1.3915  0.0248  1.0810
   29MOL    H8123657   4.054   1.026   1.599  0.3529 -0.9805 -0.0808
   29MOL    H8223658   4.049   1.091   1.445  0.0034 -1.3511  0.4997
   29MOL    H8323659   4.117   1.257   1.620 -0.8564 -0.5068 -0.2974
   29MOL    H8423660   4.259   1.240   1.520  0.1709 -0.7897 -0.6728
   29MOL    H8523661   4.259   1.158   1.668 -1.0785  0.5538  1.1852
   29MOL    C8623662   5.004   0.426   0.632 -0.5133 -0.3065  0.1089
   29MOL    C8723663   5.136   0.510   0.595 -0.1441  0.6479 -0.6039
   29MOL    C8823664   5.153   0.536   0.447  0.0970 -0.3264  0.5608
   29MOL    C8923665   5.054   0.631   0.389 -0.3339  0.5753 -0.0855
   29MOL    C9023666   5.125   0.721   0.291  0.3182  0.3790 -0.0468
   29MOL    C9123667   5.195   0.656   0.171  0.4971 -0.3521  0.0224
   29MOL    C9223668   5.338   0.697   0.149 -1.1819 -0.3061 -1.2739
   29MOL    C9323669   5.408   0.661   0.018 -0.4545  0.4301 -0.2108
   29MOL    C9423670   5.556   0.686   0.030  0.4082 -0.5170  0.4351
   29MOL    C9523671   5.639   0.621   7.607 -0.1181  0.1798 -0.5670
   29MOL    C9623672   5.791   0.647   7.624 -0.3563 -0.3492 -0.3230
   29MOL    C9723673   5.867   0.648   7.487  0.2565 -0.0971  0.2870
   29MOL    C9823674   6.020   0.659   7.490  0.0320  0.0297  0.4027
   29MOL    C9923675   6.087   0.642   7.350  0.2391  0.5027 -0.1869
   29MOL   H10023676   5.036   0.322   0.636 -2.0248 -0.8228 -0.7517
   29MOL   H10123677   4.925   0.430   0.557  0.4082 -1.7154 -0.9694
   29MOL   H10223678   5.135   0.605   0.647  3.5827 -0.5157  1.7775
   29MOL   H10323679   5.252   0.576   0.423 -0.4755 -0.3068 -1.9262
   29MOL   H10423680   5.140   0.441   0.395  0.9430 -0.5506  0.7462
   29MOL   H10523681   4.980   0.587   0.323 -0.4056  0.1936  0.2440
   29MOL   H10623682   4.998   0.684   0.466 -2.2162 -0.3580 -0.7739
   29MOL   H10723683   5.197   0.782   0.345 -0.2097  2.4184 -1.5874
   29MOL   H10823684   5.056   0.792   0.245  2.0124  2.5387  0.6353
   29MOL   H10923685   5.146   0.687   0.078  0.7629  0.2482  0.0822
   29MOL   H11023686   5.189   0.547   0.184 -0.9309 -0.3822 -0.7423
   29MOL   H11123687   5.322   0.805   0.154 -1.4761 -0.4083  0.4690
   29MOL   H11223688   5.405   0.682   0.234  1.5158  2.1015 -2.8772
   29MOL   H11323689   5.360   0.727   7.640  1.6969  0.1726 -1.8865
   29MOL   H11423690   5.388   0.557   7.687 -3.0920  1.0370 -0.7587
   29MOL   H11523691   5.572   0.793   0.028 -1.3626 -0.2480  0.6374
   29MOL   H11623692   5.598   0.655   0.126 -1.4935 -0.9808  1.1381
   29MOL   H11723693   5.617   0.668   7.511  0.3752  1.1117 -0.2314
   29MOL   H11823694   5.621   0.514   7.598 -1.0912 -0.0951  3.4981
   29MOL   H11923695   5.821   0.733   7.683  2.9004 -1.6402  0.0503
   29MOL   H12023696   5.835   0.572   7.689 -0.6870  0.2010  0.5434
   29MOL   H12123697   5.821   0.573   7.422 -0.1745 -0.3067  0.8329
   29MOL   H12223698   5.845   0.742   7.438 -0.6508 -0.4671 -0.0327
   29MOL   H12323699   6.060   0.581   7.555  0.9325 -0.3774 -0.6181
   29MOL   H12423700   6.053   0.757   7.525 -0.8722  0.7929 -0.8235
   29MOL   H12523701   6.060   0.546   7.305  1.4582 -0.0065  0.1446
   29MOL   H12623702   6.056   0.724   7.285 -2.5870 -1.0491 -0.9146
   29MOL   H12723703   6.195   0.640   7.356  0.1623 -2.1844  1.2398
   29MOL   C12823704   5.253   0.436   0.666 -0.9653  1.2174 -0.1042
   29MOL   C12923705   5.376   0.512   0.700 -0.2968 -0.3966  0.2919
   29MOL   C13023706   5.353   0.622   0.806 -0.0342 -1.0572 -0.4945
   29MOL   C13123707   5.333   0.579   0.956 -0.0045 -0.3344  0.0804
   29MOL   C13223708   5.358   0.698   1.053 -0.3483  0.6393 -0.1716
   29MOL   C13323709   5.312   0.678   1.202  0.7004  0.6705 -0.3129
   29MOL   C13423710   5.166   0.658   1.230 -0.4182  0.3437  0.3366
   29MOL   C13523711   5.148   0.608   1.377  0.3821  0.6593  0.0834
   29MOL   C13623712   5.012   0.653   1.443  0.2394 -0.5009 -0.1304
   29MOL   C13723713   4.989   0.584   1.576  0.3064  0.2746  0.0542
   29MOL   C13823714   4.854   0.609   1.638  0.3991  0.7117 -0.0211
   29MOL   C13923715   4.868   0.687   1.772 -0.0218 -0.1170  0.0059
   29MOL   C14023716   4.738   0.724   1.843 -0.5933 -0.7559 -0.0044
   29MOL   C14123717   4.758   0.791   1.982 -0.0684  0.5787  0.0940
   29MOL   H14223718   5.213   0.400   0.761 -1.9310  3.5782  0.4226
   29MOL   H14323719   5.278   0.348   0.607  2.9583  0.3958  2.5817
   29MOL   H14423720   5.397   0.568   0.608  0.6638 -0.8520  0.2277
   29MOL   H14523721   5.437   0.692   0.808 -1.2868  0.4967 -0.3920
   29MOL   H14623722   5.258   0.675   0.790  0.5940  0.0056 -0.7700
   29MOL   H14723723   5.237   0.530   0.972  0.6566 -1.8795 -0.5216
   29MOL   H14823724   5.396   0.493   0.981  0.7971  0.3840  0.5214
   29MOL   H14923725   5.462   0.728   1.046  0.0959 -1.0824 -1.0834
   29MOL   H15023726   5.298   0.780   1.012 -2.1877 -1.6569 -2.2100
   29MOL   H15123727   5.362   0.587   1.234 -1.1772 -1.4162 -3.1424
   29MOL   H15223728   5.351   0.759   1.264 -1.1592  1.5780 -0.3069
   29MOL   H15323729   5.116   0.754   1.225  1.3300  1.1895 -2.2802
   29MOL   H15423730   5.108   0.610   1.151 -0.1745  0.4777  0.0735
   29MOL   H15523731   5.152   0.499   1.379 -0.7268  0.5549 -1.9333
   29MOL   H15623732   5.226   0.649   1.441  0.2262 -1.0366  1.4023
   29MOL   H15723733   5.013   0.761   1.455  1.0224 -0.5222  0.0496
   29MOL   H15823734   4.930   0.625   1.378  1.1484 -1.1804 -1.0064
   29MOL   H15923735   5.062   0.613   1.652 -1.1779 -0.1936  1.6937
   29MOL   H16023736   5.010   0.477   1.565  0.3264  0.1949  0.8450
   29MOL   H16123737   4.785   0.652   1.565  1.3860  1.5608 -0.4589
   29MOL   H16223738   4.802   0.514   1.653  2.4022 -0.4598 -0.2697
   29MOL   H16323739   4.921   0.629   1.848 -3.4243 -0.4591  2.2151
   29MOL   H16423740   4.926   0.777   1.754 -0.7247 -0.3274 -3.8534
   29MOL   H16523741   4.687   0.792   1.775  1.3954  0.5052 -0.2548
   29MOL   H16623742   4.669   0.640   1.855 -0.8484 -0.3259  1.6100
   29MOL   H16723743   4.832   0.870   1.989  0.5611  0.2937 -2.6127
   29MOL   H16823744   4.669   0.845   2.013 -0.8126 -1.1752  1.1204
   29MOL   H16923745   4.786   0.710   2.050 -0.1168 -0.1737 -0.7644
   29MOL   C17023746   5.490   0.415   0.735 -0.6068 -0.6324  0.8610
   29MOL   C17123747   5.629   0.467   0.766  0.0185  0.6329 -0.5530
   29MOL   C17223748   5.722   0.355   0.801 -0.2934  0.6383 -0.9438
   29MOL   C17323749   5.694   0.264   0.930  0.4258  0.2664  0.9082
   29MOL   C17423750   5.697   0.348   1.065 -0.6497  0.0782  0.0639
   29MOL   C17523751   5.825   0.433   1.088 -0.2327  0.5594 -0.6135
   29MOL   C17623752   5.840   0.487   1.226 -0.2877  0.1020 -0.7018
   29MOL   C17723753   5.728   0.578   1.266 -0.1756  0.8287  0.8910
   29MOL   C17823754   5.761   0.656   1.388 -0.3655  0.2703 -0.1939
   29MOL   C17923755   5.648   0.736   1.454 -0.1455 -0.2961  0.1713
   29MOL   C18023756   5.666   0.773   1.605  0.8481 -0.4330 -0.0180
   29MOL   C18123757   5.552   0.863   1.639  0.3387 -0.1902 -0.1152
   29MOL   C18223758   5.552   0.891   1.788 -0.7112 -0.1753  0.8381
   29MOL   C18323759   5.447   0.827   1.870 -0.2174  0.3147 -0.2020
   29MOL   H18423760   5.494   0.331   0.665  2.3902  0.2894 -0.1388
   29MOL   H18523761   5.449   0.370   0.825 -2.1719 -0.9246  0.0211
   29MOL   H18623762   5.609   0.538   0.847  0.6751  0.8487 -0.5821
   29MOL   H18723763   5.728   0.286   0.717  3.2333 -1.3752  0.8496
   29MOL   H18823764   5.821   0.397   0.816  0.6913 -1.7906 -0.5013
   29MOL   H18923765   5.593   0.226   0.921  0.4013  1.0482 -2.7502
   29MOL   H19023766   5.757   0.175   0.938 -1.5890 -1.1935  0.7268
   29MOL   H19123767   5.610   0.412   1.082  0.7514  2.2755 -0.7400
   29MOL   H19223768   5.683   0.273   1.143  2.2660 -1.4080 -0.7896
   29MOL   H19323769   5.831   0.528   1.035  3.8464  1.1945  0.7729
   29MOL   H19423770   5.912   0.372   1.066  0.7950  2.3443 -1.5630
   29MOL   H19523771   5.935   0.540   1.228  0.0562 -0.4605 -1.6893
   29MOL   H19623772   5.854   0.402   1.292  2.7820  2.3358  1.6601
   29MOL   H19723773   5.641   0.515   1.287 -0.8689  1.8945  1.2871
   29MOL   H19823774   5.694   0.644   1.187  2.5136  1.1512 -0.0241
   29MOL   H19923775   5.850   0.717   1.377 -0.1091 -0.0456  0.1119
   29MOL   H20023776   5.794   0.584   1.463  3.1710  1.6663 -0.3013
   29MOL   H20123777   5.562   0.669   1.448 -0.1974 -0.3019  0.9262
   29MOL   H20223778   5.623   0.818   1.387 -3.6602 -1.9944 -0.7123
   29MOL   H20323779   5.761   0.823   1.623 -0.3273  2.1968 -0.9413
   29MOL   H20423780   5.651   0.679   1.659 -0.1698  1.3185  2.8345
   29MOL   H20523781   5.560   0.956   1.583 -1.8790 -1.0780 -1.9987
   29MOL   H20623782   5.452   0.831   1.609  1.5161 -1.2145 -3.2262
   29MOL   H20723783   5.650   0.859   1.825  0.2747 -2.0362 -3.1741
   29MOL   H20823784   5.539   0.999   1.788  0.7404  0.0735 -2.7224
   29MOL   H20923785   5.454   0.718   1.862 -0.3176  0.1726  1.4725
   29MOL   H21023786   5.349   0.849   1.827  0.6518  0.5668 -2.0925
   29MOL   H21123787   5.461   0.855   1.974 -0.2032  1.5989 -0.5373
   29MOL   C21223788   5.674   0.554   0.638  0.5720 -0.4570 -1.1759
   29MOL   C21323789   5.820   0.611   0.647 -0.3928 -0.0039 -0.0526
   29MOL   C21423790   5.928   0.528   0.568  0.6259 -0.2257  0.2155
   29MOL   C21523791   6.072   0.555   0.613  0.0148 -0.0652 -0.3798
   29MOL   C21623792   6.101   0.497   0.748 -0.4370 -0.4313 -0.1825
   29MOL   C21723793   6.245   0.491   0.796 -0.0499  0.2658 -1.2402
   29MOL   C21823794   6.263   0.429   0.932 -0.2683  0.2767  0.1387
   29MOL   C21923795   6.407   0.390   0.961 -0.0184 -0.3505  0.3420
   29MOL   C22023796   6.409   0.276   1.071  0.4270  0.0142 -0.2357
   29MOL   C22123797   6.550   0.212   1.083 -0.1545 -0.7382 -0.5592
   29MOL   C22223798   6.563   0.124   1.207 -0.0631 -0.3438 -0.3699
   29MOL   C22323799   6.583   0.203   1.334 -0.6610  0.0709 -0.2717
   29MOL   C22423800   6.585   0.123   1.461 -0.9916 -0.4492 -0.1072
   29MOL   C22523801   6.460   0.046   1.496 -0.0547 -0.1624  0.2173
   29MOL   H22623802   5.603   0.636   0.631 -0.5471 -1.3708 -0.7426
   29MOL   H22723803   5.665   0.494   0.548  1.4340 -0.0939 -1.5013
   29MOL   H22823804   5.855   0.610   0.751  2.6906 -2.0649 -1.0478
   29MOL   H22923805   5.897   0.424   0.573 -1.0436  0.1205 -1.8830
   29MOL   H23023806   5.919   0.541   0.460  0.7884  2.0698  0.4568
   29MOL   H23123807   6.092   0.662   0.614  0.8935 -0.2192 -0.9068
   29MOL   H23223808   6.130   0.514   0.530  1.3548  1.7878 -0.3672
   29MOL   H23323809   6.058   0.398   0.738 -0.6438 -0.6166  2.3362
   29MOL   H23423810   6.036   0.551   0.816 -0.3621 -1.8771  1.0519
   29MOL   H23523811   6.293   0.588   0.807 -0.8108  0.4282  1.0826
   29MOL   H23623812   6.304   0.447   0.716  0.0874 -0.8249 -0.5548
   29MOL   H23723813   6.225   0.499   1.007 -1.0727  0.9346 -0.8635
   29MOL   H23823814   6.198   0.342   0.935  0.1733 -0.1047 -1.2178
   29MOL   H23923815   6.458   0.356   0.871 -0.5476  1.4152 -0.6711
   29MOL   H24023816   6.479   0.468   0.986 -0.6467 -0.3724  2.2969
   29MOL   H24123817   6.328   0.204   1.065  0.4460 -0.0554  0.3160
   29MOL   H24223818   6.381   0.319   1.167  0.2126 -2.6023  0.9053
   29MOL   H24323819   6.570   0.155   0.992 -0.3003  0.8707 -1.6134
   29MOL   H24423820   6.627   0.288   1.089 -0.0888 -0.8796  0.5437
   29MOL   H24523821   6.650   0.058   1.197  0.9902  0.2819  3.7017
   29MOL   H24623822   6.482   0.051   1.217  1.7121 -2.3527 -0.1107
   29MOL   H24723823   6.497   0.264   1.360 -1.0784 -1.4253  1.9175
   29MOL   H24823824   6.675   0.263   1.334 -0.7014  0.1891  3.0322
   29MOL   H24923825   6.613   0.187   1.544  0.3959 -2.3954  0.9828
   29MOL   H25023826   6.665   0.050   1.449  0.7537  1.7659 -2.3768
   29MOL   H25123827   6.372   0.104   1.523 -0.6709 -0.9394 -0.1050
   29MOL   H25223828   6.430   7.664   1.426 -0.8737  1.1480 -0.8931
   29MOL   H25323829   6.480   0.000   1.594 -1.8211  1.0801  1.1836
   29MOL   C25423830   5.817   0.758   0.600 -0.9621  0.4297  0.1917
   29MOL   C25523831   5.759   0.866   0.699  0.7882 -0.0645 -0.4002
   29MOL   C25623832   5.868   0.894   0.807  0.1987 -0.0395 -0.1887
   29MOL   C25723833   5.807   0.918   0.949  0.2065  0.0104 -0.6146
   29MOL   C25823834   5.917   0.905   1.055 -0.2118  0.1210  0.1132
   29MOL   C25923835   5.878   0.973   1.186  0.0666  1.3049 -0.2137
   29MOL   C26023836   5.989   0.962   1.293  0.9305 -0.1484 -0.1002
   29MOL   C26123837   5.945   0.993   1.443 -0.6702 -0.2001 -0.1398
   29MOL   C26223838   6.051   0.951   1.543 -0.3101 -0.2054 -0.2147
   29MOL   C26323839   6.014   0.997   1.684 -0.3359  0.4188  0.2115
   29MOL   C26423840   6.128   0.998   1.784  0.0499  0.2053  0.1366
   29MOL   C26523841   6.114   1.027   1.933  0.3876 -0.1808  0.7545
   29MOL   C26623842   6.235   0.970   2.015  0.5510 -0.0840  0.4394
   29MOL   C26723843   6.203   0.977   2.167 -0.1614  0.2244  0.9159
   29MOL   H26823844   5.758   0.770   0.508  0.8282 -1.3658 -1.2444
   29MOL   H26923845   5.920   0.782   0.574 -0.9571 -1.4327 -1.6729
   29MOL   H27023846   5.670   0.827   0.748  0.3527 -0.3967 -1.4408
   29MOL   H27123847   5.931   0.979   0.782 -0.5017  0.0775 -1.6310
   29MOL   H27223848   5.930   0.805   0.811  0.0823 -0.0585  1.6822
   29MOL   H27323849   5.723   0.856   0.980 -0.3715  2.4651  3.1042
   29MOL   H27423850   5.763   1.017   0.943  1.2044  0.3923 -1.8306
   29MOL   H27523851   6.009   0.946   1.014 -0.7852  1.0505 -0.2586
   29MOL   H27623852   5.946   0.801   1.071 -1.0237 -0.3046 -1.1474
   29MOL   H27723853   5.787   0.923   1.218  0.2342 -1.5475 -3.9072
   29MOL   H27823854   5.850   1.079   1.184 -3.4365  0.4597 -0.0311
   29MOL   H27923855   6.008   0.855   1.293  3.4264  0.2701 -0.1168
   29MOL   H28023856   6.080   1.014   1.264 -0.1626  0.3572 -2.7825
   29MOL   H28123857   5.842   0.968   1.468 -0.1891 -1.6955  0.4059
   29MOL   H28223858   5.953   1.101   1.447  0.6348 -0.3180  0.8450
   29MOL   H28323859   6.075   0.844   1.537 -1.5300 -0.3445 -3.1940
   29MOL   H28423860   6.140   0.995   1.498 -0.4391  0.9985  0.7027
   29MOL   H28523861   5.924   0.947   1.721  0.2185 -0.9282 -0.2345
   29MOL   H28623862   5.985   1.101   1.671 -1.3231 -0.1022 -1.9106
   29MOL   H28723863   6.212   1.060   1.752 -1.3403  1.2910 -1.4666
   29MOL   H28823864   6.172   0.899   1.774 -1.4072 -0.3060 -1.4053
   29MOL   H28923865   6.105   1.133   1.955  2.0139  0.3941 -1.1428
   29MOL   H29023866   6.020   0.979   1.959  0.1000  0.1686  0.3729
   29MOL   H29123867   6.266   0.868   1.992 -1.9655  0.0117 -4.2207
   29MOL   H29223868   6.328   1.026   2.000  1.1318 -0.6372  1.8952
   29MOL   H29323869   6.249   0.898   2.225 -0.3787 -0.2075  0.4978
   29MOL   H29423870   6.099   0.949   2.183 -1.2853  1.9784 -2.6933
   29MOL   H29523871   6.208   1.079   2.206 -1.8066  0.3428  0.8676
   29MOL   C29623872   5.727   0.999   0.635 -0.0937 -0.2292 -0.0261
   29MOL   C29723873   5.593   1.014   0.541  0.2241  0.2741  0.1478
   29MOL   C29823874   5.604   0.981   0.397 -0.0883 -0.5531 -0.2576
   29MOL   C29923875   5.733   1.036   0.330  0.5504  0.0694  0.1823
   29MOL   C30023876   5.746   1.032   0.176 -0.4358  0.3794  0.2214
   29MOL   C30123877   5.891   1.061   0.125  0.4579 -0.5303 -0.0613
   29MOL   C30223878   5.909   1.058   7.671  0.2016  0.1838  0.0861
   29MOL   C30323879   5.831   1.155   7.585  0.4878 -0.4199 -0.1930
   29MOL   C30423880   5.878   1.170   7.445  0.3964  0.2472  0.3430
   29MOL   C30523881   5.992   1.267   7.429 -0.0763 -0.2963 -0.4291
   29MOL   C30623882   6.045   1.281   7.287 -0.5732  0.0300 -0.5874
   29MOL   C30723883   6.157   1.382   7.265  0.4880  0.2524  0.1841
   29MOL   C30823884   6.191   1.420   7.115 -0.5529 -0.2810  0.2694
   29MOL   C30923885   6.069   1.447   7.029  0.1484  0.5024  0.0693
   29MOL   H31023886   5.819   1.033   0.587  0.8287 -1.9373  0.5061
   29MOL   H31123887   5.708   1.066   0.718  0.1786  2.4565 -2.0552
   29MOL   H31223888   5.577   1.122   0.536  0.4735  0.2078 -2.1914
   29MOL   H31323889   5.518   1.021   0.344 -0.1407  1.1548  1.0982
   29MOL   H31423890   5.600   0.875   0.371 -1.4337 -0.9976  1.6787
   29MOL   H31523891   5.819   0.994   0.382 -0.0506  2.2333  3.0372
   29MOL   H31623892   5.737   1.140   0.363 -0.5818  0.3223 -0.4437
   29MOL   H31723893   5.713   0.934   0.140  0.9893  0.6080 -1.7794
   29MOL   H31823894   5.672   1.101   0.135  0.7105  0.5923 -1.5060
   29MOL   H31923895   5.956   0.986   0.170  1.1484 -0.3927 -0.8215
   29MOL   H32023896   5.925   1.157   0.163 -1.1792  0.7132 -1.6387
   29MOL   H32123897   6.018   1.058   7.660  0.2949 -0.9578  0.8479
   29MOL   H32223898   5.870   0.961   7.638  2.8537 -1.0184  0.2982
   29MOL   H32323899   5.831   1.256   7.627  0.8877 -0.2775 -0.5339
   29MOL   H32423900   5.726   1.127   7.590  0.6083 -0.5730  2.4849
   29MOL   H32523901   5.902   1.068   7.415  0.4091  0.1108  0.8208
   29MOL   H32623902   5.796   1.189   7.375  0.7893  0.3702 -0.0840
   29MOL   H32723903   6.067   1.237   7.502 -0.5069 -0.2882  0.0242
   29MOL   H32823904   5.964   1.363   7.472 -0.5875 -1.0758  1.0254
   29MOL   H32923905   5.954   1.295   7.229 -0.0658  0.2390 -1.3326
   29MOL   H33023906   6.087   1.185   7.258  0.6576  1.1203 -2.5389
   29MOL   H33123907   6.256   1.357   7.304  0.8813  0.7327 -0.5023
   29MOL   H33223908   6.134   1.472   7.323 -0.3169  1.0001 -1.2860
   29MOL   H33323909   6.254   1.336   7.084  0.5811  1.1488 -1.3117
   29MOL   H33423910   6.251   1.511   7.116  1.6544 -1.6618 -1.4686
   29MOL   H33523911   5.994   1.522   7.054 -0.1157 -0.4968  2.3880
   29MOL   H33623912   6.107   1.462   6.928 -0.6217  1.7967 -0.0428
   29MOL   H33723913   6.001   1.363   7.019  2.3272 -1.2742 -0.2249
   29MOL   C33823914   5.466   0.956   0.608  0.6662 -0.0612 -0.6547
   29MOL   C33923915   5.330   1.011   0.552 -0.3623 -0.1627  0.4825
   29MOL   C34023916   5.202   0.943   0.609  0.0341 -1.1773  0.3252
   29MOL   C34123917   5.179   0.976   0.757  0.0816 -0.2284 -0.1420
   29MOL   C34223918   5.063   0.914   0.820 -0.2196 -0.2687  0.8321
   29MOL   C34323919   5.024   0.988   0.953  0.0449  0.0550  0.4713
   29MOL   C34423920   4.900   0.934   1.029  0.8378 -0.5109 -0.1006
   29MOL   C34523921   4.889   1.005   1.161  1.1123 -0.1217 -0.1255
   29MOL   C34623922   4.766   0.954   1.245  0.0123 -0.8194  0.5965
   29MOL   C34723923   4.778   1.000   1.389 -0.4958  0.4251 -0.5612
   29MOL   C34823924   4.652   0.968   1.476 -0.6226  0.3659 -0.9803
   29MOL   C34923925   4.676   1.025   1.623  0.4475 -0.3954  0.8555
   29MOL   C35023926   4.547   1.013   1.696  0.0036  0.2629  0.5685
   29MOL   C35123927   4.558   1.064   1.836 -0.3136  0.2892  0.2432
   29MOL   H35223928   5.466   0.851   0.576  2.0181 -0.1663 -0.3229
   29MOL   H35323929   5.472   0.973   0.715 -1.0418  1.4070 -0.7689
   29MOL   H35423930   5.318   0.990   0.445 -3.4804 -2.0307  1.1159
   29MOL   H35523931   5.117   0.977   0.549  1.7502  1.1325 -0.8548
   29MOL   H35623932   5.214   0.835   0.601  0.8488 -0.9982 -0.9936
   29MOL   H35723933   5.168   1.084   0.773 -1.7640 -0.2534 -1.0549
   29MOL   H35823934   5.266   0.952   0.818  1.4683 -0.0592 -2.0114
   29MOL   H35923935   5.087   0.811   0.847 -0.7743 -0.1949  1.6170
   29MOL   H36023936   4.984   0.915   0.745  2.0859 -1.6889 -1.6783
   29MOL   H36123937   5.112   0.982   1.017  0.9168  0.1727 -0.7086
   29MOL   H36223938   5.006   1.094   0.939 -0.2050 -0.1476 -0.7942
   29MOL   H36323939   4.818   0.948   0.958  1.8387  0.8766 -0.9993
   29MOL   H36423940   4.913   0.828   1.053 -2.4938 -1.2710 -1.3051
   29MOL   H36523941   4.983   0.988   1.213  0.3474 -0.4469  1.1663
   29MOL   H36623942   4.885   1.113   1.148 -1.1116 -0.0190  1.1491
   29MOL   H36723943   4.674   0.993   1.202 -0.8038 -0.8406  2.2614
   29MOL   H36823944   4.751   0.846   1.236 -0.8053 -0.6149 -0.6083
   29MOL   H36923945   4.871   0.968   1.435 -0.6693  2.0099  0.9306
   29MOL   H37023946   4.793   1.108   1.394 -0.6832  0.7120 -4.2624
   29MOL   H37123947   4.642   0.860   1.472 -2.7278  0.4775  0.9452
   29MOL   H37223948   4.566   1.016   1.430 -1.5322  0.3976  0.7334
   29MOL   H37323949   4.719   1.124   1.611  0.4044 -0.6060 -1.3407
   29MOL   H37423950   4.754   0.970   1.677  0.8213 -0.4996  0.2207
   29MOL   H37523951   4.468   1.064   1.641  1.7605  1.2913 -1.0188
   29MOL   H37623952   4.510   0.911   1.713 -2.5926  0.9951 -0.3564
   29MOL   H37723953   4.657   1.047   1.878 -0.5509  1.5366  1.3447
   29MOL   H37823954   4.533   1.170   1.843  0.8715  0.5079  1.3472
   29MOL   H37923955   4.488   1.020   1.907  0.6430  1.1819  1.7682
   29MOL   C38023956   5.326   1.167   0.564 -0.7678 -0.1834  0.2719
   29MOL   C38123957   5.201   1.242   0.510 -0.0639  0.1731  0.5619
   29MOL   C38223958   5.212   1.393   0.546  0.4691  0.1123  0.1194
   29MOL   C38323959   5.109   1.433   0.657  0.3914 -0.2766 -0.3437
   29MOL   C38423960   5.120   1.370   0.797  0.0346  0.2810 -0.0656
   29MOL   C38523961   5.040   1.448   0.898 -0.4054  0.7290  0.3426
   29MOL   C38623962   5.028   1.372   1.030 -0.9149 -0.0069  0.3080
   29MOL   C38723963   5.010   1.484   1.142 -0.2648  0.8880 -0.6320
   29MOL   C38823964   4.994   1.414   1.283 -0.0364  0.2249 -0.0332
   29MOL   C38923965   4.956   1.517   1.392  0.6704  0.4723  0.3113
   29MOL   C39023966   4.921   1.447   1.529  0.7984  0.0098  0.1679
   29MOL   C39123967   4.868   1.535   1.652  0.1517  0.4753  0.5161
   29MOL   C39223968   4.930   1.669   1.705  0.0166  0.1674  0.1850
   29MOL   C39323969   5.077   1.642   1.750  0.1689  0.3245 -0.6254
   29MOL   H39423970   5.406   1.211   0.504 -2.6234  1.9237 -0.7261
   29MOL   H39523971   5.351   1.204   0.664  1.1432 -2.2669  0.6085
   29MOL   H39623972   5.124   1.197   0.572 -1.1570  1.3157  0.0737
   29MOL   H39723973   5.202   1.459   0.460 -2.0826 -0.6548 -0.1881
   29MOL   H39823974   5.311   1.423   0.581  0.2366  2.7756 -1.4100
   29MOL   H39923975   5.007   1.420   0.623  0.6893 -0.8069 -1.0395
   29MOL   H40023976   5.119   1.539   0.680  0.9149 -0.0634 -1.5222
   29MOL   H40123977   5.225   1.371   0.827  0.2951 -1.0457 -0.8937
   29MOL   H40223978   5.107   1.262   0.797  0.7156  0.1895  0.7185
   29MOL   H40323979   4.939   1.461   0.860  0.1326 -0.3731 -1.5321
   29MOL   H40423980   5.073   1.552   0.898 -0.5828  0.7876  0.8317
   29MOL   H40523981   4.949   1.297   1.031 -0.6857 -0.2450  1.1514
   29MOL   H40623982   5.122   1.325   1.059 -1.8630 -1.1639  1.5478
   29MOL   H40723983   5.087   1.561   1.134  1.4807 -0.5353  1.8482
   29MOL   H40823984   4.917   1.538   1.121  0.5724  2.6778  0.1286
   29MOL   H40923985   4.913   1.341   1.287 -2.2212  2.5431 -0.2384
   29MOL   H41023986   5.089   1.366   1.304 -0.3747 -0.4726 -0.0784
   29MOL   H41123987   4.871   1.582   1.373  1.4775  0.9584 -1.7731
   29MOL   H41223988   5.048   1.576   1.390  1.7951 -1.2962 -2.0090
   29MOL   H41323989   4.851   1.368   1.504 -1.8880  1.7294  2.0256
   29MOL   H41423990   5.014   1.405   1.568  0.2566 -0.3438  1.0968
   29MOL   H41523991   4.838   1.475   1.738  0.8767 -0.6348  0.0015
   29MOL   H41623992   4.773   1.571   1.614  0.2030 -0.5230 -0.5663
   29MOL   H41723993   4.927   1.747   1.629 -0.4999  1.9750  2.0349
   29MOL   H41823994   4.874   1.707   1.790  0.3896  0.2094  0.4149
   29MOL   H41923995   5.106   1.723   1.816 -0.7938  0.5714 -0.4884
   29MOL   H42023996   5.150   1.658   1.670  0.3776  0.0827 -0.4828
   29MOL   H42123997   5.096   1.550   1.804  0.0018  1.5996  1.6754
   29MOL   C42223998   5.159   1.212   0.361 -0.1170  0.0626 -1.2087
   29MOL   C42323999   5.036   1.295   0.309  0.5219  0.3951 -0.5866
   29MOL   C42424000   5.086   1.386   0.188  1.1585 -0.1693 -0.0869
   29MOL   C42524001   4.979   1.497   0.135 -0.1855  0.0414  0.4804
   29MOL   C42624002   4.922   1.594   0.240 -0.2646  0.4654  0.1809
   29MOL   C42724003   5.024   1.668   0.318 -0.5398  0.5631 -0.2286
   29MOL   C42824004   4.958   1.741   0.436  0.2872 -0.5712  0.4260
   29MOL   C42924005   5.056   1.843   0.488  0.2931  1.1141  0.6436
   29MOL   C43024006   5.032   1.892   0.629  0.2383 -0.8004 -0.3326
   29MOL   C43124007   5.140   1.991   0.678  0.5071  0.1271 -0.5732
   29MOL   C43224008   5.135   2.017   0.834 -0.1964 -0.8029 -0.2353
   29MOL   C43324009   5.260   2.103   0.879 -0.2255 -0.0749 -0.0783
   29MOL   C43424010   5.254   2.152   1.021  0.2479 -0.3838 -0.3965
   29MOL   C43524011   5.388   2.150   1.088  0.3952 -0.5455  0.6978
   29MOL   H43624012   5.147   1.104   0.351  0.4962 -0.1606  0.4163
   29MOL   H43724013   5.251   1.225   0.305  0.3323 -1.5518 -0.8663
   29MOL   H43824014   5.013   1.362   0.392  1.8486 -0.9142  0.8705
   29MOL   H43924015   5.137   1.331   0.109  0.3349  0.6532 -1.2025
   29MOL   H44024016   5.176   1.433   0.226  1.5327 -1.3176  0.4841
   29MOL   H44124017   5.029   1.562   0.062  0.6311 -0.1823  0.8329
   29MOL   H44224018   4.905   1.438   0.081  1.1136 -0.7789 -0.4476
   29MOL   H44324019   4.856   1.557   0.319 -0.1623 -0.4986 -0.1906
   29MOL   H44424020   4.866   1.677   0.195  2.9100  1.9896 -1.1012
   29MOL   H44524021   5.073   1.745   0.258 -0.3110  0.6977  0.1331
   29MOL   H44624022   5.101   1.597   0.347  0.7406  0.8256 -2.8693
   29MOL   H44724023   4.861   1.783   0.408  0.4738  0.1861  0.9122
   29MOL   H44824024   4.943   1.671   0.518 -2.3162  1.3560  1.6614
   29MOL   H44924025   5.157   1.801   0.480 -0.2354  0.2652 -2.1324
   29MOL   H45024026   5.077   1.933   0.432  0.4136  0.3781 -0.5118
   29MOL   H45124027   4.934   1.938   0.640  0.6673 -0.4765  2.2879
   29MOL   H45224028   5.041   1.806   0.696  0.3279 -1.4345 -1.1471
   29MOL   H45324029   5.233   1.944   0.644 -0.5460 -0.9438 -2.0705
   29MOL   H45424030   5.121   2.081   0.620  2.0732  0.9151  0.1063
   29MOL   H45524031   5.050   2.079   0.862 -0.3076 -0.9373 -0.2754
   29MOL   H45624032   5.118   1.927   0.893 -1.9050 -1.9270 -2.3812
   29MOL   H45724033   5.283   2.186   0.812 -1.6972 -0.0445 -0.5788
   29MOL   H45824034   5.351   2.045   0.870  1.1581  2.1233 -0.7883
   29MOL   H45924035   5.218   2.255   1.011  0.2771 -0.2439  0.8710
   29MOL   H46024036   5.174   2.102   1.076 -0.4904  1.6589  0.4542
   29MOL   H46124037   5.382   2.194   1.187  1.7401  3.2252 -0.7819
   29MOL   H46224038   5.470   2.193   1.030  0.5192  0.3128  1.4997
   29MOL   H46324039   5.415   2.047   1.108 -1.5406 -0.7976  2.0405
   29MOL   C46424040   4.909   1.204   0.295  0.2084 -0.2072 -0.5780
   29MOL   C46524041   4.858   1.137   0.421  0.6110  0.0033 -0.4560
   29MOL   C46624042   4.750   1.227   0.496  0.2298  0.2261  0.0482
   29MOL   C46724043   4.758   1.174   0.649 -0.5460  0.5334  0.4492
   29MOL   C46824044   4.656   1.239   0.735  0.9967  0.7087 -0.2683
   29MOL   C46924045   4.687   1.226   0.886  0.7486  0.0983 -0.3830
   29MOL   C47024046   4.594   1.313   0.973  0.1529 -0.7739  0.1341
   29MOL   C47124047   4.628   1.298   1.120  0.3320 -0.1992  0.2849
   29MOL   C47224048   4.554   1.407   1.192 -0.6757  0.2702  0.5317
   29MOL   C47324049   4.562   1.384   1.344 -0.4298  0.0730  0.0209
   29MOL   C47424050   4.497   1.493   1.428 -0.4404 -0.0387 -0.3386
   29MOL   C47524051   4.509   1.443   1.572 -0.5891 -0.5311 -0.1164
   29MOL   C47624052   4.425   1.520   1.666  0.3514 -0.1555  0.0043
   29MOL   C47724053   4.412   1.455   1.800 -0.4580 -0.0807 -0.0874
   29MOL   H47824054   4.943   1.130   0.222  0.4121 -0.8176  0.1306
   29MOL   H47924055   4.826   1.249   0.242  0.6696 -1.1336 -2.1429
   29MOL   H48024056   4.942   1.133   0.490  0.3758  0.0746 -0.1615
   29MOL   H48124057   4.781   1.331   0.488  0.2577  0.1270 -1.1046
   29MOL   H48224058   4.649   1.205   0.463 -0.3450  1.5924  0.8654
   29MOL   H48324059   4.854   1.203   0.695 -0.5191  0.0999  0.6656
   29MOL   H48424060   4.745   1.066   0.652 -0.6544  0.4702 -2.0371
   29MOL   H48524061   4.555   1.201   0.721  1.0885  0.5991 -0.6315
   29MOL   H48624062   4.654   1.345   0.712 -1.2342  0.4935 -1.2223
   29MOL   H48724063   4.682   1.120   0.911  3.1348  0.0681  0.0221
   29MOL   H48824064   4.785   1.260   0.919 -0.0128  1.3500  0.6693
   29MOL   H48924065   4.599   1.415   0.936 -0.0825  0.3699  3.1233
   29MOL   H49024066   4.494   1.284   0.942 -0.4976  2.5003 -0.9762
   29MOL   H49124067   4.613   1.195   1.150  0.0549  0.0760  1.0836
   29MOL   H49224068   4.733   1.325   1.130  0.3951 -0.0727 -0.6737
   29MOL   H49324069   4.601   1.504   1.174  0.8666 -0.0330  2.7182
   29MOL   H49424070   4.455   1.414   1.146 -0.1303  2.3966 -0.3704
   29MOL   H49524071   4.504   1.296   1.372 -2.6607  1.4761 -0.0737
   29MOL   H49624072   4.668   1.368   1.367 -0.2694 -0.0779 -0.8257
   29MOL   H49724073   4.552   1.587   1.420  1.5848 -1.0659  1.0106
   29MOL   H49824074   4.390   1.504   1.408 -0.4400 -0.0251 -0.3332
   29MOL   H49924075   4.610   1.450   1.612 -0.9967  0.1484  0.8097
   29MOL   H50024076   4.481   1.338   1.583 -0.5987 -0.7980 -2.4403
   29MOL   H50124077   4.468   1.620   1.676  0.6105 -0.2688  0.0191
   29MOL   H50224078   4.326   1.519   1.619  0.5607 -0.7863 -0.4307
   29MOL   H50324079   4.514   1.456   1.838 -0.3320  0.9768 -0.4386
   29MOL   H50424080   4.365   1.515   1.878 -0.7103  0.7567 -0.8816
   29MOL   H50524081   4.363   1.357   1.799  1.6199 -1.1385 -0.7753
   29MOL   C50624082   4.818   0.986   0.397 -0.3271 -0.5976  0.0316
   29MOL   C50724083   4.699   0.954   0.309 -0.4174 -0.0425  0.0480
   29MOL   C50824084   4.739   0.843   0.213 -0.8304 -0.1326  0.0501
   29MOL   C50924085   4.834   0.893   0.104  0.3307  0.1353  0.5515
   29MOL   C51024086   4.861   0.779   0.004 -0.3102 -0.6074 -0.0123
   29MOL   C51124087   4.921   0.829   7.570 -1.1559 -0.1132 -0.4179
   29MOL   C51224088   5.047   0.911   7.580 -0.2169  0.1744 -0.3263
   29MOL   C51324089   5.132   0.919   7.442 -0.4545  0.3821  0.2565
   29MOL   C51424090   5.259   1.002   7.459  0.4624  0.3413 -0.0677
   29MOL   C51524091   5.220   1.142   7.497 -0.2442 -0.1211 -0.3263
   29MOL   C51624092   5.327   1.245   7.503 -0.6243  0.3169  0.1442
   29MOL   C51724093   5.405   1.265   7.373 -1.3559 -0.0881  0.5195
   29MOL   C51824094   5.521   1.362   7.398  0.2522  0.1886 -0.0809
   29MOL   C51924095   5.468   1.498   7.452  0.1045 -0.2588  0.2557
   29MOL   H52024096   4.811   0.932   0.492 -0.1926 -1.7946 -0.6192
   29MOL   H52124097   4.910   0.944   0.357  0.9436  3.3261 -1.3507
   29MOL   H52224098   4.687   1.041   0.245  0.1562  0.4568  0.6088
   29MOL   H52324099   4.774   0.755   0.267 -2.8396 -1.4335 -0.7009
   29MOL   H52424100   4.652   0.806   0.159 -1.5635  1.2688  0.2475
   29MOL   H52524101   4.782   0.978   0.061  0.2198  0.2493  0.9106
   29MOL   H52624102   4.930   0.924   0.147  0.0029  0.2284  1.2332
   29MOL   H52724103   4.762   0.745   7.670 -0.9310  1.9752 -1.0692
   29MOL   H52824104   4.915   0.699   0.053  0.2355 -0.3269 -0.1479
   29MOL   H52924105   4.846   0.880   7.509  0.2891  0.2551 -1.9102
   29MOL   H53024106   4.953   0.742   7.513 -3.2031 -0.8779 -0.4477
   29MOL   H53124107   5.005   1.004   7.619  0.3768 -0.1750  1.1785
   29MOL   H53224108   5.110   0.880   7.664 -0.1566  1.0285 -0.0420
   29MOL   H53324109   5.058   0.958   7.372  1.0101  0.4201 -1.3057
   29MOL   H53424110   5.166   0.825   7.399 -0.6274  0.2776  0.3505
   29MOL   H53524111   5.285   1.005   7.354 -0.1831 -1.1716 -0.2813
   29MOL   H53624112   5.332   0.945   7.516 -1.3288 -1.1162  0.8637
   29MOL   H53724113   5.146   1.183   7.429 -1.0151 -2.7929 -1.1322
   29MOL   H53824114   5.174   1.143   7.596 -1.7445 -1.6411 -0.9919
   29MOL   H53924115   5.286   1.339   7.540  0.0331  0.6133  0.1258
   29MOL   H54024116   5.396   1.208   7.579 -0.9911 -1.6688 -0.4458
   29MOL   H54124117   5.351   1.312   7.291 -0.0581 -0.4544 -0.5489
   29MOL   H54224118   5.460   1.181   7.332  0.8524  1.4077  0.3269
   29MOL   H54324119   5.577   1.380   7.307 -0.2213 -0.0901 -0.4298
   29MOL   H54424120   5.593   1.323   7.469 -0.1419 -0.4811 -0.0512
   29MOL   H54524121   5.389   1.534   7.386  1.6672 -0.5153 -1.7652
   29MOL   H54624122   5.438   1.493   7.557 -1.2815  0.6058 -0.0898
   29MOL   H54724123   5.555   1.563   7.446 -1.2242  1.3658 -2.0870
   29MOL   C54824124   4.569   0.931   0.386 -0.2977  0.0992  0.5408
   29MOL   C54924125   4.436   0.935   0.314 -0.9965  0.4890  0.3037
   29MOL   C55024126   4.329   0.904   0.413  0.1167 -0.2490 -0.0749
   29MOL   C55124127   4.328   0.749   0.459 -0.6148 -0.0263 -0.4340
   29MOL   C55224128   4.242   0.723   0.577  0.3949 -0.9249 -0.4075
   29MOL   C55324129   4.238   0.569   0.609  0.4638  0.1098  0.0922
   29MOL   C55424130   4.121   0.519   0.694  0.2249  0.1460 -0.5641
   29MOL   C55524131   4.118   0.364   0.710  0.4616  0.4919  0.2577
   29MOL   C55624132   3.995   0.315   0.788 -0.0921 -0.0251  0.2524
   29MOL   C55724133   3.984   0.165   0.812  0.6745 -0.4712 -0.3163
   29MOL   C55824134   3.844   0.127   0.853 -0.4576  0.0610 -0.2785
   29MOL   C55924135   3.830   7.678   0.875 -0.3356  0.3292 -0.2645
   29MOL   C56024136   3.857   7.637   1.017 -0.2027 -0.6538  0.2621
   29MOL   C56124137   3.734   7.651   1.101  0.3566 -0.3554 -0.5898
   29MOL   H56224138   4.589   0.832   0.426 -1.4657  0.3460  1.7451
   29MOL   H56324139   4.560   1.002   0.468  0.2839 -1.9708  2.4490
   29MOL   H56424140   4.436   0.856   0.239 -1.4993  0.3683  0.4286
   29MOL   H56524141   4.338   0.967   0.501  0.1663  1.7700 -1.5034
   29MOL   H56624142   4.227   0.925   0.383  0.0722  1.2036  1.0764
   29MOL   H56724143   4.425   0.712   0.492  0.0554  2.2532  0.2837
   29MOL   H56824144   4.295   0.696   0.370 -0.4512 -1.2061  0.2036
   29MOL   H56924145   4.291   0.770   0.663 -1.1737  0.7746 -0.4192
   29MOL   H57024146   4.149   0.779   0.571  0.1319 -1.3190 -0.0510
   29MOL   H57124147   4.337   0.536   0.641  0.5763  1.3690  1.0711
   29MOL   H57224148   4.230   0.518   0.513  0.0895  1.5147 -0.6407
   29MOL   H57324149   4.130   0.558   0.795  2.1844  0.9909 -1.0359
   29MOL   H57424150   4.034   0.562   0.644  0.0189 -1.5203 -1.6808
   29MOL   H57524151   4.210   0.326   0.755  0.8803 -1.6134 -2.2424
   29MOL   H57624152   4.112   0.315   0.613 -2.0206 -0.8304  1.0425
   29MOL   H57724153   3.912   0.352   0.727  0.4098  1.7751  0.6288
   29MOL   H57824154   3.994   0.369   0.883 -1.1989 -0.0239  0.2473
   29MOL   H57924155   4.009   0.117   0.717 -1.2357 -0.2736 -0.9516
   29MOL   H58024156   4.056   0.139   0.889 -0.2637 -0.7842  0.4594
   29MOL   H58124157   3.785   0.167   0.770  0.1475  0.6141 -0.4395
   29MOL   H58224158   3.820   0.185   0.943  1.1734 -1.4337  1.1478
   29MOL   H58324159   3.739   7.634   0.836 -0.6716  2.0421 -1.4722
   29MOL   H58424160   3.910   7.625   0.822  0.4383  1.6110 -0.4236
   29MOL   H58524161   3.882   7.531   1.013 -1.5576 -0.9388 -0.7634
   29MOL   H58624162   3.945   7.682   1.064  0.1966  1.2753 -2.1996
   29MOL   H58724163   3.705   0.059   1.123  2.0299  0.7365 -3.3376
   29MOL   H58824164   3.644   7.602   1.064  0.0282  0.9514 -1.5478
   29MOL   H58924165   3.760   7.606   1.197  1.7928  3.2951  0.8426
   29MOL   C59024166   4.403   1.072   0.245  0.6068 -0.0753  0.4713
   29MOL   C59124167   4.432   1.078   0.093 -0.2480 -0.6316 -0.1510
   29MOL   C59224168   4.323   0.984   0.028  0.5763 -0.7702  0.2292
   29MOL   C59324169   4.340   0.960   7.577 -0.1895 -0.0253  0.1345
   29MOL   C59424170   4.478   0.898   7.544 -0.1916  0.7383  0.8706
   29MOL   C59524171   4.469   0.821   7.409 -0.0844  0.0330 -0.2422
   29MOL   C59624172   4.609   0.797   7.350 -0.2370  0.2324 -0.4488
   29MOL   C59724173   4.619   0.766   7.196 -0.5938  0.3084 -0.4987
   29MOL   C59824174   4.735   0.672   7.169 -0.6245  0.2003  0.0511
   29MOL   C59924175   4.702   0.521   7.180 -0.1408  0.1509  0.0310
   29MOL   C60024176   4.813   0.424   7.156 -0.3071  0.5000 -0.3874
   29MOL   C60124177   4.782   0.278   7.179 -0.6961  0.1033 -0.2940
   29MOL   C60224178   4.899   0.185   7.198  0.3395 -0.8693 -0.0070
   29MOL   C60324179   4.988   0.176   7.072  0.8996 -0.5094 -0.6932
   29MOL   H60424180   4.455   1.159   0.286 -0.4365  2.0165 -2.4169
   29MOL   H60524181   4.297   1.092   0.255  0.0941 -0.3479 -3.4531
   29MOL   H60624182   4.533   1.041   0.077 -0.7987 -2.0279 -0.5001
   29MOL   H60724183   4.229   1.035   0.047  1.4096  0.3819  1.3263
   29MOL   H60824184   4.311   0.885   0.072  0.9199 -0.3072  1.3821
   29MOL   H60924185   4.321   1.050   7.519  2.3157  0.8679  0.6306
   29MOL   H61024186   4.259   0.891   7.554 -0.3802  0.6020 -1.0809
   29MOL   H61124187   4.506   0.842   7.634 -3.1544 -0.1822  1.2486
   29MOL   H61224188   4.550   0.980   7.540  3.0044 -1.8965  1.8328
   29MOL   H61324189   4.417   0.885   7.338 -0.3758  1.8560  1.5854
   29MOL   H61424190   4.404   0.734   7.414 -0.4429  0.4135  3.4844
   29MOL   H61524191   4.678   0.879   7.369 -1.7789  1.1567  1.2543
   29MOL   H61624192   4.655   0.716   7.408  1.3845  1.6815  0.3306
   29MOL   H61724193   4.528   0.720   7.159 -1.4645  1.5009  0.1403
   29MOL   H61824194   4.637   0.854   7.134  1.4964  1.3661  1.5425
   29MOL   H61924195   4.777   0.698   7.071 -0.7703  0.5993  0.0928
   29MOL   H62024196   4.818   0.693   7.236 -0.2578 -1.2704  0.0654
   29MOL   H62124197   4.670   0.509   7.283 -0.6605 -2.4334 -0.3894
   29MOL   H62224198   4.618   0.501   7.113  0.9426 -1.0355 -0.9839
   29MOL   H62324199   4.893   0.460   7.221 -3.4033  3.1114  2.1227
   29MOL   H62424200   4.831   0.436   7.049  1.8303 -0.1166 -0.1334
   29MOL   H62524201   4.716   0.233   7.105  0.5932 -2.8087  0.2205
   29MOL   H62624202   4.736   0.281   7.277  0.9412  0.1167  0.5020
   29MOL   H62724203   4.960   0.213   7.283  0.8568  0.3622 -0.7729
   29MOL   H62824204   4.856   0.087   7.219 -0.9822 -0.7732 -2.1057
   29MOL   H62924205   5.034   0.272   7.052  0.3053 -0.3953 -1.5175
   29MOL   H63024206   4.935   0.149   6.981  0.5511  1.3610 -1.0536
   29MOL   H63124207   5.063   0.100   7.096 -0.0370 -0.9287  0.9605
   29MOL   C63224208   4.424   1.223   0.044  0.1852  0.0987  0.0474
   29MOL   C63324209   4.546   1.316   0.059  0.1479  0.5466 -0.2508
   29MOL   C63424210   4.666   1.271   7.666  0.5115 -0.4597 -0.2585
   29MOL   C63524211   4.670   1.290   7.512  0.3085 -0.0106  0.4373
   29MOL   C63624212   4.777   1.207   7.438 -0.6246 -0.1293 -0.2399
   29MOL   C63724213   4.766   1.229   7.284  0.0619 -0.1805 -0.3164
   29MOL   C63824214   4.886   1.170   7.203  0.7185  0.4920  0.5382
   29MOL   C63924215   4.859   1.027   7.142  0.6045  0.3184 -0.4113
   29MOL   C64024216   4.971   0.974   7.043 -0.0737 -0.5225 -0.1127
   29MOL   C64124217   4.995   1.074   6.923  0.5576 -0.2326  0.6817
   29MOL   C64224218   4.865   1.119   6.859  0.2406  0.9134 -0.0285
   29MOL   C64324219   4.878   1.205   6.729 -0.0555  0.1369  0.4584
   29MOL   C64424220   4.927   1.347   6.749 -0.6036 -0.1890 -0.2727
   29MOL   C64524221   4.916   1.434   6.621  0.5788  0.3055  0.3484
   29MOL   H64624222   4.331   1.258   0.088  0.2220  0.8124 -0.4278
   29MOL   H64724223   4.395   1.211   7.635  1.6258  0.5887 -0.4171
   29MOL   H64824224   4.574   1.304   0.163  0.3946  0.2759 -0.3479
   29MOL   H64924225   4.751   1.316   0.021 -0.4898 -0.4282  1.4618
   29MOL   H65024226   4.672   1.163   7.679 -2.0939 -0.6255 -0.1540
   29MOL   H65124227   4.687   1.395   7.486 -2.8327  0.2702 -0.7671
   29MOL   H65224228   4.571   1.273   7.469  0.1148  0.5575  0.6481
   29MOL   H65324229   4.780   1.098   7.441  1.8569 -0.1061 -1.0816
   29MOL   H65424230   4.878   1.235   7.466 -0.1248 -0.8104 -1.3474
   29MOL   H65524231   4.669   1.195   7.248 -0.1896 -0.4163  0.5832
   29MOL   H65624232   4.770   1.336   7.261  1.8631 -0.3847 -1.0668
   29MOL   H65724233   4.899   1.234   7.117  2.9251 -0.3344  0.2210
   29MOL   H65824234   4.980   1.170   7.258  0.8311  3.1128  0.3961
   29MOL   H65924235   4.758   1.029   7.100  0.0439 -0.0631  0.8752
   29MOL   H66024236   4.850   0.956   7.225 -0.2472  2.0956  1.0660
   29MOL   H66124237   4.929   0.887   6.993 -0.3932 -0.2820 -0.2662
   29MOL   H66224238   5.064   0.947   7.094  1.4730  0.3688 -2.3623
   29MOL   H66324239   5.039   1.167   6.961 -2.3745  0.7801  1.8214
   29MOL   H66424240   5.053   1.024   6.846  0.5973  1.6166 -0.5211
   29MOL   H66524241   4.819   1.024   6.831 -1.2034  0.3360  3.8865
   29MOL   H66624242   4.796   1.168   6.927 -0.6238  2.7851 -2.2100
   29MOL   H66724243   4.779   1.214   6.685  0.6215 -1.4988 -1.4944
   29MOL   H66824244   4.937   1.152   6.655 -0.1058  1.1096 -0.2888
   29MOL   H66924245   5.030   1.345   6.785  0.0656  1.2067 -2.0278
   29MOL   H67024246   4.874   1.398   6.829 -0.9263  1.3354 -1.4245
   29MOL   H67124247   4.954   1.535   6.632  0.2180  0.6539 -1.4984
   29MOL   H67224248   4.971   1.396   6.534  1.7249  1.3216  0.6159
   29MOL   H67324249   4.810   1.434   6.597  0.5552  0.8612  0.4521
   29MOL   C67424250   4.514   1.469   0.034  0.3076  0.1868 -0.2458
   29MOL   C67524251   4.396   1.535   0.116 -0.4567  0.4083  0.4314
   29MOL   C67624252   4.395   1.513   0.271 -0.2120 -0.0288  0.0232
   29MOL   C67724253   4.518   1.554   0.347 -0.2914  0.5207  0.1289
   29MOL   C67824254   4.506   1.582   0.498  0.5519 -0.2802 -0.5420
   29MOL   C67924255   4.637   1.626   0.556  0.1594 -0.7080  0.3358
   29MOL   C68024256   4.618   1.669   0.708 -0.0805  0.4215  0.0133
   29MOL   C68124257   4.749   1.689   0.784  0.2629  0.4738  0.1346
   29MOL   C68224258   4.721   1.748   0.926  0.3165  0.0933 -0.2094
   29MOL   C68324259   4.851   1.794   0.985  0.7732 -0.2287 -0.0668
   29MOL   C68424260   4.842   1.838   1.128  0.7162  0.4118 -0.1906
   29MOL   C68524261   4.958   1.922   1.194 -0.1096  0.0408  0.9920
   29MOL   C68624262   5.088   1.841   1.231  0.2656 -0.8843 -0.2999
   29MOL   C68724263   5.165   1.913   1.345 -0.5925 -0.5271  0.2195
   29MOL   H68824264   4.489   1.491   7.626  0.1816  0.6589 -0.1163
   29MOL   H68924265   4.596   1.537   0.055 -0.9519  1.6796 -0.0863
   29MOL   H69024266   4.299   1.493   0.089  0.1069 -1.4399  1.1927
   29MOL   H69124267   4.297   1.551   0.302 -0.4387 -1.0957  0.6235
   29MOL   H69224268   4.377   1.407   0.285  0.5146  0.0843  1.9729
   29MOL   H69324269   4.601   1.485   0.332 -0.5856  0.2222 -0.1215
   29MOL   H69424270   4.569   1.638   0.299  1.0665 -0.4160 -0.0983
   29MOL   H69524271   4.430   1.656   0.522  0.3486 -0.2828 -1.1801
   29MOL   H69624272   4.481   1.495   0.559 -3.0682  0.9364 -0.1740
   29MOL   H69724273   4.710   1.545   0.555  0.4068 -0.5262  2.5320
   29MOL   H69824274   4.691   1.700   0.497  0.5671  0.4957  2.2063
   29MOL   H69924275   4.553   1.756   0.719  1.9292  1.8570  0.8785
   29MOL   H70024276   4.552   1.592   0.749  3.7142 -1.5365  2.7000
   29MOL   H70124277   4.802   1.594   0.787 -1.6255 -0.6251 -0.3888
   29MOL   H70224278   4.802   1.759   0.719 -0.1001  0.0100 -0.6651
   29MOL   H70324279   4.647   1.827   0.913 -0.4755 -0.4927  0.7324
   29MOL   H70424280   4.677   1.670   0.988  1.1672 -1.5770 -1.6707
   29MOL   H70524281   4.899   1.873   0.927  0.4366 -0.6051 -0.8603
   29MOL   H70624282   4.919   1.710   0.982  2.3214  1.0066 -0.3232
   29MOL   H70724283   4.814   1.762   1.200  2.1165  2.5386  2.6770
   29MOL   H70824284   4.760   1.909   1.122  1.3289  1.3285  1.8724
   29MOL   H70924285   4.902   1.957   1.281 -0.4061  1.4724  0.2320
   29MOL   H71024286   4.972   2.000   1.120 -1.6870 -1.4038 -0.8816
   29MOL   H71124287   5.068   1.737   1.258 -1.9984 -0.0004  1.6400
   29MOL   H71224288   5.151   1.829   1.143 -1.1630  1.2357 -1.6504
   29MOL   H71324289   5.179   2.017   1.314 -0.3529 -1.0328 -1.4465
   29MOL   H71424290   5.109   1.925   1.437  0.9317  0.1419  1.0755
   29MOL   H71524291   5.268   1.886   1.366 -0.3332  1.3016  1.4059
   29MOL   C71624292   4.392   1.681   0.086  0.6094  0.3360 -0.2981
   29MOL   C71724293   4.365   1.728   7.635 -0.2179 -0.4151  0.2480
   29MOL   C71824294   4.242   1.655   7.562 -0.3534 -0.2034 -1.0286
   29MOL   C71924295   4.102   1.682   7.632 -0.4950 -0.0415  0.3420
   29MOL   C72024296   3.991   1.589   7.578  0.2707  0.4116 -0.2076
   29MOL   C72124297   4.008   1.459   7.665 -0.7142  0.7229 -0.4390
   29MOL   C72224298   3.897   1.356   7.657 -0.4405  0.1583  0.3094
   29MOL   C72324299   3.938   1.235   0.042  0.6285 -0.3918 -0.3709
   29MOL   C72424300   3.840   1.120   0.046 -0.2538 -0.1978  0.4166
   29MOL   C72524301   3.892   1.013   0.143  0.4428 -0.4359 -0.4017
   29MOL   C72624302   3.780   0.910   0.190 -0.8551  0.3766  0.1489
   29MOL   C72724303   3.819   0.829   0.315 -0.1371  0.1948  0.2109
   29MOL   C72824304   3.928   0.726   0.283 -0.3542  0.1234  0.4514
   29MOL   C72924305   3.899   0.626   0.173 -0.7298 -0.2533 -0.1887
   29MOL   H73024306   4.317   1.721   0.155  0.4143  1.4078 -1.1108
   29MOL   H73124307   4.481   1.729   0.127 -0.1702  1.2399  0.3809
   29MOL   H73224308   4.454   1.704   7.576  0.4275  1.5917  0.3626
   29MOL   H73324309   4.270   1.551   7.546  0.1696  0.0883 -2.0537
   29MOL   H73424310   4.246   1.709   7.468 -1.9143  0.9334 -0.4598
   29MOL   H73524311   4.114   1.681   0.045  1.4147 -1.6196  0.1499
   29MOL   H73624312   4.067   1.779   7.597  1.1842  1.5057  2.8520
   29MOL   H73724313   3.897   1.631   7.613  0.8604 -0.2653  2.2685
   29MOL   H73824314   3.989   1.571   7.471 -1.0685  0.3078 -0.1749
   29MOL   H73924315   4.107   1.415   7.654 -1.3215 -1.1012  0.9945
   29MOL   H74024316   4.013   1.504   0.069  0.2000  0.5849 -0.4177
   29MOL   H74124317   3.798   1.395   7.680 -0.9470 -1.1130  0.3160
   29MOL   H74224318   3.886   1.320   7.555  1.4745 -0.4272  0.2886
   29MOL   H74324319   3.953   1.268   0.145 -0.0700  0.0128 -0.3944
   29MOL   H74424320   4.030   1.191   0.006  0.2226 -1.4938 -0.0699
   29MOL   H74524321   3.743   1.153   0.083 -0.8942 -0.3251 -1.0873
   29MOL   H74624322   3.822   1.084   7.640  1.0051 -0.3175  0.2346
   29MOL   H74724323   3.966   0.972   0.073  0.7342 -0.3699 -0.1319
   29MOL   H74824324   3.934   1.061   0.231 -0.4992 -0.8065  0.2510
   29MOL   H74924325   3.694   0.975   0.203 -1.7817 -0.2862 -2.3580
   29MOL   H75024326   3.738   0.844   0.115 -1.7180 -0.1563  1.0887
   29MOL   H75124327   3.843   0.897   0.397 -2.0930  2.9191 -1.3942
   29MOL   H75224328   3.735   0.767   0.347 -0.7608  0.3211 -1.1400
   29MOL   H75324329   3.948   0.665   0.371  0.9799  0.5938  0.4762
   29MOL   H75424330   4.028   0.762   0.260 -0.7711 -0.0002 -1.6977
   29MOL   H75524331   3.983   0.556   0.173  1.2665  2.0925 -0.9726
   29MOL   H75624332   3.896   0.689   0.084 -1.9989  0.9162  0.6632
   29MOL   H75724333   3.808   0.567   0.188 -1.3779  1.1095  1.2786
   29MOL   C75824334   4.346   1.886   7.627 -0.5910  0.3604 -0.3994
   29MOL   C75924335   4.474   1.975   7.653  0.2555  0.1292 -0.7769
   29MOL   C76024336   4.604   1.930   7.577 -0.7471 -0.8940 -0.0586
   29MOL   C76124337   4.708   1.844   7.652 -0.1916 -0.5820 -0.4336
   29MOL   C76224338   4.847   1.831   7.573 -0.0114  0.4302 -0.1525
   29MOL   C76324339   4.832   1.772   7.432  0.0505 -0.1849  0.3421
   29MOL   C76424340   4.950   1.786   7.339  0.6730  0.4194 -0.2670
   29MOL   C76524341   4.938   1.709   7.204 -0.3070 -0.5838  0.4768
   29MOL   C76624342   5.068   1.688   7.126 -0.1552  0.0450 -0.5429
   29MOL   C76724343   5.058   1.563   7.035 -0.5387  0.3733 -0.2518
   29MOL   C76824344   5.181   1.548   6.949  0.9382  0.0132 -0.5567
   29MOL   C76924345   5.283   1.451   7.004  0.7009 -0.1916 -0.5202
   29MOL   C77024346   5.397   1.439   6.905  0.4370  0.4189 -0.2669
   29MOL   C77124347   5.492   1.329   6.947 -0.5712  0.2267  0.1599
   29MOL   H77224348   4.311   1.904   7.525  1.3891 -0.0471 -1.1701
   29MOL   H77324349   4.265   1.913   7.695  0.5906 -1.7997  1.8961
   29MOL   H77424350   4.497   1.959   0.062  0.0703  1.5056 -0.5150
   29MOL   H77524351   4.580   1.876   7.485 -0.2171 -1.8417  0.3574
   29MOL   H77624352   4.653   2.021   7.544  1.2675 -1.6200  0.8982
   29MOL   H77724353   4.728   1.868   0.061  1.4958 -3.3882 -0.0542
   29MOL   H77824354   4.660   1.747   7.663 -0.3165 -0.3439  1.3663
   29MOL   H77924355   4.918   1.778   7.636  0.8226 -2.0341 -3.0134
   29MOL   H78024356   4.892   1.930   7.561  2.2753 -0.4315  1.0619
   29MOL   H78124357   4.757   1.814   7.366  0.9196  0.3190 -0.3426
   29MOL   H78224358   4.816   1.667   7.456 -3.4520 -0.2518 -2.0407
   29MOL   H78324359   4.956   1.893   7.318 -1.5196  0.3592 -1.3344
   29MOL   H78424360   5.042   1.764   7.393 -0.3166  0.7745  1.5865
   29MOL   H78524361   4.864   1.751   7.136 -0.5240 -0.6391  0.6766
   29MOL   H78624362   4.898   1.608   7.217 -1.5069 -0.5530 -2.5840
   29MOL   H78724363   5.144   1.675   7.203 -1.6704  2.7849  1.5091
   29MOL   H78824364   5.092   1.782   7.077  0.7230 -0.0985 -0.3915
   29MOL   H78924365   4.975   1.568   6.964 -0.2771 -3.3243 -0.9132
   29MOL   H79024366   5.040   1.470   7.090 -0.1756  0.3875 -0.1082
   29MOL   H79124367   5.158   1.527   6.845  0.6424  2.0915 -0.9235
   29MOL   H79224368   5.213   1.652   6.945  0.3285  0.2135 -0.2511
   29MOL   H79324369   5.332   1.473   7.099  1.3838 -1.1948 -0.6237
   29MOL   H79424370   5.229   1.356   7.012  0.1489  0.1996  0.4260
   29MOL   H79524371   5.334   1.412   6.821 -2.0373  0.0171  1.6515
   29MOL   H79624372   5.456   1.530   6.893  1.6956 -0.3107  0.2639
   29MOL   H79724373   5.559   1.349   7.031 -0.6582 -0.5287  0.4097
   29MOL   H79824374   5.458   1.226   6.943  1.0736 -0.3471  0.5137
   29MOL   H79924375   5.571   1.321   6.873 -0.5362  0.8868  0.1172
   29MOL   C80024376   4.444   2.124   7.632  0.1361 -0.0464 -0.1605
   29MOL   C80124377   4.416   2.172   7.488  0.2229  0.2961 -0.7087
   29MOL   C80224378   4.393   2.323   7.472  0.2856 -0.3703 -0.0218
   29MOL   C80324379   4.385   2.377   7.329  0.8082  0.0419  0.8237
   29MOL   C80424380   4.312   2.519   7.314  0.2671  0.2945  0.9610
   29MOL   C80524381   4.403   2.645   7.309 -0.2483 -0.1277 -0.0697
   29MOL   C80624382   4.518   2.647   7.218 -0.2148  0.2974  0.3571
   29MOL   C80724383   4.588   2.777   7.195  0.6254  0.3927  0.1223
   29MOL   C80824384   4.700   2.756   7.099  0.4878  0.3695 -0.2900
   29MOL   C80924385   4.768   2.880   7.052  0.6845 -0.1206 -0.0307
   29MOL   C81024386   4.677   3.007   6.999  0.2403  0.6401  0.4576
   29MOL   C81124387   4.760   3.136   6.975  0.4531  0.2623  0.4539
   29MOL   C81224388   4.683   3.260   6.937  0.6897 -0.2246 -0.1665
   29MOL   C81324389   4.637   3.352   7.051 -0.4505 -0.0269  0.0675
   29MOL   H81424390   4.530   2.171   7.679 -0.7096  1.3404  0.0254
   29MOL   H81524391   4.361   2.150   0.001  0.1928  0.3095 -0.2267
   29MOL   H81624392   4.337   2.110   7.445  2.3459 -3.5934  0.7204
   29MOL   H81724393   4.473   2.380   7.521  0.5534  0.9462 -1.9496
   29MOL   H81824394   4.303   2.333   7.532  0.4270 -1.3912  0.3859
   29MOL   H81924395   4.316   2.303   7.288 -0.0986  1.4486 -0.1967
   29MOL   H82024396   4.471   2.363   7.264 -0.6577 -2.3378 -0.6899
   29MOL   H82124397   4.263   2.514   7.217 -0.9334  0.1515  1.5684
   29MOL   H82224398   4.236   2.537   7.390  0.5493  0.2012  1.2676
   29MOL   H82324399   4.435   2.673   7.410  1.3616 -4.2712  0.6632
   29MOL   H82424400   4.346   2.735   7.284  1.0260  1.1640  1.5162
   29MOL   H82524401   4.589   2.571   7.251 -2.4145 -2.8676 -1.9593
   29MOL   H82624402   4.477   2.616   7.122 -0.0701  0.6460  0.1827
   29MOL   H82724403   4.523   2.851   7.147  0.6916 -1.1074 -2.3641
   29MOL   H82824404   4.610   2.822   7.292 -1.3779  2.1181 -0.1663
   29MOL   H82924405   4.775   2.680   7.119  1.6988  1.7945  0.6851
   29MOL   H83024406   4.651   2.722   7.008  0.3845  0.8205 -0.4017
   29MOL   H83124407   4.827   2.846   6.967 -2.7305 -0.0284 -2.5409
   29MOL   H83224408   4.843   2.917   7.122 -0.1545 -1.0834  1.4172
   29MOL   H83324409   4.617   2.972   6.915 -0.5637  2.9365  0.0400
   29MOL   H83424410   4.596   3.029   7.068 -0.6332 -0.2505 -0.2492
   29MOL   H83524411   4.838   3.116   6.902  0.9164  2.2938  0.3595
   29MOL   H83624412   4.827   3.154   7.059  0.6609 -3.5782  1.2237
   29MOL   H83724413   4.729   3.318   6.857 -0.7372  2.0300  0.6104
   29MOL   H83824414   4.597   3.212   6.890  0.1504  0.2341  0.3452
   29MOL   H83924415   4.724   3.356   7.117 -0.1667 -0.4072 -0.2759
   29MOL   H84024416   4.599   3.449   7.020 -0.4520  0.1412  0.5999
   29MOL   H84124417   4.559   3.304   7.109 -0.7911  1.1118  0.5574
   29MOL   H84224418   4.506   2.152   7.429  0.0870  2.6830 -1.7850
   30MOL     C124419   6.315   3.134   5.811  0.5995 -0.2214 -0.6263
   30MOL     C224420   6.424   3.234   5.861  0.2805  0.2851  0.2689
   30MOL     C324421   6.397   3.371   5.785 -0.2839  0.1820  0.5619
   30MOL     C424422   6.502   3.477   5.804  0.4564  0.2303  0.1409
   30MOL     C524423   6.532   3.578   5.695  0.0378  0.6649 -0.1260
   30MOL     C624424   6.424   3.689   5.675  0.1702 -0.6827  0.6870
   30MOL     C724425   6.453   3.781   5.560  0.2506  0.1512 -0.0659
   30MOL     C824426   6.448   3.715   5.429 -0.8909 -0.1758 -0.8925
   30MOL     C924427   6.473   3.815   5.315  0.2114  0.8873  0.0038
   30MOL    C1024428   6.434   3.767   5.173 -0.3588  0.9752 -0.2911
   30MOL    C1124429   6.444   3.863   5.053 -0.0667  0.0260  0.5642
   30MOL    C1224430   6.393   3.798   4.927 -0.2627 -0.2334  0.3296
   30MOL    C1324431   6.386   3.885   4.804  0.1423 -0.4128 -0.0685
   30MOL    C1424432   6.517   3.884   4.721 -0.1703 -0.2969  0.2906
   30MOL    H1524433   6.336   3.033   5.845  0.6573 -0.3973 -1.1801
   30MOL    H1624434   6.320   3.148   5.703 -0.2912 -1.2243 -0.8055
   30MOL    H1724435   6.521   3.197   5.830  1.3213  1.2867  2.2635
   30MOL    H1824436   6.397   3.349   5.678  0.6493  2.1710  0.1241
   30MOL    H1924437   6.302   3.419   5.808 -0.1038  0.7392  0.1486
   30MOL    H2024438   6.593   3.423   5.832 -0.1096 -1.0707 -0.5201
   30MOL    H2124439   6.466   3.532   5.890 -0.5406 -0.4958  0.1930
   30MOL    H2224440   6.554   3.522   5.605 -1.3592  0.6163 -0.4494
   30MOL    H2324441   6.621   3.633   5.728  0.8452 -1.1018  0.6867
   30MOL    H2424442   6.429   3.754   5.763  1.5914 -0.9365  0.8102
   30MOL    H2524443   6.325   3.644   5.670 -0.0389 -0.0456 -1.6388
   30MOL    H2624444   6.386   3.865   5.575  1.5395  0.8984  1.6581
   30MOL    H2724445   6.553   3.822   5.573  0.2219  0.9049 -2.0545
   30MOL    H2824446   6.359   3.654   5.415 -1.9032  0.3162  2.9954
   30MOL    H2924447   6.527   3.641   5.428  1.4798  2.2711 -0.9993
   30MOL    H3024448   6.422   3.909   5.335 -0.9130  0.3033 -0.0515
   30MOL    H3124449   6.579   3.839   5.313  0.7571 -1.4364 -1.1220
   30MOL    H3224450   6.502   3.686   5.147  0.8738  2.4868 -1.9049
   30MOL    H3324451   6.338   3.715   5.175 -0.6087  1.4614  0.6654
   30MOL    H3424452   6.385   3.952   5.076  2.1056  1.3831  1.0429
   30MOL    H3524453   6.549   3.890   5.045  0.0965  0.0528  2.6453
   30MOL    H3624454   6.292   3.757   4.938  0.1637 -2.0561 -1.9275
   30MOL    H3724455   6.460   3.714   4.905 -2.8626 -2.3179  0.0501
   30MOL    H3824456   6.302   3.856   4.741  0.1493 -0.9567  0.1782
   30MOL    H3924457   6.360   3.979   4.853  1.8778  1.0367 -1.8482
   30MOL    H4024458   6.529   3.781   4.687  1.8567 -0.1311  0.4412
   30MOL    H4124459   6.532   3.953   4.639 -2.6596  1.7325  1.4444
   30MOL    H4224460   6.596   3.904   4.793 -1.9939  0.3814  2.1687
   30MOL    H4324461   6.217   3.163   5.850 -0.0097 -0.7351 -1.7505
   30MOL    C4424462   6.438   3.253   6.020  0.0047  0.6713 -0.0212
   30MOL    C4524463   6.474   3.119   6.097 -0.1576  0.0199  0.5558
   30MOL    C4624464   6.381   3.114   6.219  0.1797  0.3039  0.1576
   30MOL    C4724465   6.403   3.228   6.313  0.4615 -0.8143  0.1932
   30MOL    C4824466   6.314   3.201   6.431  0.1540 -0.2801 -0.1135
   30MOL    C4924467   6.319   3.313   6.540  0.1424 -0.4588 -0.0920
   30MOL    C5024468   6.212   3.292   6.654 -0.6161 -0.3805  0.2164
   30MOL    C5124469   6.208   3.420   6.741  0.8568 -0.0684  0.1800
   30MOL    C5224470   6.106   3.421   6.848 -0.4080 -0.7516  0.1175
   30MOL    C5324471   6.154   3.336   6.972 -0.0922  0.3333  0.6429
   30MOL    C5424472   6.056   3.345   7.094  0.3618  0.3212  0.5017
   30MOL    C5524473   6.110   3.253   7.207  0.1816  0.1411  0.1137
   30MOL    C5624474   6.110   3.094   7.182  0.1845  0.5322  0.5506
   30MOL    C5724475   6.188   3.013   7.285  0.7273 -0.0231 -0.1384
   30MOL    H5824476   6.509   3.336   6.030  0.5065  0.2977 -0.4762
   30MOL    H5924477   6.341   3.283   6.059  0.2845 -0.3655  1.4902
   30MOL    H6024478   6.442   3.036   6.035  0.6454 -0.6879  1.0748
   30MOL    H6124479   6.277   3.116   6.186 -0.4788 -1.0494  2.0654
   30MOL    H6224480   6.404   3.014   6.256 -0.4408 -0.1987 -0.7903
   30MOL    H6324481   6.383   3.324   6.266 -3.0063 -2.0503 -1.0735
   30MOL    H6424482   6.505   3.233   6.350 -0.3069  2.1179  2.1124
   30MOL    H6524483   6.353   3.110   6.477 -2.4176 -1.3413  0.0340
   30MOL    H6624484   6.211   3.185   6.399 -0.3766 -0.3468  1.5583
   30MOL    H6724485   6.415   3.305   6.591  0.2358 -3.5053 -0.6450
   30MOL    H6824486   6.304   3.413   6.499  0.0523 -0.4855 -0.1254
   30MOL    H6924487   6.118   3.258   6.611 -0.0691  0.0720 -1.3439
   30MOL    H7024488   6.259   3.216   6.717 -0.6260  0.2006  0.9297
   30MOL    H7124489   6.178   3.500   6.673 -0.1320 -1.4485 -1.0526
   30MOL    H7224490   6.307   3.438   6.783  0.7866 -1.0027  0.7647
   30MOL    H7324491   6.086   3.524   6.878 -0.3642 -0.4764 -0.7849
   30MOL    H7424492   6.008   3.394   6.808 -0.0352 -2.5123  0.3519
   30MOL    H7524493   6.255   3.366   6.999 -0.1364  1.3550 -0.2643
   30MOL    H7624494   6.165   3.236   6.931  0.2403  0.8344 -0.5069
   30MOL    H7724495   5.963   3.299   7.060 -0.4575  0.9723  1.8257
   30MOL    H7824496   6.038   3.444   7.135  2.4055  1.1594 -0.5564
   30MOL    H7924497   6.215   3.275   7.227  0.5331 -0.6819 -0.7780
   30MOL    H8024498   6.061   3.273   7.302  2.0650 -1.2202  1.3874
   30MOL    H8124499   6.152   3.066   7.085 -0.5212  0.4579  0.2618
   30MOL    H8224500   6.013   3.046   7.165  0.7696  0.3636 -2.6963
   30MOL    H8324501   6.287   3.057   7.282  0.6616  0.0893 -0.9002
   30MOL    H8424502   6.184   2.909   7.252 -0.5291  0.4825 -1.6657
   30MOL    H8524503   6.152   3.011   7.388  0.7023  0.4143 -0.1404
   30MOL    C8624504   6.625   3.114   6.132 -0.6570  0.9679  0.1980
   30MOL    C8724505   6.715   3.021   6.043  0.8374 -0.4466 -0.8872
   30MOL    C8824506   6.702   2.873   6.092  0.1406  0.0550  0.2914
   30MOL    C8924507   6.721   2.767   5.970  0.3390  0.2417  0.2056
   30MOL    C9024508   6.725   2.621   6.016 -0.3441  0.3467  0.2503
   30MOL    C9124509   6.792   2.530   5.906 -0.3938 -0.3648  0.1837
   30MOL    C9224510   6.852   2.397   5.948 -0.4324  0.0366 -0.2781
   30MOL    C9324511   6.902   2.322   5.824 -0.2303  0.8922  0.1714
   30MOL    C9424512   6.975   2.194   5.867  0.1127 -0.2368 -0.2170
   30MOL    C9524513   7.004   2.104   5.746  0.2951  0.1096  0.4115
   30MOL    C9624514   7.111   1.997   5.780 -0.6377  0.3697  0.3343
   30MOL    C9724515   7.068   1.874   5.863 -1.0648 -0.1110  0.1474
   30MOL    C9824516   7.184   1.769   5.866 -0.4250 -0.2933  0.4138
   30MOL    C9924517   7.231   1.714   5.734 -0.2356 -0.2960 -0.7241
   30MOL   H10024518   6.670   3.213   6.148 -0.6077  1.0250 -0.2885
   30MOL   H10124519   6.636   3.080   6.235  1.9621  0.5584 -0.1756
   30MOL   H10224520   6.665   3.021   5.946  3.4775 -0.9730 -2.2839
   30MOL   H10324521   6.756   2.836   6.179 -0.6070 -1.2942  0.1908
   30MOL   H10424522   6.600   2.870   6.131  0.0672  3.2499  0.4616
   30MOL   H10524523   6.649   2.782   5.890  1.3347 -0.3700 -0.8235
   30MOL   H10624524   6.816   2.784   5.920 -0.1797  0.2694 -0.7882
   30MOL   H10724525   6.625   2.586   6.043 -0.2860  0.8460  1.1479
   30MOL   H10824526   6.768   2.599   6.114 -0.7875  3.2820  1.1500
   30MOL   H10924527   6.871   2.587   5.857 -0.4263  1.5720  2.2661
   30MOL   H11024528   6.718   2.499   5.833 -0.6471 -0.0419  0.3045
   30MOL   H11124529   6.925   2.428   6.023 -0.5569 -0.2930 -0.0169
   30MOL   H11224530   6.780   2.342   6.009 -0.6456  2.0708  1.3447
   30MOL   H11324531   6.980   2.382   5.778  0.1574  0.1062 -0.2155
   30MOL   H11424532   6.829   2.312   5.744 -0.1805  1.7566  0.0140
   30MOL   H11524533   7.074   2.211   5.909 -0.4007  0.9067  0.5821
   30MOL   H11624534   6.910   2.130   5.927  0.5362 -0.5678 -0.1026
   30MOL   H11724535   7.031   2.160   5.656 -0.0455 -1.4914 -0.7196
   30MOL   H11824536   6.904   2.064   5.732 -0.3269  2.0713 -0.9537
   30MOL   H11924537   7.160   1.961   5.690 -0.4028  1.1167  0.1550
   30MOL   H12024538   7.192   2.054   5.826 -1.4277  1.5899  0.2462
   30MOL   H12124539   7.036   1.901   5.964 -0.7591 -0.4554  0.3364
   30MOL   H12224540   6.978   1.828   5.821 -0.8116  0.0201 -0.5370
   30MOL   H12324541   7.144   1.697   5.937  1.1347 -1.2544  0.3281
   30MOL   H12424542   7.268   1.810   5.920 -0.5324 -1.1457  1.2428
   30MOL   H12524543   7.259   1.610   5.747  1.2210  0.4462  2.3588
   30MOL   H12624544   7.161   1.733   5.652 -0.3534 -0.5380 -0.6788
   30MOL   H12724545   7.325   1.759   5.703 -0.2950  0.5285  0.2655
   30MOL   C12824546   6.865   3.067   6.024 -0.0163  0.3886 -0.2873
   30MOL   C12924547   6.972   3.050   6.135  0.7418  0.4353  0.6342
   30MOL   C13024548   7.109   3.058   6.058 -0.2372  0.3967 -0.0129
   30MOL   C13124549   7.147   3.201   6.016  0.9726  0.4651  0.3951
   30MOL   C13224550   7.279   3.220   5.941 -0.1660 -0.1125  0.2540
   30MOL   C13324551   7.323   3.358   5.897 -0.0670 -0.5987  0.0893
   30MOL   C13424552   7.402   3.417   6.014  0.2258  0.4328 -0.9302
   30MOL   C13524553   7.451   3.559   5.979 -0.4761 -0.1193  0.1476
   30MOL   C13624554   7.533   3.621   6.093 -0.5732  0.3394 -0.1647
   30MOL   C13724555   7.523   3.777   6.089  0.5919  0.2348  0.4250
   30MOL   C13824556   7.619   3.836   6.192 -0.0070  0.5420  0.6691
   30MOL   C13924557   7.640   3.986   6.168 -0.4830  0.2157  0.1517
   30MOL   C14024558   0.045   4.043   6.271 -0.1208  0.2760  0.1671
   30MOL   C14124559   0.085   4.183   6.226  0.6030 -0.1623  0.4865
   30MOL   H14224560   6.888   3.006   5.937  2.1228  0.6230  0.0982
   30MOL   H14324561   6.856   3.171   5.991 -0.3315  0.6090  0.4927
   30MOL   H14424562   6.967   2.947   6.172 -0.4077 -0.7272 -2.5948
   30MOL   H14524563   7.192   3.016   6.115  0.5035  1.7338 -0.0967
   30MOL   H14624564   7.101   3.002   5.965 -2.1603  1.4323 -0.4910
   30MOL   H14724565   7.077   3.252   5.950  0.2262  0.3009  1.0519
   30MOL   H14824566   7.156   3.262   6.106 -0.5254  1.7951 -0.3265
   30MOL   H14924567   7.365   3.181   5.997 -0.4382  0.1087  0.8354
   30MOL   H15024568   7.279   3.150   5.857 -0.5864  0.4698 -0.2299
   30MOL   H15124569   7.383   3.336   5.809 -1.4484  0.2521 -1.0794
   30MOL   H15224570   7.245   3.423   5.857  1.2867  0.5675 -0.7278
   30MOL   H15324571   7.346   3.414   6.108  2.2153 -3.1106  0.2297
   30MOL   H15424572   7.489   3.352   6.027  0.3680  0.6380 -0.8446
   30MOL   H15524573   7.515   3.558   5.891  0.8448  0.0046  1.0861
   30MOL   H15624574   7.368   3.623   5.947 -0.7729 -0.8279 -0.4828
   30MOL   H15724575   7.499   3.583   6.189 -0.7838 -0.1522 -0.4321
   30MOL   H15824576   7.636   3.590   6.073 -0.3004  0.1302  1.4991
   30MOL   H15924577   7.425   3.820   6.106  0.9851  1.9180 -1.4388
   30MOL   H16024578   7.568   3.805   5.994  2.4803 -0.6292  1.0387
   30MOL   H16124579   7.591   3.820   6.296 -0.3261 -2.1793  0.1810
   30MOL   H16224580   0.028   3.805   6.183 -0.2024  0.3301 -1.2267
   30MOL   H16324581   7.685   4.006   6.071 -1.4608  0.1989 -0.3071
   30MOL   H16424582   7.545   4.040   6.168  0.5005  1.9755  0.6220
   30MOL   H16524583   0.002   4.047   6.372 -0.6540  1.8117 -0.1073
   30MOL   H16624584   0.133   3.981   6.288 -0.9493 -0.7836  0.6996
   30MOL   H16724585   0.150   4.237   6.295  0.8327  2.1309 -1.4702
   30MOL   H16824586   0.145   4.187   6.135 -0.5891  4.2444 -0.2243
   30MOL   H16924587   0.005   4.254   6.206 -1.9811 -2.7101  1.4443
   30MOL   C17024588   6.952   3.154   6.253  0.1164  0.1602 -0.8538
   30MOL   C17124589   7.031   3.108   6.379  0.1287  0.7724  0.0531
   30MOL   C17224590   7.184   3.104   6.373 -0.3738  0.1215 -0.3756
   30MOL   C17324591   7.255   3.069   6.508 -0.6577 -0.4535 -0.9159
   30MOL   C17424592   7.411   3.059   6.491  0.0512  0.4568 -0.1499
   30MOL   C17524593   7.479   3.193   6.437  0.1780  0.3261  0.1926
   30MOL   C17624594   7.629   3.179   6.426 -0.7944  0.4253 -0.3600
   30MOL   C17724595   0.006   3.312   6.394  0.1168  0.8720  0.0117
   30MOL   C17824596   0.147   3.345   6.451  0.0841  0.3501  0.7430
   30MOL   C17924597   0.211   3.474   6.401  0.1999  0.1729  0.1961
   30MOL   C18024598   0.225   3.487   6.251  0.4218 -0.3878  0.3087
   30MOL   C18124599   0.287   3.616   6.202  0.3523 -0.5628  0.8170
   30MOL   C18224600   0.302   3.605   6.045 -0.3036 -0.2820  0.2115
   30MOL   C18324601   0.383   3.723   5.983  0.5273 -0.1645 -0.3419
   30MOL   H18424602   6.846   3.147   6.279  0.0545 -1.9974 -1.5836
   30MOL   H18524603   6.968   3.256   6.218 -0.2127 -0.0712 -1.6843
   30MOL   H18624604   7.012   3.001   6.395  1.6493  0.3732 -0.6672
   30MOL   H18724605   7.224   3.040   6.294  0.9882  1.5098 -0.8341
   30MOL   H18824606   7.212   3.203   6.336 -1.3637  1.0930  1.3845
   30MOL   H18924607   7.232   3.150   6.577  1.5931 -1.0756  0.6446
   30MOL   H19024608   7.220   2.974   6.548  0.4268 -0.6144 -0.3284
   30MOL   H19124609   7.446   3.028   6.589 -0.7495 -1.5995 -0.4822
   30MOL   H19224610   7.434   2.981   6.418 -1.5324  0.1335 -0.3221
   30MOL   H19324611   7.449   3.264   6.514 -1.3616 -0.6647  0.5235
   30MOL   H19424612   7.431   3.212   6.340 -1.2573  2.1451  1.2204
   30MOL   H19524613   7.660   3.105   6.352 -0.7749 -0.9543  1.0039
   30MOL   H19624614   7.660   3.144   6.524 -2.2508  1.5253  0.5185
   30MOL   H19724615   7.635   3.395   6.416 -0.0552  1.6997 -3.3816
   30MOL   H19824616   0.019   3.315   6.285  1.4005  1.2089  0.1656
   30MOL   H19924617   0.214   3.261   6.432 -0.4210  0.0736  0.1835
   30MOL   H20024618   0.143   3.337   6.560  2.2842 -1.0870  0.7466
   30MOL   H20124619   0.310   3.487   6.444 -0.1681 -0.8356  1.3799
   30MOL   H20224620   0.164   3.569   6.427 -0.6662  0.3399 -1.8421
   30MOL   H20324621   0.138   3.456   6.194  3.4738 -1.5673 -3.9751
   30MOL   H20424622   0.296   3.408   6.230  0.7015  0.2273 -1.0931
   30MOL   H20524623   0.233   3.707   6.231  1.3093  0.0216  0.7726
   30MOL   H20624624   0.387   3.633   6.240 -0.1718  0.0421  1.9277
   30MOL   H20724625   0.354   3.514   6.017  1.1715  0.4435  0.5824
   30MOL   H20824626   0.205   3.598   5.994  0.9346  0.4481 -2.3514
   30MOL   H20924627   0.323   3.812   5.999  0.6195 -0.1350 -0.1553
   30MOL   H21024628   0.403   3.718   5.875  1.4230  0.5658 -0.2270
   30MOL   H21124629   0.481   3.732   6.030  0.5801  0.4136 -0.5548
   30MOL   C21224630   6.981   3.188   6.498  0.5412 -0.3015 -0.8473
   30MOL   C21324631   6.825   3.198   6.539 -0.4178  0.2801  0.4702
   30MOL   C21424632   6.775   3.060   6.549  0.9501  0.7737  0.1120
   30MOL   C21524633   6.621   3.041   6.538  0.6141  0.2329  0.6285
   30MOL   C21624634   6.585   2.887   6.568 -0.0038  0.6620  0.2707
   30MOL   C21724635   6.604   2.797   6.448 -0.1337  0.2463 -0.3003
   30MOL   C21824636   6.571   2.650   6.474  0.7163  0.3777 -0.1815
   30MOL   C21924637   6.567   2.563   6.349  1.0096 -0.3069 -0.0637
   30MOL   C22024638   6.559   2.410   6.377 -0.1748  0.0462  0.3571
   30MOL   C22124639   6.575   2.328   6.244 -0.0913 -0.0794 -0.7074
   30MOL   C22224640   6.596   2.173   6.266 -0.4842  0.0685 -0.1230
   30MOL   C22324641   6.595   2.089   6.136  0.4687 -0.9171 -0.3189
   30MOL   C22424642   6.652   1.948   6.162  0.3116 -0.9506  0.5805
   30MOL   C22524643   6.681   1.875   6.032  0.3969  0.1929  0.1677
   30MOL   H22624644   7.024   3.288   6.488  1.8572 -0.8699 -0.9284
   30MOL   H22724645   7.029   3.141   6.583 -0.6657  0.7606  0.4475
   30MOL   H22824646   6.775   3.258   6.463 -0.6695  1.1087  1.2697
   30MOL   H22924647   6.807   3.010   6.457 -0.2865 -1.8108  1.0269
   30MOL   H23024648   6.819   2.996   6.625  3.4173 -1.6622 -3.1619
   30MOL   H23124649   6.596   3.047   6.432 -1.9797 -2.3823  1.0476
   30MOL   H23224650   6.564   3.118   6.589 -2.0263 -1.0133 -0.3250
   30MOL   H23324651   6.480   2.874   6.594  0.0556 -0.6257 -0.0742
   30MOL   H23424652   6.653   2.855   6.647 -2.0099 -0.0356  1.7438
   30MOL   H23524653   6.710   2.803   6.426 -0.1756  1.2358 -0.2573
   30MOL   H23624654   6.564   2.839   6.356  1.6113 -0.7808 -1.5491
   30MOL   H23724655   6.631   2.599   6.549 -2.7349  0.7299  2.9386
   30MOL   H23824656   6.473   2.655   6.521  0.2701 -1.0418 -0.9451
   30MOL   H23924657   6.480   2.580   6.285  1.8486  1.8011 -0.6723
   30MOL   H24024658   6.652   2.592   6.287  0.5570  3.3772  0.9394
   30MOL   H24124659   6.468   2.385   6.432  0.4846 -3.1759  0.0912
   30MOL   H24224660   6.639   2.386   6.448  0.2666 -1.0526 -0.4898
   30MOL   H24324661   6.481   2.342   6.191 -0.1967  1.2429 -0.1946
   30MOL   H24424662   6.658   2.357   6.180  0.2953 -0.2431 -0.2878
   30MOL   H24524663   6.513   2.136   6.327  1.7315 -1.2282  2.2214
   30MOL   H24624664   6.683   2.152   6.328 -0.1536  0.9303 -0.2883
   30MOL   H24724665   6.660   2.131   6.060  0.5116 -0.1839  0.1187
   30MOL   H24824666   6.498   2.085   6.087  1.0908 -1.3149 -1.5450
   30MOL   H24924667   6.580   1.895   6.224  0.6945  1.6827  3.3907
   30MOL   H25024668   6.741   1.947   6.225 -0.3827 -1.0647  1.5781
   30MOL   H25124669   6.596   1.854   5.969  0.0541 -1.5012  1.1718
   30MOL   H25224670   6.743   1.936   5.966  0.0245 -1.4396 -1.7315
   30MOL   H25324671   6.722   1.777   6.055  0.2194 -0.4642 -2.2506
   30MOL   C25424672   6.815   3.269   6.674  0.2387  0.0788  0.6539
   30MOL   C25524673   6.815   3.416   6.658  0.5096  0.2804  0.3434
   30MOL   C25624674   6.670   3.453   6.661 -0.0852 -0.1155 -0.1829
   30MOL   C25724675   6.618   3.582   6.601  0.3557 -0.2636 -0.1356
   30MOL   C25824676   6.632   3.581   6.447  0.6684 -0.5072  0.7263
   30MOL   C25924677   6.617   3.723   6.391  0.0258 -0.3282 -0.5445
   30MOL   C26024678   6.600   3.722   6.235 -0.1866 -0.6067 -0.3892
   30MOL   C26124679   6.615   3.856   6.167 -0.2589 -0.3129  0.2124
   30MOL   C26224680   6.595   3.848   6.018  0.2442 -0.1275 -0.0454
   30MOL   C26324681   6.643   3.983   5.950 -0.0055  0.0274  0.1502
   30MOL   C26424682   6.668   3.957   5.801 -0.5580  0.7538 -0.0570
   30MOL   C26524683   6.741   4.093   5.754  0.4328 -0.7534 -0.4926
   30MOL   C26624684   6.774   4.109   5.601 -0.1836  0.1017 -0.8975
   30MOL   C26724685   6.827   4.256   5.579 -0.1182 -0.1845  0.2849
   30MOL   H26824686   6.901   3.244   6.736  0.1220 -0.9365  0.4129
   30MOL   H26924687   6.728   3.227   6.725  0.0565 -1.6507 -1.0003
   30MOL   H27024688   6.842   3.441   6.556 -3.4755  2.5934 -0.2301
   30MOL   H27124689   6.641   3.455   6.766 -0.6508  0.7205 -0.3521
   30MOL   H27224690   6.619   3.369   6.614  2.8752 -0.5659 -2.8558
   30MOL   H27324691   6.679   3.664   6.639  1.1990 -0.8390 -0.2444
   30MOL   H27424692   6.516   3.608   6.630  0.4384 -0.4077  0.2815
   30MOL   H27524693   6.563   3.517   6.392  1.1077 -1.0048  0.7559
   30MOL   H27624694   6.730   3.547   6.416 -0.0969 -2.2941  0.2426
   30MOL   H27724695   6.689   3.794   6.433 -0.5963  0.7274 -1.2381
   30MOL   H27824696   6.520   3.761   6.421 -0.7855 -2.8322  0.0961
   30MOL   H27924697   6.655   3.643   6.185  0.4109 -1.2268  1.2484
   30MOL   H28024698   6.496   3.690   6.222 -0.3430 -0.6272  0.8550
   30MOL   H28124699   6.718   3.890   6.178 -0.0768 -0.5066 -0.8029
   30MOL   H28224700   6.549   3.930   6.211 -0.3499  0.4903 -1.2639
   30MOL   H28324701   6.656   3.764   5.987  0.5929 -0.1449  0.6703
   30MOL   H28424702   6.492   3.824   5.994  0.8670 -0.6796 -2.2681
   30MOL   H28524703   6.733   4.013   6.003  0.1312 -0.2145  0.0534
   30MOL   H28624704   6.572   4.063   5.970  2.4227  2.2011  0.3953
   30MOL   H28724705   6.572   3.936   5.755 -0.5665 -1.6830  0.9893
   30MOL   H28824706   6.735   3.875   5.774  0.8392  1.4088  1.2867
   30MOL   H28924707   6.681   4.179   5.787  0.3005 -1.1715  0.3714
   30MOL   H29024708   6.833   4.101   5.811  0.3361 -1.3812 -0.2503
   30MOL   H29124709   6.859   4.049   5.571 -0.4555 -0.4128 -0.6561
   30MOL   H29224710   6.691   4.088   5.534 -0.6367 -0.0301 -0.3032
   30MOL   H29324711   6.741   4.323   5.589 -1.8184 -2.2061 -0.5960
   30MOL   H29424712   6.874   4.260   5.481 -2.9872 -1.2820 -1.1759
   30MOL   H29524713   6.906   4.268   5.653 -0.8055  0.5213  0.9167
   30MOL   C29624714   6.906   3.497   6.758 -0.1402  0.7168 -0.4312
   30MOL   C29724715   7.056   3.463   6.728  0.1865 -0.1178 -0.3435
   30MOL   C29824716   7.093   3.541   6.600 -0.3959 -0.0165  0.1337
   30MOL   C29924717   7.238   3.527   6.553  0.3075 -0.4939  0.2906
   30MOL   C30024718   7.248   3.540   6.398 -0.6049 -0.2006 -0.4033
   30MOL   C30124719   7.192   3.671   6.333 -0.0600 -0.1779 -0.1496
   30MOL   C30224720   7.247   3.805   6.391 -0.2367  0.6087 -0.5957
   30MOL   C30324721   7.195   3.925   6.308 -0.5657  0.3935 -0.0155
   30MOL   C30424722   7.256   4.055   6.363  0.1121  0.2189  0.7618
   30MOL   C30524723   7.222   4.174   6.272 -0.4355 -0.0791  0.4275
   30MOL   C30624724   7.284   4.311   6.319  0.4064 -0.3409 -0.3625
   30MOL   C30724725   7.242   4.429   6.241 -0.3523  0.2670 -0.2447
   30MOL   C30824726   7.303   4.440   6.100 -1.0121  0.2610  0.2019
   30MOL   C30924727   7.457   4.458   6.095 -0.2204  0.0548 -0.1220
   30MOL   H31024728   6.873   3.471   6.858 -0.7740  0.3445 -0.7303
   30MOL   H31124729   6.874   3.601   6.758  0.4141  0.9388  2.5500
   30MOL   H31224730   7.070   3.357   6.708 -2.1726 -0.5858  0.2783
   30MOL   H31324731   7.075   3.645   6.624  0.6073 -0.5165  3.3008
   30MOL   H31424732   7.019   3.519   6.523 -1.2529  2.1124  0.3345
   30MOL   H31524733   7.269   3.424   6.571  1.1690 -0.1957  0.5233
   30MOL   H31624734   7.303   3.596   6.606 -1.4891 -0.0481  1.9740
   30MOL   H31724735   7.353   3.529   6.371 -0.1730 -0.0521  1.1667
   30MOL   H31824736   7.187   3.463   6.351 -0.5220 -3.1307  3.9611
   30MOL   H31924737   7.083   3.669   6.336 -0.1267 -0.2283 -2.0295
   30MOL   H32024738   7.205   3.675   6.225 -1.5814  0.8463 -0.3056
   30MOL   H32124739   7.209   3.825   6.491  3.1782  0.2266  0.8457
   30MOL   H32224740   7.355   3.797   6.406 -0.4952  0.0210  1.0471
   30MOL   H32324741   7.086   3.926   6.311 -0.5263  3.5731  2.5756
   30MOL   H32424742   7.223   3.919   6.202 -1.8736  0.2448 -0.3616
   30MOL   H32524743   7.209   4.076   6.459 -0.5010  1.6942  0.1477
   30MOL   H32624744   7.364   4.040   6.364  0.0843 -0.2692 -1.0741
   30MOL   H32724745   7.115   4.193   6.278 -0.1738  1.9393 -1.1421
   30MOL   H32824746   7.249   4.159   6.168 -0.1781  0.8955  0.3531
   30MOL   H32924747   7.392   4.296   6.320  0.5779  0.8392 -0.1424
   30MOL   H33024748   7.248   4.331   6.420  1.3143 -0.7658  0.0478
   30MOL   H33124749   7.271   4.520   6.294 -0.1862  0.6445 -0.9794
   30MOL   H33224750   7.134   4.430   6.226 -0.6064  0.2340  1.4487
   30MOL   H33324751   7.263   4.525   6.045 -0.2010  0.3883 -0.1890
   30MOL   H33424752   7.274   4.352   6.041 -0.7296  0.6191 -0.4658
   30MOL   H33524753   7.510   4.364   6.114  0.3243 -0.0494 -1.9979
   30MOL   H33624754   7.487   4.483   5.993 -1.5910 -0.4087 -0.6568
   30MOL   H33724755   7.487   4.540   6.160 -0.0432  1.1369 -1.5581
   30MOL   C33824756   7.141   3.495   6.848 -0.1163  0.4099  0.5488
   30MOL   C33924757   7.134   3.398   6.963 -0.0921  0.3710  0.3462
   30MOL   C34024758   7.163   3.259   6.914 -0.2279  0.1807 -0.4105
   30MOL   C34124759   7.181   3.164   7.038  0.6227 -1.0682  0.6252
   30MOL   C34224760   7.168   3.020   7.002 -0.5760 -0.5708 -0.0508
   30MOL   C34324761   7.033   2.970   6.951 -0.1168 -0.8274 -0.0494
   30MOL   C34424762   7.040   2.830   6.887 -0.0928 -0.1215  0.2260
   30MOL   C34524763   6.910   2.755   6.858  0.1196 -0.6628  0.6788
   30MOL   C34624764   6.920   2.633   6.770 -0.2645 -0.0625 -0.3345
   30MOL   C34724765   6.940   2.671   6.616  0.0492 -0.5876 -0.1035
   30MOL   C34824766   6.984   2.546   6.529 -0.2057  0.3361 -1.1641
   30MOL   C34924767   6.983   2.568   6.375 -0.2730 -0.0464  0.2349
   30MOL   C35024768   7.085   2.672   6.322  0.4811  0.2752 -0.2687
   30MOL   C35124769   7.089   2.673   6.172  0.0771  0.5130 -0.3780
   30MOL   H35224770   7.245   3.506   6.818  0.0270  2.2171  1.6527
   30MOL   H35324771   7.111   3.595   6.880  0.8507  0.9921 -0.3433
   30MOL   H35424772   7.031   3.400   6.999 -0.3067  3.2879 -0.2619
   30MOL   H35524773   7.077   3.215   6.864 -1.1813  0.8208  0.6330
   30MOL   H35624774   7.256   3.259   6.857  1.1135 -0.4010  1.7009
   30MOL   H35724775   7.110   3.193   7.116  0.6429  2.7730 -0.6581
   30MOL   H35824776   7.282   3.172   7.078 -0.2959 -0.9684  3.0056
   30MOL   H35924777   7.198   2.960   7.088  0.4418 -1.1183 -0.7757
   30MOL   H36024778   7.248   2.996   6.932  0.9906 -0.0934  1.5616
   30MOL   H36124779   6.967   2.973   7.038 -0.4460 -3.1878 -0.1734
   30MOL   H36224780   6.986   3.033   6.876  0.0071  2.0220  2.1742
   30MOL   H36324781   7.095   2.847   6.794  1.5429 -0.9643  1.0138
   30MOL   H36424782   7.105   2.772   6.951 -0.9703  1.0886  2.2435
   30MOL   H36524783   6.860   2.728   6.951  3.0728 -2.8026  1.7194
   30MOL   H36624784   6.845   2.829   6.812  2.0128 -0.0336 -1.0537
   30MOL   H36724785   6.996   2.569   6.814 -2.3741 -0.5297  2.7754
   30MOL   H36824786   6.826   2.578   6.769 -0.3180  0.0301 -0.2533
   30MOL   H36924787   6.857   2.711   6.559 -0.1821 -2.0101 -0.7789
   30MOL   H37024788   7.024   2.740   6.603 -2.3629  2.1928 -1.4979
   30MOL   H37124789   6.910   2.470   6.549 -0.1760  0.7585  0.5875
   30MOL   H37224790   7.086   2.509   6.546 -0.2147  0.1116 -1.5866
   30MOL   H37324791   6.881   2.600   6.356 -0.3671 -1.1726 -1.2721
   30MOL   H37424792   6.997   2.471   6.327  0.0716  0.1134  0.0043
   30MOL   H37524793   7.055   2.768   6.364 -2.4810 -1.2749  1.3389
   30MOL   H37624794   7.185   2.645   6.356  0.0940 -0.1629  0.5653
   30MOL   H37724795   7.145   2.587   6.135  0.1883 -0.4677  2.0039
   30MOL   H37824796   6.987   2.680   6.133 -0.1214  1.0477  0.2290
   30MOL   H37924797   7.130   2.768   6.139 -1.3773  0.5404 -2.2324
   30MOL   C38024798   7.231   3.447   7.078 -0.0404 -0.6058  0.4582
   30MOL   C38124799   7.193   3.582   7.145  0.3317  0.0326  0.1742
   30MOL   C38224800   7.054   3.571   7.211 -0.6085 -0.3423  0.3091
   30MOL   C38324801   6.941   3.639   7.139  0.6302 -0.5399  0.1855
   30MOL   C38424802   6.806   3.635   7.212 -0.1459  0.3772 -0.0544
   30MOL   C38524803   6.701   3.745   7.178  0.6502  0.0495 -0.4023
   30MOL   C38624804   6.664   3.754   7.029 -0.0180 -0.0815 -0.3337
   30MOL   C38724805   6.519   3.815   7.018  0.0829  0.3172 -0.3409
   30MOL   C38824806   6.464   3.825   6.875  0.5467 -0.6397  0.3806
   30MOL   C38924807   6.325   3.898   6.873  0.5227 -0.2050  0.0394
   30MOL   C39024808   6.263   3.933   6.737 -0.2441  0.3356 -0.3552
   30MOL   C39124809   6.250   3.810   6.637 -0.9458 -0.4678  0.1414
   30MOL   C39224810   6.209   3.870   6.498 -1.1041 -0.0013 -0.4430
   30MOL   C39324811   6.153   3.760   6.400  0.7091 -0.0760 -0.1936
   30MOL   H39424812   7.333   3.443   7.038 -0.5137 -0.2013 -0.8219
   30MOL   H39524813   7.227   3.383   7.166  0.6621  0.6595  1.4315
   30MOL   H39624814   7.197   3.656   7.065  4.0138  0.2934  0.5079
   30MOL   H39724815   7.050   3.605   7.314  2.3985 -2.0260  1.0235
   30MOL   H39824816   7.028   3.466   7.221 -0.8955 -0.3174 -0.1586
   30MOL   H39924817   6.921   3.598   7.040  0.1266 -0.9586  0.4633
   30MOL   H40024818   6.977   3.741   7.122 -0.3770 -0.5290 -2.1122
   30MOL   H40124819   6.824   3.627   7.319 -3.1754 -1.6687  0.3943
   30MOL   H40224820   6.772   3.532   7.202  2.1255 -0.3864 -0.0877
   30MOL   H40324821   6.752   3.839   7.200  0.0307  0.5037 -0.8896
   30MOL   H40424822   6.608   3.734   7.233 -1.7559  3.5807 -3.4654
   30MOL   H40524823   6.747   3.803   6.978  1.4175 -2.2240 -0.1116
   30MOL   H40624824   6.658   3.655   6.982  1.1297 -0.3176  0.0108
   30MOL   H40724825   6.450   3.746   7.066 -0.1081  0.4418 -0.4383
   30MOL   H40824826   6.522   3.914   7.064 -1.9379 -0.4943  1.5863
   30MOL   H40924827   6.530   3.900   6.831  0.4084 -0.4521  0.4947
   30MOL   H41024828   6.465   3.725   6.832 -0.1605 -0.6688  0.4375
   30MOL   H41124829   6.333   3.981   6.942  2.0325 -0.8929  0.7212
   30MOL   H41224830   6.252   3.836   6.925  0.3820  0.2129  0.3371
   30MOL   H41324831   6.171   3.989   6.755  0.4638  0.6160  2.7185
   30MOL   H41424832   6.324   4.008   6.687 -0.2222  1.0684  0.7444
   30MOL   H41524833   6.173   3.748   6.681  1.7056 -2.0951  2.6896
   30MOL   H41624834   6.336   3.743   6.641  0.4450  1.2324 -0.2628
   30MOL   H41724835   6.121   3.931   6.520 -0.7124  0.2887  0.3354
   30MOL   H41824836   6.286   3.930   6.450 -0.3734 -0.5712  0.0014
   30MOL   H41924837   6.102   3.683   6.457 -0.6341  0.8257 -0.1618
   30MOL   H42024838   6.233   3.721   6.338  0.0847 -0.7422 -0.5826
   30MOL   H42124839   6.080   3.805   6.332  0.3423  0.3595  0.4797
   30MOL   C42224840   7.307   3.620   7.241  0.4603  0.0287  0.0629
   30MOL   C42324841   7.289   3.762   7.302 -0.0820 -1.3406 -0.3458
   30MOL   C42424842   7.374   3.778   7.429 -0.2402 -0.1439  0.2311
   30MOL   C42524843   7.324   3.910   7.510 -0.0285  0.3350 -0.8806
   30MOL   C42624844   7.395   3.922   7.647 -0.7245 -0.0508  0.3047
   30MOL   C42724845   7.544   3.965   7.620  1.0256 -0.6444 -0.4676
   30MOL   C42824846   7.628   3.999   0.048 -1.1130  0.1941 -0.4328
   30MOL   C42924847   0.090   3.980   0.022  0.2798 -0.7068  0.3235
   30MOL   C43024848   0.170   3.987   0.149  0.9088 -0.7126 -0.2306
   30MOL   C43124849   0.314   3.933   0.130  0.2460 -0.6026  1.0234
   30MOL   C43224850   0.396   3.910   0.258  0.4492 -0.2363 -0.3191
   30MOL   C43324851   0.546   3.882   0.237  1.0453 -0.7054 -0.0483
   30MOL   C43424852   0.579   3.756   0.154 -0.3272  0.3115  0.4393
   30MOL   C43524853   0.730   3.732   0.139 -0.1807 -0.2569 -0.1919
   30MOL   H43624854   7.407   3.616   7.196  1.7383  1.5600  2.6843
   30MOL   H43724855   7.302   3.554   7.327 -3.5873  0.8879  0.5743
   30MOL   H43824856   7.182   3.762   7.325 -0.2390  2.1737 -0.7081
   30MOL   H43924857   7.475   3.783   7.389  0.8091  2.1091  2.9727
   30MOL   H44024858   7.376   3.688   7.491  2.3382 -0.9746 -0.9642
   30MOL   H44124859   7.346   3.996   7.448  1.8487 -0.5329 -1.4596
   30MOL   H44224860   7.218   3.894   7.530  0.2155 -1.5819 -0.9738
   30MOL   H44324861   7.397   3.829   0.009  2.5499  0.7829  1.6581
   30MOL   H44424862   7.336   3.989   0.013  0.5190 -0.7568  2.3134
   30MOL   H44524863   7.548   4.045   7.545  2.7085  1.6180  1.9368
   30MOL   H44624864   7.587   3.875   7.578  3.7002  0.2654  0.2404
   30MOL   H44724865   7.604   4.095   0.093 -1.5657  0.0983 -0.4683
   30MOL   H44824866   7.588   3.920   0.113  0.2325 -0.4967 -0.4211
   30MOL   H44924867   0.096   3.883   7.667  0.1045 -1.6819  2.1261
   30MOL   H45024868   0.126   4.050   7.643 -2.1537 -0.9657 -1.1739
   30MOL   H45124869   0.177   4.094   0.168  1.1609 -1.1045  2.0166
   30MOL   H45224870   0.122   3.947   0.238  2.9330 -0.5483  0.9665
   30MOL   H45324871   0.304   3.838   0.079 -0.2993  0.0497 -0.1087
   30MOL   H45424872   0.373   3.991   0.058 -1.1231  0.3875  0.6735
   30MOL   H45524873   0.401   4.007   0.309  0.8826 -0.3467 -0.1463
   30MOL   H45624874   0.355   3.837   0.328  1.2041  0.3953  0.8075
   30MOL   H45724875   0.589   3.860   0.335 -1.4006  1.6204  1.6575
   30MOL   H45824876   0.599   3.968   0.196  1.4642 -0.2052  1.4846
   30MOL   H45924877   0.531   3.675   0.209 -2.1663 -0.0963 -1.6909
   30MOL   H46024878   0.529   3.767   0.058  0.0195 -0.9878  0.1116
   30MOL   H46124879   0.766   3.763   0.237  0.3552 -1.1478 -0.1012
   30MOL   H46224880   0.767   3.804   0.067 -0.0283 -1.9114 -1.8272
   30MOL   H46324881   0.765   3.631   0.115  2.0052  0.7864 -1.5380
   30MOL   C46424882   7.324   3.870   7.191 -0.4460  0.2795  0.1079
   30MOL   C46524883   7.202   3.956   7.135  0.2578 -0.0550 -0.0546
   30MOL   C46624884   7.154   4.057   7.239 -0.3658 -0.4535  0.2748
   30MOL   C46724885   7.038   4.156   7.192  0.5119  0.1597  0.1732
   30MOL   C46824886   6.895   4.084   7.170 -0.1024  0.0013  0.3082
   30MOL   C46924887   6.773   4.178   7.152 -0.1646  0.1476 -0.7432
   30MOL   C47024888   6.758   4.225   7.009  0.4219 -0.0024  0.2343
   30MOL   C47124889   6.638   4.316   6.987  0.2022 -0.1053 -0.2686
   30MOL   C47224890   6.607   4.346   6.835  0.3319  0.5670 -0.5141
   30MOL   C47324891   6.549   4.488   6.804  0.5220  0.0237 -0.5307
   30MOL   C47424892   6.514   4.502   6.656 -0.6555 -0.0066  0.0600
   30MOL   C47524893   6.443   4.634   6.628  0.6085  0.3675  0.1185
   30MOL   C47624894   6.545   4.748   6.599 -0.0977 -0.0723 -0.1244
   30MOL   C47724895   6.468   4.870   6.545 -0.3018 -0.3841  0.4384
   30MOL   H47824896   7.377   3.835   7.103  0.3491 -1.3760  1.2100
   30MOL   H47924897   7.384   3.947   7.240  0.7058  0.7498 -2.0028
   30MOL   H48024898   7.117   3.893   7.110 -0.4920  0.4532  1.2087
   30MOL   H48124899   7.122   4.002   7.328 -0.4795 -2.5605 -1.0402
   30MOL   H48224900   7.235   4.123   7.271  0.6525 -1.1596 -0.7775
   30MOL   H48324901   7.064   4.207   7.099 -0.3040  0.2078 -0.0291
   30MOL   H48424902   7.021   4.229   7.271  1.5720 -0.6043  1.1259
   30MOL   H48524903   6.872   4.028   7.261  1.1083  1.7773  1.7435
   30MOL   H48624904   6.907   4.019   7.083  0.6388  0.6771 -0.0995
   30MOL   H48724905   6.684   4.122   7.180  0.5794 -0.3202  0.7340
   30MOL   H48824906   6.776   4.253   7.231  0.0275  1.0502 -1.5998
   30MOL   H48924907   6.832   4.295   6.970 -0.3659  0.5584 -0.2949
   30MOL   H49024908   6.755   4.139   6.942  1.2223 -2.3462  3.1210
   30MOL   H49124909   6.552   4.265   7.031 -1.2477  0.4767 -2.3878
   30MOL   H49224910   6.659   4.413   7.031  0.3936 -0.3100  0.0943
   30MOL   H49324911   6.701   4.331   6.781 -1.5790  0.0033 -3.8260
   30MOL   H49424912   6.539   4.275   6.789  0.6568 -0.0920  0.0171
   30MOL   H49524913   6.459   4.492   6.865  0.5301 -1.3941 -0.3951
   30MOL   H49624914   6.619   4.561   6.844  0.5517 -0.2490 -0.0771
   30MOL   H49724915   6.594   4.475   6.588  0.5514  1.5048  0.8488
   30MOL   H49824916   6.431   4.433   6.640  1.2256 -1.8983 -1.9476
   30MOL   H49924917   6.375   4.655   6.710  1.6756 -2.0347  1.6724
   30MOL   H50024918   6.387   4.617   6.536  0.7094  1.6854 -0.2077
   30MOL   H50124919   6.600   4.779   6.689 -1.0236 -1.5311  0.9634
   30MOL   H50224920   6.631   4.737   6.533  1.1768 -0.5427  1.5598
   30MOL   H50324921   6.494   4.967   6.586 -1.0716  1.8954 -4.1826
   30MOL   H50424922   6.487   4.873   6.438  0.5368 -0.9988  0.5642
   30MOL   H50524923   6.360   4.856   6.553 -0.3514 -0.2672 -0.0605
   30MOL   C50624924   7.244   4.027   7.000  0.7852  0.4127 -0.3091
   30MOL   C50724925   7.263   3.937   6.880 -0.1017 -0.1513 -0.0551
   30MOL   C50824926   7.132   3.870   6.827  0.1066  0.3214  0.0069
   30MOL   C50924927   7.024   3.973   6.768 -0.3270  0.3243 -0.4190
   30MOL   C51024928   6.912   3.895   6.708  0.6522  0.0120 -0.0958
   30MOL   C51124929   6.804   3.979   6.648  1.1065  0.4979 -0.3308
   30MOL   C51224930   6.856   4.056   6.523  0.4725  1.0730  0.6185
   30MOL   C51324931   6.741   4.130   6.455  0.2865 -0.1338 -0.2830
   30MOL   C51424932   6.786   4.200   6.327 -0.0214 -0.6524 -0.4016
   30MOL   C51524933   6.680   4.297   6.268 -0.6013 -0.2498  0.4851
   30MOL   C51624934   6.708   4.358   6.128  0.0106  0.5265  0.1494
   30MOL   C51724935   6.833   4.441   6.121 -0.0840  0.3963 -0.9316
   30MOL   C51824936   6.832   4.518   5.986 -0.6983 -0.3959 -0.4088
   30MOL   C51924937   6.871   4.428   5.872 -0.0094 -0.4310  0.4778
   30MOL   H52024938   7.344   4.068   7.014  0.8225  0.2961 -0.2355
   30MOL   H52124939   7.168   4.098   6.967 -0.7947 -1.1373 -0.0444
   30MOL   H52224940   7.317   3.848   6.912 -0.1527  0.1864  0.9642
   30MOL   H52324941   7.155   3.800   6.747 -0.6681  3.1147 -2.7344
   30MOL   H52424942   7.065   3.815   6.893 -0.8959 -0.0548 -1.3050
   30MOL   H52524943   6.988   4.040   6.846  1.8799 -0.6254  1.4939
   30MOL   H52624944   7.072   4.038   6.695  1.1120  1.1721  1.2382
   30MOL   H52724945   6.882   3.812   6.773  2.4460  0.1458  0.9339
   30MOL   H52824946   6.959   3.838   6.628  0.0612 -0.2699 -0.2501
   30MOL   H52924947   6.760   4.038   6.728 -0.1763 -2.0992  0.9317
   30MOL   H53024948   6.732   3.904   6.618  1.6838 -0.5947  0.9700
   30MOL   H53124949   6.929   4.130   6.556  0.2727  1.2014  0.7788
   30MOL   H53224950   6.899   3.996   6.442  0.0902  1.8954 -0.2098
   30MOL   H53324951   6.703   4.196   6.533  1.6701  0.1121  0.1924
   30MOL   H53424952   6.666   4.061   6.415  0.6824  0.1674 -1.5395
   30MOL   H53524953   6.809   4.130   6.247 -2.1828 -0.1062 -1.5413
   30MOL   H53624954   6.874   4.260   6.349  0.0392 -0.1628 -1.8878
   30MOL   H53724955   6.589   4.236   6.270 -0.2357 -0.8564 -0.9311
   30MOL   H53824956   6.660   4.374   6.343  2.9169  0.8852  0.3524
   30MOL   H53924957   6.713   4.285   6.047 -0.9262 -0.1982  0.7341
   30MOL   H54024958   6.624   4.423   6.103 -1.1447 -1.1945 -0.5406
   30MOL   H54124959   6.919   4.375   6.116 -0.3870 -0.1454  0.6629
   30MOL   H54224960   6.839   4.504   6.210  2.7691 -2.8101  1.2522
   30MOL   H54324961   6.912   4.593   5.984  0.2778 -1.3978  0.1886
   30MOL   H54424962   6.735   4.565   5.971 -0.7781 -0.4663 -0.1152
   30MOL   H54524963   6.961   4.368   5.885 -0.2477 -0.8901 -0.0266
   30MOL   H54624964   6.794   4.355   5.848  0.0953  0.0619 -1.4131
   30MOL   H54724965   6.876   4.486   5.780 -0.5313 -1.5065 -0.2211
   30MOL   C54824966   7.349   4.002   6.760 -0.1529  0.0474 -0.0197
   30MOL   C54924967   7.504   4.028   6.778  0.3525 -0.6656  0.3736
   30MOL   C55024968   7.578   3.902   6.720  0.1058 -0.0431 -0.3421
   30MOL   C55124969   7.544   3.774   6.805  0.5872 -0.1013 -0.2887
   30MOL   C55224970   7.633   3.653   6.770 -0.2095 -0.3219  0.1373
   30MOL   C55324971   7.563   3.534   6.831  0.0041  0.3994 -0.4452
   30MOL   C55424972   7.622   3.397   6.787 -0.2506  0.0751  0.0738
   30MOL   C55524973   7.573   3.293   6.887 -0.1962  0.1017 -0.2427
   30MOL   C55624974   7.617   3.146   6.883  0.0520 -0.4361  0.5361
   30MOL   C55724975   0.076   3.128   6.896  0.2958  0.4707  0.0097
   30MOL   C55824976   0.120   2.977   6.903 -0.5170 -0.2307 -0.2709
   30MOL   C55924977   0.277   2.962   6.901  0.8754  1.0733  0.1964
   30MOL   C56024978   0.349   3.051   7.002  0.4356  0.0842 -0.1215
   30MOL   C56124979   0.505   3.050   6.996 -0.4906 -0.3160  0.1109
   30MOL   H56224980   7.324   3.942   6.673 -0.5442 -0.4814  0.4555
   30MOL   H56324981   7.289   4.092   6.747 -1.0473 -0.6767 -1.0321
   30MOL   H56424982   7.535   4.055   6.879 -3.2015  2.1836  0.7960
   30MOL   H56524983   7.570   3.882   6.613 -0.0473  2.3897 -0.8224
   30MOL   H56624984   7.685   3.910   6.738  0.5744 -1.3274 -2.3850
   30MOL   H56724985   7.442   3.751   6.773 -0.4791  2.3207  1.1609
   30MOL   H56824986   7.543   3.798   6.911  0.4795 -3.9920  0.6383
   30MOL   H56924987   7.631   3.640   6.662 -2.6034  3.4515 -0.3809
   30MOL   H57024988   0.040   3.670   6.803  0.0594  0.3118 -1.0014
   30MOL   H57124989   7.460   3.527   6.796 -0.0372  1.3229 -0.5195
   30MOL   H57224990   7.554   3.552   6.938  1.9588 -0.4165 -0.1110
   30MOL   H57324991   7.599   3.363   6.686 -0.6028  1.1605 -0.2123
   30MOL   H57424992   0.035   3.405   6.789 -0.1699 -1.0206  1.1434
   30MOL   H57524993   7.464   3.296   6.879 -0.4010 -0.1591  2.1366
   30MOL   H57624994   7.600   3.332   6.985  2.1278 -1.7030 -0.1115
   30MOL   H57724995   7.591   3.106   6.785 -0.2753 -0.1041  0.4849
   30MOL   H57824996   7.569   3.086   6.961  1.3565 -2.5569 -0.2622
   30MOL   H57924997   0.125   3.184   6.816  1.2618 -1.6580 -0.9446
   30MOL   H58024998   0.104   3.180   6.987 -1.1806 -1.8536  1.8456
   30MOL   H58124999   0.084   2.923   6.815 -0.9233 -0.5777  0.1069
   30MOL   H58225000   0.064   2.935   6.987 -1.5583 -2.4881 -2.0230
   30MOL   H58325001   0.310   2.861   6.925  0.7392  1.2035  0.9271
   30MOL   H58425002   0.300   2.976   6.795  0.8443 -1.5652 -0.1951
   30MOL   H58525003   0.314   3.154   7.001 -2.0543 -0.7084  0.8127
   30MOL   H58625004   0.320   3.019   7.102  0.5879  0.2476 -0.0244
   30MOL   H58725005   0.536   3.115   6.914 -1.1480 -0.4922 -0.2871
   30MOL   H58825006   0.532   3.095   7.091  0.5756  1.3093 -0.9375
   30MOL   H58925007   0.556   2.953   6.999 -0.4740 -0.3187 -0.2371
   30MOL   C59025008   7.535   4.162   6.693  0.5611  0.4715 -0.0197
   30MOL   C59125009   7.676   4.217   6.692 -0.0785  0.6805 -0.7499
   30MOL   C59225010   0.003   4.330   6.595  0.0478 -0.0499  0.0634
   30MOL   C59325011   7.614   4.459   6.614  0.6494  0.0950 -0.0299
   30MOL   C59425012   7.642   4.574   6.509 -0.4756 -0.4795  0.1386
   30MOL   C59525013   7.533   4.677   6.504 -0.1968 -0.4413 -0.3636
   30MOL   C59625014   7.555   4.771   6.382 -0.0269  0.5819 -0.5598
   30MOL   C59725015   7.433   4.859   6.358  0.5918 -0.0569  0.1093
   30MOL   C59825016   7.464   4.949   6.239  0.6988  0.0999  0.4197
   30MOL   C59925017   7.339   5.021   6.178 -0.4149 -0.6519  0.4263
   30MOL   C60025018   7.260   4.924   6.085 -0.3235 -0.3774  0.3279
   30MOL   C60125019   7.155   5.000   5.998  0.1077  0.3283 -0.4783
   30MOL   C60225020   7.043   4.913   5.932 -0.0879 -0.4806 -0.0676
   30MOL   C60325021   6.928   4.983   5.850 -0.1415 -0.5405 -0.1379
   30MOL   H60425022   7.464   4.234   6.735 -0.1099  0.4051 -1.0302
   30MOL   H60525023   7.509   4.145   6.589  0.1535 -1.2435  0.3481
   30MOL   H60625024   0.049   4.143   6.649 -2.5883 -1.3632 -1.3091
   30MOL   H60725025   0.001   4.292   6.493 -2.1276  1.1332 -0.3419
   30MOL   H60825026   0.106   4.364   6.605  0.6910 -0.8400 -3.1888
   30MOL   H60925027   7.628   4.504   6.713  0.3682 -1.4930  0.7408
   30MOL   H61025028   7.509   4.431   6.615  0.8494 -0.7179  2.1735
   30MOL   H61125029   7.639   4.528   6.411 -1.6900  0.0377 -0.0681
   30MOL   H61225030   0.041   4.619   6.541  0.6126 -1.8689 -1.0304
   30MOL   H61325031   7.531   4.728   6.600 -0.7799  0.2693 -0.7450
   30MOL   H61425032   7.437   4.624   6.504 -0.7655  0.5755  0.2723
   30MOL   H61525033   7.636   4.841   6.398  0.3823 -0.4858  2.3963
   30MOL   H61625034   7.566   4.705   6.296  1.4247 -2.1828  1.6532
   30MOL   H61725035   7.347   4.798   6.332  0.9819 -0.7597  0.4744
   30MOL   H61825036   7.401   4.903   6.453  2.2716  1.6980 -0.0928
   30MOL   H61925037   7.538   5.021   6.274 -0.2004  1.3445 -0.2207
   30MOL   H62025038   7.508   4.877   6.169 -0.3310 -0.2227  0.0982
   30MOL   H62125039   7.273   5.045   6.261 -0.1229 -1.3648  0.8738
   30MOL   H62225040   7.361   5.113   6.125 -1.1565 -0.7400 -0.0341
   30MOL   H62325041   7.216   4.853   6.155 -0.0704  0.2984  1.1672
   30MOL   H62425042   7.341   4.873   6.032  0.2377 -1.4984  2.2245
   30MOL   H62525043   7.204   5.058   5.920  1.9594  0.5903  0.8477
   30MOL   H62625044   7.106   5.068   6.068  1.1208  2.3064 -1.6568
   30MOL   H62725045   7.080   4.836   5.865  1.8455 -0.2658  0.7160
   30MOL   H62825046   6.991   4.847   6.001  1.0925 -1.7999 -0.4170
   30MOL   H62925047   6.984   5.038   5.775  0.0716 -1.7337 -0.8638
   30MOL   H63025048   6.871   5.042   5.922  1.6988  0.3108  0.6565
   30MOL   H63125049   6.855   4.912   5.810 -0.3438 -1.0369  1.0771
   30MOL   C63225050   0.033   4.261   6.834 -0.2251  0.3546 -0.0119
   30MOL   C63325051   0.155   4.175   6.884  0.1738  0.1484  0.8048
   30MOL   C63425052   0.277   4.200   6.794 -0.8970  0.3073  0.3346
   30MOL   C63525053   0.354   4.331   6.818 -0.1129 -0.2621 -0.0569
   30MOL   C63625054   0.470   4.349   6.713 -0.3532 -0.0928  0.1714
   30MOL   C63725055   0.550   4.481   6.734  0.2083  0.0754  0.4974
   30MOL   C63825056   0.686   4.487   6.666 -0.2292 -0.4092 -0.2896
   30MOL   C63925057   0.808   4.418   6.756  0.5038  0.4416  0.4318
   30MOL   C64025058   0.942   4.447   6.689 -0.1299  0.0873  0.9306
   30MOL   C64125059   1.059   4.401   6.767 -1.1339 -0.0438  0.5633
   30MOL   C64225060   1.204   4.447   6.716  0.0634  0.5003 -0.4142
   30MOL   C64325061   1.237   4.594   6.705  0.0515 -0.3683 -0.0928
   30MOL   C64425062   1.267   4.659   6.839 -0.5392 -0.1759 -0.1503
   30MOL   C64525063   1.379   4.768   6.842  0.6163 -0.2769  0.2687
   30MOL   H64625064   7.647   4.239   6.902 -0.3698  2.5710  0.5894
   30MOL   H64725065   0.062   4.366   6.843 -0.0075  0.2820  0.1327
   30MOL   H64825066   0.126   4.073   6.862  3.8255 -0.8263  0.0679
   30MOL   H64925067   0.341   4.120   6.831 -0.5032  0.6872  0.4788
   30MOL   H65025068   0.260   4.176   6.689  1.1989 -0.3078  0.0992
   30MOL   H65125069   0.407   4.325   6.913  0.9782 -0.7119 -0.6915
   30MOL   H65225070   0.287   4.417   6.819 -0.2288 -0.3560  1.3630
   30MOL   H65325071   0.420   4.349   6.616 -1.0861  1.7101  0.5442
   30MOL   H65425072   0.538   4.264   6.720  0.4390  0.4322 -0.9855
   30MOL   H65525073   0.490   4.562   6.693  0.2375 -1.6027 -3.0882
   30MOL   H65625074   0.558   4.511   6.838  0.7042 -1.2465  0.8597
   30MOL   H65725075   0.679   4.452   6.563 -1.7393 -4.1737  1.0220
   30MOL   H65825076   0.714   4.592   6.657 -0.5647 -0.2264  0.6587
   30MOL   H65925077   0.794   4.310   6.759 -0.4924  0.5551  0.2107
   30MOL   H66025078   0.801   4.453   6.859 -0.6547 -1.2301  0.9433
   30MOL   H66125079   0.936   4.555   6.680 -0.8197  0.0320  0.7088
   30MOL   H66225080   0.932   4.398   6.592 -2.1261  1.1175  0.5993
   30MOL   H66325081   1.038   4.434   6.869 -2.9560 -0.7394  0.4346
   30MOL   H66425082   1.056   4.292   6.763 -3.4241 -0.0901  2.4249
   30MOL   H66525083   1.283   4.409   6.780 -0.0297 -0.5158 -0.8961
   30MOL   H66625084   1.220   4.402   6.618 -0.2678  0.7910 -0.6038
   30MOL   H66725085   1.178   4.655   6.636  3.9319  1.9155 -1.5901
   30MOL   H66825086   1.338   4.592   6.664  0.6017 -0.1647  1.2452
   30MOL   H66925087   1.295   4.594   6.923  2.3354  1.2394  0.0581
   30MOL   H67025088   1.169   4.696   6.869 -1.8093 -3.5427  0.0140
   30MOL   H67125089   1.401   4.801   6.943 -1.5259 -2.8669  1.6365
   30MOL   H67225090   1.469   4.717   6.805  0.5596  0.1822 -0.5115
   30MOL   H67325091   1.350   4.839   6.764 -0.3232 -1.0161 -0.0650
   30MOL   C67425092   0.181   4.195   7.037 -0.6940  0.0016 -0.8386
   30MOL   C67525093   0.093   4.108   7.133 -0.1621  0.0941  0.5520
   30MOL   C67625094   0.164   3.975   7.170 -0.0130  0.4702  0.3414
   30MOL   C67725095   0.173   3.867   7.062  0.1522 -0.7012 -0.0886
   30MOL   C67825096   0.180   3.719   7.110  0.3425 -0.0286  0.2025
   30MOL   C67925097   0.047   3.658   7.167  0.2513  0.0353 -0.7885
   30MOL   C68025098   0.052   3.507   7.205  0.4192  0.2753  0.0253
   30MOL   C68125099   7.615   3.440   7.236  0.0939 -0.4168 -0.0602
   30MOL   C68225100   7.617   3.287   7.272  0.4745  0.0703  0.3790
   30MOL   C68325101   7.476   3.236   7.312 -0.1457 -0.5704  0.5576
   30MOL   C68425102   7.448   3.085   7.314 -0.6252 -0.1953  0.4150
   30MOL   C68525103   7.548   3.012   7.398  0.5123 -0.0131 -0.4081
   30MOL   C68625104   7.528   2.862   7.401 -0.0865 -0.2173 -0.0339
   30MOL   C68725105   7.578   2.801   7.270  0.0732 -0.2548  0.4813
   30MOL   H68825106   0.180   4.296   7.079  1.2697 -0.4974  0.4701
   30MOL   H68925107   0.282   4.158   7.055 -1.9051 -2.3838  1.4480
   30MOL   H69025108   0.004   4.073   7.081  1.2317  0.3817 -2.0946
   30MOL   H69125109   0.264   3.991   7.210 -0.4863 -0.6900  2.0180
   30MOL   H69225110   0.107   3.931   7.252 -1.0547 -0.7394 -1.0083
   30MOL   H69325111   0.091   3.875   6.991 -1.4946  1.0622  1.9557
   30MOL   H69425112   0.255   3.885   6.992 -1.4766  0.8665 -1.6437
   30MOL   H69525113   0.210   3.667   7.019  0.3762  1.3889 -0.6103
   30MOL   H69625114   0.246   3.715   7.197  1.4357  0.7326 -0.5699
   30MOL   H69725115   0.022   3.708   7.260  2.0223  0.0625 -0.3213
   30MOL   H69825116   7.671   3.678   7.087  1.1782  1.2572 -1.3401
   30MOL   H69925117   0.088   3.452   7.118 -1.9821 -0.3859 -0.5824
   30MOL   H70025118   0.122   3.486   7.285 -1.2349 -1.1070  1.1536
   30MOL   H70125119   7.588   3.498   7.324  0.4771 -0.7261  0.2644
   30MOL   H70225120   7.535   3.457   7.164  1.1922  0.3485 -1.1131
   30MOL   H70325121   7.657   3.227   7.190  1.8111  0.2801  0.8693
   30MOL   H70425122   7.690   3.267   7.351 -0.3276  0.1083  1.1393
   30MOL   H70525123   7.400   3.276   7.245 -0.8767 -1.0702  1.0832
   30MOL   H70625124   7.454   3.264   7.415  0.7014 -1.9581  1.1325
   30MOL   H70725125   7.450   3.051   7.211 -2.9955  1.3261 -0.1658
   30MOL   H70825126   7.346   3.077   7.351 -0.7034 -0.4499  0.1433
   30MOL   H70925127   7.526   3.047   7.498 -0.3668 -3.1469  0.5600
   30MOL   H71025128   7.647   3.056   7.387 -0.2180  1.9052  0.4540
   30MOL   H71125129   7.578   2.810   7.482 -2.5789 -2.2317  0.2842
   30MOL   H71225130   7.423   2.840   7.419 -0.3711  1.0937  0.0064
   30MOL   H71325131   7.520   2.838   7.186  2.1819  0.6189 -0.6269
   30MOL   H71425132   7.680   2.823   7.240 -0.2915 -0.7772 -1.1748
   30MOL   H71525133   7.574   2.692   7.267 -1.8839 -0.1501 -1.9086
   30MOL   C71625134   0.067   4.183   7.257  0.0471 -0.2553 -0.4774
   30MOL   C71725135   7.670   4.305   7.251 -0.2198  0.1874 -0.1015
   30MOL   C71825136   7.535   4.278   7.185 -0.2188 -0.2140  0.2708
   30MOL   C71925137   7.473   4.404   7.110 -0.1583  0.0301  1.0312
   30MOL   C72025138   7.346   4.378   7.029  0.3309 -0.4783 -0.3330
   30MOL   C72125139   7.289   4.512   6.976  0.5220 -0.2920 -0.6263
   30MOL   C72225140   7.198   4.482   6.855 -0.6945 -0.1545  0.7671
   30MOL   C72325141   7.171   4.604   6.768  0.2786  0.1493 -0.5661
   30MOL   C72425142   7.082   4.579   6.649 -0.2933  0.3966 -0.3619
   30MOL   C72525143   7.061   4.715   6.575  0.0076 -0.5203  0.5768
   30MOL   C72625144   6.965   4.693   6.461  0.4149  0.1545 -0.1407
   30MOL   C72725145   6.913   4.826   6.397  0.2733 -0.4847 -0.1755
   30MOL   C72825146   6.831   4.819   6.271 -0.5735 -0.1570  0.1703
   30MOL   C72925147   6.778   4.959   6.227  0.1705 -0.2875  0.4042
   30MOL   H73025148   0.022   4.119   7.334  3.2345 -0.1758  1.5055
   30MOL   H73125149   0.164   4.211   7.296  0.0051  1.8697 -1.8333
   30MOL   H73225150   0.020   4.377   7.183 -1.5866  1.4184  0.2439
   30MOL   H73325151   7.467   4.244   7.263  0.5907 -2.1753  0.1580
   30MOL   H73425152   7.548   4.205   7.105  2.8344  1.5441 -0.9254
   30MOL   H73525153   7.452   4.470   7.194 -1.9645 -0.1446  0.7355
   30MOL   H73625154   7.548   4.442   7.041 -1.6387  2.3748  0.6646
   30MOL   H73725155   7.375   4.314   6.945  3.0726  2.7144 -1.9735
   30MOL   H73825156   7.274   4.326   7.092  0.6682 -0.6714 -0.1040
   30MOL   H73925157   7.228   4.555   7.055 -0.1817 -0.7919 -0.8991
   30MOL   H74025158   7.366   4.588   6.962 -0.1696  0.6516  0.5888
   30MOL   H74125159   7.232   4.404   6.787 -3.7578 -0.2694 -0.6943
   30MOL   H74225160   7.103   4.441   6.888 -1.0289  0.5455  0.6644
   30MOL   H74325161   7.262   4.646   6.727  0.0966  1.9814  0.8438
   30MOL   H74425162   7.113   4.676   6.826 -1.4626 -1.1775 -0.5914
   30MOL   H74525163   7.128   4.506   6.582  1.2770  0.9769  0.0579
   30MOL   H74625164   6.992   4.527   6.682 -0.8694  2.7490  1.9147
   30MOL   H74725165   7.027   4.780   6.655  1.9669  0.5880  0.5247
   30MOL   H74825166   7.149   4.772   6.545 -2.3751  2.0023 -1.9173
   30MOL   H74925167   7.013   4.640   6.379 -0.0976 -1.7346  0.7497
   30MOL   H75025168   6.879   4.628   6.481  0.6844 -0.0205  0.4468
   30MOL   H75125169   6.858   4.874   6.477 -1.9669 -2.6488 -0.3470
   30MOL   H75225170   6.998   4.887   6.368  1.5257 -1.9946  0.2485
   30MOL   H75325171   6.743   4.760   6.294 -0.6074  0.3229  1.2774
   30MOL   H75425172   6.882   4.763   6.192  2.4166  0.6058  1.4934
   30MOL   H75525173   6.724   5.017   6.302  0.0432  1.3473 -0.9280
   30MOL   H75625174   6.713   4.945   6.141  0.1691  0.0123  0.3578
   30MOL   H75725175   6.861   5.012   6.180  0.8158 -1.7980 -0.1829
   30MOL   C75825176   7.644   4.379   7.391 -0.2458  0.1143 -0.0245
   30MOL   C75925177   0.068   4.421   7.473  0.4572 -0.3515 -0.2123
   30MOL   C76025178   0.083   4.575   7.486 -0.0478  0.5737  0.3973
   30MOL   C76125179   7.672   4.634   7.569 -0.0356 -0.0805 -0.0206
   30MOL   C76225180   0.006   4.778   7.611  0.8002  0.1913  0.5720
   30MOL   C76325181   7.576   4.836   7.676  0.1655  0.1066 -0.1573
   30MOL   C76425182   7.569   4.984   0.011  0.2194  0.4216 -0.5662
   30MOL   C76525183   7.442   5.027   0.090  0.3170  0.1971  0.5236
   30MOL   C76625184   7.425   4.968   0.230 -0.4539 -0.1623 -1.2188
   30MOL   C76725185   7.308   5.029   0.317  0.2424  0.3729  0.3255
   30MOL   C76825186   7.279   4.940   0.436 -0.1699 -0.3055 -0.1165
   30MOL   C76925187   7.181   5.005   0.534 -0.3979 -0.0480 -0.2276
   30MOL   C77025188   7.153   4.917   0.652  0.2768  0.1089 -0.2828
   30MOL   C77125189   7.095   4.985   0.774 -0.6677  0.6262 -0.2461
   30MOL   H77225190   7.583   4.467   7.372 -2.2660 -1.2312  0.0830
   30MOL   H77325191   7.579   4.311   7.446 -1.5664  0.2475 -1.3814
   30MOL   H77425192   0.157   4.395   7.417  1.5072 -3.2649  2.6397
   30MOL   H77525193   0.180   4.612   7.518  1.0436 -0.0268 -2.0968
   30MOL   H77625194   0.079   4.615   7.385 -2.3066  1.4718  0.8075
   30MOL   H77725195   7.583   4.632   7.507 -0.9137  4.5223  0.9437
   30MOL   H77825196   7.651   4.583   7.663 -0.7199  0.5606  0.1737
   30MOL   H77925197   0.038   4.838   7.525  3.4563 -2.6371 -0.5431
   30MOL   H78025198   0.095   4.773   7.675  2.8446  1.4122 -2.0411
   30MOL   H78125199   7.561   4.779   0.073 -1.5929 -0.6107 -0.8593
   30MOL   H78225200   7.492   4.817   7.609  0.5778 -1.1780 -0.3224
   30MOL   H78325201   7.659   4.998   0.070 -0.6503 -0.6411  1.0160
   30MOL   H78425202   7.583   5.044   7.616 -1.1128 -0.4601 -1.3828
   30MOL   H78525203   7.356   4.996   0.029  1.0594  2.6085 -1.8522
   30MOL   H78625204   7.431   5.135   0.099 -1.9292 -0.0666  1.3470
   30MOL   H78725205   7.519   4.971   0.284 -0.3458  1.4187 -1.4841
   30MOL   H78825206   7.397   4.863   0.223 -0.6406 -0.1036 -1.3631
   30MOL   H78925207   7.213   5.035   0.264  0.6023 -1.0723 -0.5096
   30MOL   H79025208   7.345   5.130   0.338 -0.2862  0.6138  0.1013
   30MOL   H79125209   7.231   4.847   0.407 -0.3506 -0.3032  0.1706
   30MOL   H79225210   7.365   4.897   0.487 -0.2229  0.1376  0.3586
   30MOL   H79325211   7.228   5.092   0.580 -1.0911  1.1156 -1.6417
   30MOL   H79425212   7.087   5.037   0.489 -0.6728  0.2816  0.5787
   30MOL   H79525213   7.079   4.839   0.631  1.4310 -1.2004  0.4579
   30MOL   H79625214   7.244   4.864   0.679 -0.0542  0.9188  2.5607
   30MOL   H79725215   7.053   4.903   0.833 -0.7814 -0.5710 -1.9558
   30MOL   H79825216   7.160   5.045   0.837 -1.2551  3.5876 -2.3641
   30MOL   H79925217   7.013   5.049   0.740 -2.0428 -1.1464 -0.3739
   30MOL   C80025218   0.097   4.348   7.607 -0.3846  0.7050 -0.8737
   30MOL   C80125219   0.235   4.371   7.674  0.5758 -0.0071  0.0410
   30MOL   C80225220   0.239   4.482   0.092 -0.0140 -0.6669 -0.1496
   30MOL   C80325221   0.388   4.502   0.140  0.9218 -0.3045 -0.1348
   30MOL   C80425222   0.406   4.617   0.253  0.7584  0.1240 -0.1609
   30MOL   C80525223   0.554   4.637   0.273 -0.5065 -0.3367  0.0946
   30MOL   C80625224   0.589   4.771   0.343  0.0228 -0.5433  0.1024
   30MOL   C80725225   0.555   4.774   0.490  0.4050  0.2301 -0.3826
   30MOL   C80825226   0.587   4.910   0.561 -0.6476  0.2827  0.4146
   30MOL   C80925227   0.550   4.915   0.708  0.0300  0.0284 -0.1831
   30MOL   C81025228   0.672   4.891   0.802 -0.1597  0.8751  0.4369
   30MOL   C81125229   0.659   4.953   0.944 -0.0907  0.6635  0.3045
   30MOL   C81225230   0.796   4.948   1.007 -0.0932 -0.5951 -0.7338
   30MOL   C81325231   0.778   4.942   1.158 -0.3729 -0.0600  0.2200
   30MOL   H81425232   0.090   4.243   7.580 -0.5796  0.1760  1.1783
   30MOL   H81525233   0.015   4.363   7.677  0.9483 -0.5590  0.9914
   30MOL   H81625234   0.308   4.400   7.599  0.9052 -2.8086 -0.7874
   30MOL   H81725235   0.180   4.466   0.182  2.3066 -1.1007  1.3451
   30MOL   H81825236   0.188   4.574   0.061 -0.9213 -0.8676  0.7468
   30MOL   H81925237   0.449   4.520   0.051  1.2242 -0.9136 -0.0552
   30MOL   H82025238   0.432   4.404   0.159 -0.5495 -1.4045 -2.3067
   30MOL   H82125239   0.355   4.710   0.227 -1.2380 -1.6984 -3.0719
   30MOL   H82225240   0.369   4.592   0.353  0.7283  0.5776 -0.0568
   30MOL   H82325241   0.603   4.624   0.176 -2.2442 -2.3232 -0.5304
   30MOL   H82425242   0.602   4.551   0.319  1.0024  2.0410  3.1480
   30MOL   H82525243   0.697   4.786   0.344  0.2679 -2.2020  2.2191
   30MOL   H82625244   0.545   4.849   0.281  1.6049 -0.8209 -1.4052
   30MOL   H82725245   0.458   4.728   0.511  0.1618  0.9505  0.0969
   30MOL   H82825246   0.621   4.701   0.538 -0.9933 -0.2321  0.8724
   30MOL   H82925247   0.692   4.926   0.538 -0.8028  0.7582  0.0202
   30MOL   H83025248   0.537   4.987   0.501  0.7520  0.8821  0.0133
   30MOL   H83125249   0.464   4.854   0.736  0.1452  0.7443  1.8234
   30MOL   H83225250   0.510   5.014   0.730 -0.2430 -0.5057  1.7955
   30MOL   H83325251   0.711   4.791   0.825  0.4185  1.0147  0.0596
   30MOL   H83425252   0.757   4.943   0.759 -0.0930 -0.3613 -0.9950
   30MOL   H83525253   0.598   4.881   0.999 -0.1148  1.2997  1.1110
   30MOL   H83625254   0.624   5.056   0.952  1.2477  1.3209 -1.8129
   30MOL   H83725255   0.846   4.855   0.981 -0.6510 -1.2681  0.5372
   30MOL   H83825256   0.851   5.032   0.966 -0.8594 -0.9410 -2.4990
   30MOL   H83925257   0.724   4.850   1.179 -0.7196  0.3637  1.2101
   30MOL   H84025258   0.880   4.937   1.196 -0.5939  1.6344  1.0692
   30MOL   H84125259   0.721   5.024   1.201  0.6359  0.2186  1.0344
   30MOL   H84225260   0.268   4.280   0.028  0.0478 -0.5993 -0.6917
   31MOL     C125261   2.758   2.989   0.086  0.6166 -0.1773 -0.0336
   31MOL     C225262   2.739   2.950   7.637  0.2073  0.5151 -0.0164
   31MOL     C325263   2.697   3.073   7.557  0.3957 -1.0846 -0.1885
   31MOL     C425264   2.805   3.184   7.546  0.2427  0.2268 -0.4578
   31MOL     C525265   2.760   3.311   7.478  0.1296  0.1713 -0.6658
   31MOL     C625266   2.884   3.393   7.429 -0.6510  0.8905  0.1102
   31MOL     C725267   2.844   3.536   7.387  0.3455  0.3624 -0.3823
   31MOL     C825268   2.975   3.607   7.351 -1.0664  0.6282 -0.3614
   31MOL     C925269   2.953   3.758   7.325  0.0775  0.2117 -0.2578
   31MOL    C1025270   3.078   3.838   7.278 -0.2194  0.7350  0.0669
   31MOL    C1125271   3.084   3.986   7.325  0.4335  0.9484  0.3670
   31MOL    C1225272   2.994   4.087   7.254 -0.3884  0.2213  0.4853
   31MOL    C1325273   3.026   4.234   7.306  0.5088  1.5135 -0.1031
   31MOL    C1425274   2.955   4.345   7.234  0.0091 -0.6377  0.7282
   31MOL    H1525275   2.849   3.046   0.104 -0.5022  1.4686  0.5778
   31MOL    H1625276   2.761   2.899   0.148 -0.4570 -0.0642  0.1918
   31MOL    H1725277   2.661   2.875   7.645  1.0938 -0.4730 -0.5792
   31MOL    H1825278   2.664   3.053   7.455 -0.6058  1.5441 -0.4321
   31MOL    H1925279   2.615   3.123   7.609  0.8855 -2.3769  1.8865
   31MOL    H2025280   2.892   3.151   7.490  0.6295 -1.6196  1.1765
   31MOL    H2125281   2.843   3.217   7.643 -0.0223 -0.8824  0.0255
   31MOL    H2225282   2.694   3.375   7.537  1.9823  1.5786 -0.0583
   31MOL    H2325283   2.705   3.280   7.390 -1.4362  1.5921 -0.2161
   31MOL    H2425284   2.942   3.350   7.346 -0.4440  0.9846  0.2058
   31MOL    H2525285   2.951   3.413   7.513 -0.7408 -0.2695  0.4654
   31MOL    H2625286   2.776   3.541   7.302  3.2763  1.8826 -2.7217
   31MOL    H2725287   2.807   3.586   7.476  3.5761  1.6454  0.3054
   31MOL    H2825288   3.008   3.570   7.253 -1.4989 -1.4700  0.2571
   31MOL    H2925289   3.059   3.591   7.418 -1.6581  2.9234  0.9675
   31MOL    H3025290   2.874   3.793   7.258 -0.9301 -1.0962  0.2288
   31MOL    H3125291   2.911   3.791   7.420  0.8273 -3.2758  1.3538
   31MOL    H3225292   3.162   3.789   7.327  0.4460  1.3663 -0.4288
   31MOL    H3325293   3.089   3.834   7.170  1.7751  1.9040  0.1978
   31MOL    H3425294   3.072   3.993   7.433  2.2391  0.1937  0.6241
   31MOL    H3525295   3.184   4.021   7.301 -0.2523  2.0299 -1.0067
   31MOL    H3625296   2.888   4.071   7.273 -0.1751 -0.0121  1.5034
   31MOL    H3725297   2.999   4.086   7.145  0.2159 -0.9426  0.5160
   31MOL    H3825298   3.002   4.240   7.412 -2.6117  0.7043 -0.7193
   31MOL    H3925299   3.130   4.263   7.287  0.7390  1.2598  0.7585
   31MOL    H4025300   2.851   4.325   7.210  0.7932 -2.6202 -1.2014
   31MOL    H4125301   2.964   4.436   7.293  2.5771 -0.8756  0.7580
   31MOL    H4225302   3.001   4.368   7.137  0.5542 -1.3780  0.8075
   31MOL    H4325303   2.673   3.047   0.122 -0.3306 -0.9450 -1.0008
   31MOL    C4425304   2.865   2.873   7.575  0.4478  0.4337 -0.2230
   31MOL    C4525305   2.834   2.770   7.456  0.1605 -0.6564  0.9432
   31MOL    C4625306   2.763   2.641   7.502  0.4219  0.4492 -0.2262
   31MOL    C4725307   2.677   2.569   7.394  0.0447  0.1162  0.2675
   31MOL    C4825308   2.652   2.430   7.450 -0.9280  0.1183 -0.4784
   31MOL    C4925309   2.565   2.334   7.365  0.5107 -0.0039 -0.1911
   31MOL    C5025310   2.632   2.295   7.235 -0.3786 -0.0737 -0.3038
   31MOL    C5125311   2.573   2.166   7.166 -0.0721 -0.7530  0.0783
   31MOL    C5225312   2.684   2.099   7.080 -0.0897 -0.2000 -0.3243
   31MOL    C5325313   2.644   1.960   7.025 -0.2669  0.1156 -0.3675
   31MOL    C5425314   2.749   1.908   6.930  0.3488 -0.2532 -0.4565
   31MOL    C5525315   2.719   1.773   6.866 -0.3550 -0.0703  0.3365
   31MOL    C5625316   2.737   1.657   6.961  0.2625 -0.5407  0.4727
   31MOL    C5725317   2.686   1.524   6.903  0.1287  0.3263 -1.2408
   31MOL    H5825318   2.946   2.942   7.550  0.3034  0.1902 -1.3888
   31MOL    H5925319   2.910   2.799   7.641 -1.9099 -1.9868 -1.2426
   31MOL    H6025320   2.760   2.817   7.391  0.5031 -2.4868 -0.8118
   31MOL    H6125321   2.842   2.574   7.536 -1.2232 -0.8855  1.1031
   31MOL    H6225322   2.699   2.673   7.585  0.4594  0.2524 -0.1206
   31MOL    H6325323   2.735   2.562   7.302 -1.3275 -0.4498 -0.5560
   31MOL    H6425324   2.593   2.634   7.369 -0.3250 -0.1238  0.8761
   31MOL    H6525325   2.610   2.439   7.550 -1.6188 -0.4186 -0.7171
   31MOL    H6625326   2.744   2.371   7.459 -2.4706 -2.3537 -0.4627
   31MOL    H6725327   2.539   2.250   7.430 -0.8839  0.7239  0.2054
   31MOL    H6825328   2.468   2.383   7.353  1.4523  1.5543 -1.6973
   31MOL    H6925329   2.634   2.377   7.163  0.0802  0.6474  0.5067
   31MOL    H7025330   2.738   2.278   7.254 -0.6076 -0.5786  0.5665
   31MOL    H7125331   2.496   2.192   7.093  0.1773 -0.3921 -0.0567
   31MOL    H7225332   2.542   2.097   7.245 -1.4771 -0.4820 -0.2284
   31MOL    H7325333   2.719   2.169   7.004  1.4690  1.8340  2.1964
   31MOL    H7425334   2.762   2.077   7.152  0.6310  1.7409 -0.4709
   31MOL    H7525335   2.548   1.968   6.974  0.2329 -3.2264 -1.9812
   31MOL    H7625336   2.632   1.893   7.111  1.2435 -1.5747 -1.4228
   31MOL    H7725337   2.842   1.898   6.986 -0.9551 -0.6936  1.6735
   31MOL    H7825338   2.764   1.987   6.857 -1.8082  0.7754  0.1830
   31MOL    H7925339   2.622   1.764   6.818  0.6600 -1.2634 -1.5558
   31MOL    H8025340   2.794   1.754   6.789 -1.5422  0.6300 -1.0044
   31MOL    H8125341   2.674   1.671   7.049  0.7122  0.8854  0.5796
   31MOL    H8225342   2.839   1.662   6.998 -0.3032  2.8364  1.7246
   31MOL    H8325343   2.699   1.447   6.979 -1.9295 -1.0178 -2.1920
   31MOL    H8425344   2.746   1.489   6.819  0.8136 -2.0164  0.1992
   31MOL    H8525345   2.581   1.515   6.875 -0.1426  0.0748 -0.1414
   31MOL    C8625346   2.971   2.749   7.374 -0.5309  0.2291  0.7920
   31MOL    C8725347   3.025   2.872   7.296 -0.5078 -0.5927  0.1369
   31MOL    C8825348   2.963   2.880   7.159  0.3812  0.2815 -0.0076
   31MOL    C8925349   2.998   3.002   7.080  0.1925 -0.4551 -0.0392
   31MOL    C9025350   2.908   3.019   6.957 -0.6049  0.3733  1.4553
   31MOL    C9125351   2.763   3.022   6.987  0.2475  0.2183  0.2991
   31MOL    C9225352   2.672   3.084   6.883 -0.2384 -0.2220  0.0915
   31MOL    C9325353   2.531   3.120   6.941  0.2275  0.4420 -0.1026
   31MOL    C9425354   2.440   3.194   6.836 -1.5567  0.9317 -0.5374
   31MOL    C9525355   2.296   3.218   6.878  0.8059 -0.2710 -0.0468
   31MOL    C9625356   2.209   3.252   6.757  0.3204  0.1507  0.1644
   31MOL    C9725357   2.060   3.291   6.790  0.2027 -0.2099 -0.1831
   31MOL    C9825358   1.969   3.313   6.668 -0.0072 -0.5117 -0.5880
   31MOL    C9925359   1.833   3.357   6.714  0.1649 -0.3238 -0.4943
   31MOL   H10025360   3.042   2.714   7.448  0.6176 -1.2126 -0.9512
   31MOL   H10125361   2.957   2.668   7.303 -1.3998  1.8768 -0.9466
   31MOL   H10225362   2.991   2.966   7.340  0.0244  0.4894 -1.7112
   31MOL   H10325363   2.992   2.792   7.102 -0.3296 -0.4570  0.7499
   31MOL   H10425364   2.857   2.859   7.169  0.9441 -2.2075  1.3848
   31MOL   H10525365   2.995   3.098   7.131  1.0418 -0.7813  0.6361
   31MOL   H10625366   3.101   2.997   7.046 -0.5581 -1.4392 -2.2457
   31MOL   H10725367   2.929   2.937   6.888  2.1275  1.0459  1.4264
   31MOL   H10825368   2.934   3.111   6.905 -1.9991 -0.0322 -0.0089
   31MOL   H10925369   2.757   3.081   7.079 -2.1942  1.8356 -0.8501
   31MOL   H11025370   2.731   2.923   7.019 -0.4430 -0.1751 -1.5801
   31MOL   H11125371   2.716   3.177   6.848 -1.7015  0.0643 -1.0286
   31MOL   H11225372   2.653   3.011   6.804 -1.9044  0.8437 -0.5192
   31MOL   H11325373   2.529   3.184   7.029  0.3742  0.6672 -0.2625
   31MOL   H11425374   2.487   3.022   6.958  1.1614  0.2269  1.1536
   31MOL   H11525375   2.484   3.289   6.804 -2.6264  1.3670 -0.7732
   31MOL   H11625376   2.446   3.128   6.750  1.3443 -0.6049  0.7844
   31MOL   H11725377   2.304   3.308   6.939 -1.9723 -1.7528  2.6419
   31MOL   H11825378   2.255   3.141   6.942  2.2276  1.8402  3.5899
   31MOL   H11925379   2.259   3.322   6.690 -0.9796  0.4636 -0.4934
   31MOL   H12025380   2.203   3.166   6.690  0.5797  1.1558 -1.1694
   31MOL   H12125381   2.015   3.203   6.834 -0.2967 -0.0452 -0.3650
   31MOL   H12225382   2.054   3.364   6.870  0.3446  0.2924 -0.6287
   31MOL   H12325383   1.969   3.225   6.605  1.9857 -0.4864 -0.6667
   31MOL   H12425384   2.005   3.388   6.597 -0.8507 -0.7825 -1.3005
   31MOL   H12525385   1.836   3.439   6.785 -1.3635  0.3520 -1.1829
   31MOL   H12625386   1.776   3.401   6.632  0.3219  1.9808  0.5984
   31MOL   H12725387   1.789   3.268   6.760 -0.7375 -0.1592 -1.0150
   31MOL   C12825388   3.180   2.878   7.275 -0.1080  0.0025  0.0268
   31MOL   C12925389   3.274   2.884   7.403  0.1051  0.3446 -0.2489
   31MOL   C13025390   3.350   2.755   7.407  0.7152 -0.2543 -0.1633
   31MOL   C13125391   3.391   2.704   7.545  0.1564 -0.6475  0.1148
   31MOL   C13225392   3.473   2.579   7.543  0.0879  0.0514  0.0612
   31MOL   C13325393   3.505   2.526   7.678  0.5762  0.2123  0.4651
   31MOL   C13425394   3.600   2.401   7.659 -0.1336 -0.0445 -0.2890
   31MOL   C13525395   3.676   2.349   0.097  0.3529 -0.2817 -0.1650
   31MOL   C13625396   3.738   2.205   0.085 -0.1782 -0.2091  0.0239
   31MOL   C13725397   3.826   2.166   0.201  0.2559 -0.0705 -0.7834
   31MOL   C13825398   3.878   2.028   0.200  0.1736  0.1213 -0.4850
   31MOL   C13925399   3.950   1.987   0.323  0.0020 -0.1515 -0.2003
   31MOL   C14025400   4.019   1.846   0.311 -0.4321  0.0884 -0.2937
   31MOL   C14125401   3.918   1.731   0.293 -0.1057  0.9257 -0.5651
   31MOL   H14225402   3.217   2.808   7.200  1.2347  1.0253 -0.2978
   31MOL   H14325403   3.212   2.975   7.235  1.6563 -0.0300  1.2951
   31MOL   H14425404   3.204   2.870   7.485  2.1858 -1.0719  1.3379
   31MOL   H14525405   3.287   2.677   7.363 -0.6916 -0.7295  2.5654
   31MOL   H14625406   3.440   2.764   7.346  0.0816 -3.0107 -1.5888
   31MOL   H14725407   3.456   2.778   7.591  2.1760 -0.6127 -2.6770
   31MOL   H14825408   3.305   2.692   7.611  1.2396 -2.2857  1.2532
   31MOL   H14925409   3.426   2.507   7.476 -0.6990  1.3011 -0.7442
   31MOL   H15025410   3.567   2.610   7.497 -0.6813  1.6610 -0.4505
   31MOL   H15125411   3.554   2.606   0.038  0.8990 -0.8298  1.6967
   31MOL   H15225412   3.415   2.488   0.031  1.6898 -1.7905  1.0326
   31MOL   H15325413   3.547   2.314   7.620  0.5716 -1.0660  0.9816
   31MOL   H15425414   3.666   2.427   7.576 -0.2813  0.8403 -0.1386
   31MOL   H15525415   3.755   2.414   0.134  0.9270 -1.5351  0.8359
   31MOL   H15625416   3.606   2.337   0.180  2.5313 -0.2617  1.7208
   31MOL   H15725417   3.655   2.135   0.089  2.0773 -2.9541  0.2427
   31MOL   H15825418   3.777   2.189   7.680 -1.2781  1.2629 -0.6596
   31MOL   H15925419   3.779   2.193   0.296  1.4912  2.0310 -0.7387
   31MOL   H16025420   3.909   2.236   0.202 -2.1660  2.9254  1.2305
   31MOL   H16125421   3.798   1.954   0.187  0.3290  0.0261 -0.9056
   31MOL   H16225422   3.939   1.994   0.116  0.3191 -2.8748  0.7631
   31MOL   H16325423   4.022   2.059   0.360 -0.6474 -0.3506  1.5036
   31MOL   H16425424   3.882   1.972   0.407 -0.5988 -2.9669 -1.1061
   31MOL   H16525425   4.088   1.831   0.229 -0.1541 -0.1091 -0.0220
   31MOL   H16625426   4.074   1.841   0.405  1.1310 -1.7749 -1.2945
   31MOL   H16725427   3.953   1.635   0.330 -1.6404  1.4188  2.3253
   31MOL   H16825428   3.822   1.753   0.340  0.6649 -1.8671  2.5629
   31MOL   H16925429   3.889   1.712   0.190 -1.3033  1.7908 -0.4037
   31MOL   C17025430   3.355   3.016   7.429  0.0304  0.1152 -0.4573
   31MOL   C17125431   3.274   3.151   7.434 -0.0620  0.3608 -0.1447
   31MOL   C17225432   3.204   3.180   7.567 -0.6348 -0.2401 -1.1752
   31MOL   C17325433   3.304   3.171   7.680  0.7348 -0.1423 -0.2575
   31MOL   C17425434   3.261   3.256   0.108 -0.7253 -0.0409  0.4598
   31MOL   C17525435   3.349   3.246   0.230  0.2565 -0.1876  0.2650
   31MOL   C17625436   3.326   3.364   0.328  0.5213 -0.1161  0.3058
   31MOL   C17725437   3.387   3.344   0.469  0.7528 -0.5352  0.4884
   31MOL   C17825438   3.333   3.224   0.553 -0.3782 -0.0612 -0.3676
   31MOL   C17925439   3.178   3.219   0.547 -0.0810  0.4519 -0.0577
   31MOL   C18025440   3.098   3.336   0.619  0.2147 -0.1560 -0.5526
   31MOL   C18125441   2.957   3.359   0.575  0.4490 -0.0338  0.1282
   31MOL   C18225442   2.884   3.470   0.636  0.1466  0.0079 -0.1903
   31MOL   C18325443   2.763   3.514   0.554 -0.9744 -0.0735 -0.4723
   31MOL   H18425444   3.447   3.020   7.370  1.3035 -1.0449  1.3786
   31MOL   H18525445   3.401   2.990   7.525  0.8675 -0.3338 -0.9722
   31MOL   H18625446   3.192   3.140   7.364  1.1926  1.4648 -1.8328
   31MOL   H18725447   3.167   3.283   7.569 -0.0127 -0.0326  1.5199
   31MOL   H18825448   3.128   3.105   7.588  0.6935 -0.5440  3.0531
   31MOL   H18925449   3.303   3.064   0.004 -1.1344  0.1497  1.4040
   31MOL   H19025450   3.403   3.203   7.650  0.1468  3.1398  1.0798
   31MOL   H19125451   3.260   3.362   0.083  1.9933  0.5085  2.5529
   31MOL   H19225452   3.164   3.222   0.146 -1.0648 -0.2035 -0.5295
   31MOL   H19325453   3.448   3.225   0.190  0.1324 -0.9075  0.3245
   31MOL   H19425454   3.329   3.154   0.285 -1.0708 -0.9427 -1.4061
   31MOL   H19525455   3.219   3.389   0.330  0.6863  0.6626 -0.4802
   31MOL   H19625456   3.359   3.461   0.291  0.1880 -0.3823 -0.7049
   31MOL   H19725457   3.363   3.435   0.524 -1.0232  0.5543 -2.0109
   31MOL   H19825458   3.495   3.352   0.452  0.6089  0.7145  0.1649
   31MOL   H19925459   3.359   3.238   0.658  0.1411  0.6344 -0.5825
   31MOL   H20025460   3.374   3.126   0.529  0.5304  0.7269 -2.0416
   31MOL   H20125461   3.154   3.128   0.602 -0.3488  0.6298  0.1197
   31MOL   H20225462   3.158   3.203   0.441 -2.2608 -2.0445  0.6813
   31MOL   H20325463   3.152   3.430   0.614 -1.6731  0.9995  0.0271
   31MOL   H20425464   3.084   3.313   0.725 -1.9969  0.2396 -0.7286
   31MOL   H20525465   2.962   3.385   0.469 -2.3839  0.4740  0.0876
   31MOL   H20625466   2.901   3.268   0.598 -0.0834  0.6611  1.6691
   31MOL   H20725467   2.861   3.441   0.739 -1.0023  3.0872  0.4918
   31MOL   H20825468   2.950   3.555   0.650  0.3132 -0.0572 -0.5807
   31MOL   H20925469   2.693   3.559   0.625 -0.5577 -1.5183  0.8960
   31MOL   H21025470   2.722   3.423   0.510  0.8685  0.1011 -2.6384
   31MOL   H21125471   2.795   3.582   0.476 -0.9115  2.3417  1.5896
   31MOL   C21225472   3.366   3.272   7.392 -0.6120 -0.3078 -0.6272
   31MOL   C21325473   3.386   3.282   7.244 -0.4805  0.2386 -0.2422
   31MOL   C21425474   3.270   3.367   7.187  0.1385 -0.6008 -0.5345
   31MOL   C21525475   3.253   3.371   7.034 -0.4685 -0.6197 -0.3502
   31MOL   C21625476   3.148   3.485   6.984 -0.5332  0.0088  0.7540
   31MOL   C21725477   3.002   3.444   6.991  0.1819 -0.8864  0.6852
   31MOL   C21825478   2.909   3.553   6.939 -0.5561 -0.1054  0.2026
   31MOL   C21925479   2.756   3.519   6.958 -0.4952 -0.7992  0.9057
   31MOL   C22025480   2.662   3.604   6.880  0.3382 -0.0834 -0.5255
   31MOL   C22125481   2.505   3.586   6.903 -0.0494 -0.4217 -0.5353
   31MOL   C22225482   2.420   3.641   6.783 -0.0058 -0.1016 -1.1103
   31MOL   C22325483   2.269   3.625   6.808  0.1898 -0.3810  0.2917
   31MOL   C22425484   2.191   3.691   6.690 -0.0178  0.0830 -0.5693
   31MOL   C22525485   2.040   3.711   6.717  0.9832 -0.1346 -0.3191
   31MOL   H22625486   3.462   3.264   7.443 -0.1459 -0.8213 -1.5565
   31MOL   H22725487   3.309   3.359   7.424  0.2744  1.3485 -3.4200
   31MOL   H22825488   3.365   3.184   7.200 -2.3080 -0.8021  2.8210
   31MOL   H22925489   3.182   3.319   7.230 -0.2891 -0.1167 -0.8705
   31MOL   H23025490   3.268   3.468   7.227 -2.4721  0.3462 -2.9242
   31MOL   H23125491   3.213   3.276   6.998  0.3104 -1.5531  1.2330
   31MOL   H23225492   3.348   3.384   6.982 -0.9199  1.4024 -0.6930
   31MOL   H23325493   3.161   3.511   6.879  0.8281 -1.6876  0.4778
   31MOL   H23425494   3.174   3.576   7.038 -1.5655 -0.4967  2.1124
   31MOL   H23525495   2.984   3.403   7.090 -2.5076 -1.4422 -0.0095
   31MOL   H23625496   2.990   3.358   6.925  1.0498  0.4699 -1.3142
   31MOL   H23725497   2.941   3.640   6.995  2.1855 -1.3129  0.6024
   31MOL   H23825498   2.924   3.568   6.832  1.4551 -1.4955  0.2708
   31MOL   H23925499   2.747   3.413   6.933 -0.1923 -0.3025 -1.4119
   31MOL   H24025500   2.729   3.524   7.063 -0.0753  1.0059  0.9424
   31MOL   H24125501   2.672   3.588   6.773  2.5509  0.6188 -0.4510
   31MOL   H24225502   2.685   3.708   6.905 -2.7536  0.2394  1.2080
   31MOL   H24325503   2.487   3.479   6.898 -1.0959 -0.1683 -2.4795
   31MOL   H24425504   2.482   3.628   7.001 -0.1818 -1.1894 -0.2278
   31MOL   H24525505   2.458   3.596   6.691 -0.1006 -1.2673 -0.5899
   31MOL   H24625506   2.457   3.743   6.774 -0.1371 -0.2607 -4.0399
   31MOL   H24725507   2.239   3.672   6.901 -0.3122  0.3771 -0.2414
   31MOL   H24825508   2.231   3.523   6.814 -2.4340  0.4787 -0.9000
   31MOL   H24925509   2.205   3.629   6.602  1.1536 -1.9516  1.0143
   31MOL   H25025510   2.227   3.791   6.663  0.0883  0.6375  1.5233
   31MOL   H25125511   1.990   3.736   6.624  0.1906 -0.6261 -0.0318
   31MOL   H25225512   1.987   3.628   6.763  1.9243 -2.1765 -2.8053
   31MOL   H25325513   2.023   3.801   6.777 -1.2721  1.1057 -2.7236
   31MOL   C25425514   3.519   3.333   7.199 -0.8206  0.3115 -0.5255
   31MOL   C25525515   3.635   3.232   7.197  0.0143 -0.4691  0.1422
   31MOL   C25625516   3.613   3.131   7.082  0.1710 -0.5371 -0.1059
   31MOL   C25725517   3.726   3.023   7.084 -0.4770  0.0823 -0.3115
   31MOL   C25825518   3.679   2.896   7.011  0.0835 -0.1240 -0.3619
   31MOL   C25925519   3.798   2.794   7.020  0.2476 -0.3313  0.0614
   31MOL   C26025520   3.765   2.670   6.942  0.1809 -0.1139  0.6175
   31MOL   C26125521   3.894   2.578   6.921  0.1746  0.3097  1.3989
   31MOL   C26225522   3.850   2.451   6.855 -0.1814 -0.4290  0.0626
   31MOL   C26325523   3.968   2.349   6.863  0.1590  0.0218 -0.3641
   31MOL   C26425524   3.940   2.203   6.811  0.4358  0.3051  0.0988
   31MOL   C26525525   4.005   2.093   6.893 -0.9323  0.1702 -0.3700
   31MOL   C26625526   3.932   1.958   6.885 -0.1803  0.1755 -0.0809
   31MOL   C26725527   3.927   1.899   6.748 -0.1835  0.5848  0.2209
   31MOL   H26825528   3.546   3.415   7.266 -1.2783  0.7630 -0.8823
   31MOL   H26925529   3.516   3.387   7.104 -1.2079 -2.0205 -1.8587
   31MOL   H27025530   3.623   3.185   7.294 -0.5030 -2.2120 -0.7388
   31MOL   H27125531   3.612   3.182   6.986  0.4347 -0.2520  0.0443
   31MOL   H27225532   3.517   3.081   7.095  0.7242 -0.9230  2.7423
   31MOL   H27325533   3.746   2.992   7.186 -1.0411  0.1790 -0.1689
   31MOL   H27425534   3.814   3.065   7.035 -1.1563  0.4992 -1.2056
   31MOL   H27525535   3.654   2.915   6.907  2.9442  1.4182 -0.8078
   31MOL   H27625536   3.589   2.851   7.052  0.1551 -0.2864 -0.3837
   31MOL   H27725537   3.825   2.774   7.124 -1.6801 -1.4748  0.3790
   31MOL   H27825538   3.877   2.853   6.974  0.2705 -0.3309  0.1016
   31MOL   H27925539   3.686   2.613   6.992  1.0231 -2.0336 -0.1767
   31MOL   H28025540   3.708   2.703   6.855  1.4680  0.0004 -0.1862
   31MOL   H28125541   3.928   2.565   7.023  0.4236  2.1503  1.5666
   31MOL   H28225542   3.981   2.611   6.864 -2.1206  1.6243 -1.5315
   31MOL   H28325543   3.762   2.407   6.903  0.1353 -0.3981  0.6788
   31MOL   H28425544   3.832   2.470   6.749 -0.6102  1.7895  0.5009
   31MOL   H28525545   3.998   2.357   6.967  1.1554  5.0576 -0.9248
   31MOL   H28625546   4.050   2.384   6.801 -0.6964  0.8047 -1.0721
   31MOL   H28725547   3.975   2.209   6.708  0.3327  3.8709  0.2151
   31MOL   H28825548   3.833   2.182   6.818  0.9689 -2.0426  1.8394
   31MOL   H28925549   4.106   2.082   6.855 -0.9267  0.2749 -0.3838
   31MOL   H29025550   4.015   2.117   6.998  0.9759 -1.7077 -0.0898
   31MOL   H29125551   3.976   1.889   6.956  0.4049  0.4499 -0.1694
   31MOL   H29225552   3.830   1.979   6.918 -0.1587 -0.4645  0.3876
   31MOL   H29325553   4.026   1.867   6.715  0.5455  0.1850  2.7194
   31MOL   H29425554   3.885   1.974   6.682  1.8865  1.0096 -0.6425
   31MOL   H29525555   3.858   1.815   6.738 -0.8187  1.3353 -2.0952
   31MOL   C29625556   3.774   3.304   7.188  0.5148 -0.1573  0.9014
   31MOL   C29725557   3.829   3.382   7.308 -0.8188 -0.6496  0.6029
   31MOL   C29825558   3.820   3.312   7.442 -0.2962 -0.3303  0.8168
   31MOL   C29925559   3.894   3.183   7.451  0.3762 -0.0062  0.4950
   31MOL   C30025560   3.894   3.124   7.594 -0.1091 -0.2083 -0.4320
   31MOL   C30125561   3.761   3.043   7.616  0.5944  0.1866 -0.0189
   31MOL   C30225562   3.766   2.988   0.061  0.2015 -0.6249 -0.5097
   31MOL   C30325563   3.649   2.900   0.092  0.5116 -0.8873 -0.1406
   31MOL   C30425564   3.646   2.859   0.240  0.1819 -0.1904 -0.0170
   31MOL   C30525565   3.516   2.778   0.277 -0.1112 -0.4637  0.3680
   31MOL   C30625566   3.380   2.862   0.265  0.1437  1.0535  0.1417
   31MOL   C30725567   3.261   2.777   0.315 -0.7683 -0.4967 -1.0124
   31MOL   C30825568   3.124   2.829   0.277 -0.2458  0.0263 -0.3193
   31MOL   C30925569   3.011   2.730   0.306 -0.5296  0.0352 -0.5273
   31MOL   H31025570   3.759   3.365   7.099  1.0509 -0.8773  0.3104
   31MOL   H31125571   3.844   3.231   7.146 -0.0089 -0.8288  1.1740
   31MOL   H31225572   3.768   3.471   7.321  0.4122  0.0512  1.6900
   31MOL   H31325573   3.719   3.290   7.476 -1.1764 -1.1683 -2.2110
   31MOL   H31425574   3.866   3.377   7.516 -2.6226  0.9027  1.2297
   31MOL   H31525575   4.000   3.195   7.427  0.2868  1.1841  0.6534
   31MOL   H31625576   3.844   3.117   7.380  0.2823  0.6656 -0.0772
   31MOL   H31725577   3.971   3.047   7.603 -1.2575 -1.3319 -0.0720
   31MOL   H31825578   3.925   3.195   7.671 -0.3687  1.2177 -1.6228
   31MOL   H31925579   3.733   2.963   7.548 -0.4490  0.1831  0.4098
   31MOL   H32025580   3.683   3.118   7.605  0.0506 -0.3740 -0.0221
   31MOL   H32125581   3.859   2.933   0.067 -0.1629 -1.1365  0.5441
   31MOL   H32225582   3.766   3.076   0.125 -0.1591  0.2126 -1.6297
   31MOL   H32325583   3.650   2.811   0.029 -0.9286 -0.7163 -0.4198
   31MOL   H32425584   3.554   2.946   0.063  1.0031 -0.1134 -0.5491
   31MOL   H32525585   3.736   2.799   0.254 -0.5622 -1.6739 -1.3804
   31MOL   H32625586   3.659   2.946   0.304 -0.6991  0.1333 -0.2779
   31MOL   H32725587   3.514   2.743   0.380 -1.0356 -1.9497 -0.1397
   31MOL   H32825588   3.505   2.689   0.215  0.4304  0.2173 -0.7279
   31MOL   H32925589   3.362   2.888   0.160 -1.4754  0.0485  0.1468
   31MOL   H33025590   3.384   2.956   0.319  0.5657  1.4875 -0.6273
   31MOL   H33125591   3.273   2.741   0.417  2.3038 -0.3934 -1.3144
   31MOL   H33225592   3.273   2.685   0.258  2.7811 -0.3606 -0.5766
   31MOL   H33325593   3.112   2.854   0.171 -0.9126 -0.6930 -0.4172
   31MOL   H33425594   3.098   2.922   0.327 -1.5987  0.6589 -2.1605
   31MOL   H33525595   2.928   2.776   0.360 -0.4092 -1.8685  1.3148
   31MOL   H33625596   2.966   2.691   0.215  0.5792 -1.0231 -0.6313
   31MOL   H33725597   3.047   2.640   0.355 -0.0243  0.2736 -0.4558
   31MOL   C33825598   3.971   3.429   7.276 -0.2182  0.0635  0.3742
   31MOL   C33925599   3.981   3.567   7.188  0.8458  0.5164  0.0905
   31MOL   C34025600   4.002   3.674   7.300 -1.0130  0.0157  0.4978
   31MOL   C34125601   3.992   3.819   7.251  0.1048  0.0337 -0.0096
   31MOL   C34225602   3.991   3.915   7.370 -0.0675 -0.3195  0.6957
   31MOL   C34325603   4.007   4.059   7.323  0.6396 -0.1178  0.4147
   31MOL   C34425604   3.994   4.165   7.434  0.1676 -0.6709  0.6820
   31MOL   C34525605   4.045   4.307   7.388 -0.2777 -0.6130 -0.1431
   31MOL   C34625606   4.043   4.412   7.506  0.3900 -0.5836 -0.5762
   31MOL   C34725607   4.063   4.557   7.478 -0.5716 -0.5165  0.5461
   31MOL   C34825608   4.101   4.642   7.598 -0.2456 -0.4279  0.1527
   31MOL   C34925609   3.992   4.647   0.006  0.1627  0.0096 -0.0944
   31MOL   C35025610   4.017   4.741   0.127 -0.1325  0.3290 -0.0050
   31MOL   C35125611   3.907   4.728   0.235 -0.1748 -0.8403 -0.1147
   31MOL   H35225612   4.020   3.445   7.371  0.9227 -0.6955 -0.0738
   31MOL   H35325613   4.019   3.344   7.227  2.1832  1.2848  0.5775
   31MOL   H35425614   3.891   3.585   7.129  0.3563 -1.3410  0.2384
   31MOL   H35525615   3.927   3.661   7.378  1.2957 -1.7065  2.4860
   31MOL   H35625616   4.099   3.661   7.347  0.2687 -0.9920 -2.3082
   31MOL   H35725617   3.901   3.828   7.192  0.7960 -0.3094 -1.1356
   31MOL   H35825618   4.082   3.838   7.192 -1.8149  1.5672 -2.5500
   31MOL   H35925619   4.063   3.881   7.444 -1.5816  1.6249  3.1272
   31MOL   H36025620   3.896   3.915   7.422  0.0034  5.6163  1.2480
   31MOL   H36125621   4.097   4.082   7.267 -1.6178  4.8941 -1.4223
   31MOL   H36225622   3.933   4.078   7.245 -0.2088 -0.7477  1.0633
   31MOL   H36325623   3.896   4.170   7.481 -1.4824  0.7514 -2.7430
   31MOL   H36425624   4.063   4.134   7.513 -0.9436 -3.4983  0.5918
   31MOL   H36525625   4.143   4.292   7.343 -0.7552 -1.2839 -0.9573
   31MOL   H36625626   3.989   4.340   7.301 -0.1917  1.4302  0.5414
   31MOL   H36725627   3.957   4.394   7.570 -0.0743  0.7384 -0.8275
   31MOL   H36825628   4.121   4.384   7.577 -1.1431 -0.2810  1.2660
   31MOL   H36925629   4.149   4.578   7.414  0.1568 -2.9814  0.6876
   31MOL   H37025630   3.977   4.597   7.424  0.4191  2.1638  0.8370
   31MOL   H37125631   4.115   4.746   7.567 -0.0950 -0.1164  1.2147
   31MOL   H37225632   4.191   4.607   7.649 -0.1081  0.1391  0.3039
   31MOL   H37325633   3.980   4.548   0.051  0.1924  0.4785  0.9666
   31MOL   H37425634   3.907   4.689   7.648  0.0224 -0.9163 -0.5991
   31MOL   H37525635   4.114   4.722   0.172 -0.4417  0.8856  0.9108
   31MOL   H37625636   4.023   4.845   0.097  2.2453  0.0196 -0.6620
   31MOL   H37725637   3.810   4.763   0.201 -0.1857  1.5833  2.2693
   31MOL   H37825638   3.899   4.624   0.269  0.8887 -1.2629 -1.1405
   31MOL   H37925639   3.930   4.791   0.321 -0.5907 -2.9430  1.5962
   31MOL   C38025640   4.107   3.563   7.102 -0.2055  0.2541  0.0968
   31MOL   C38125641   4.099   3.488   6.968  0.4272 -0.5289  0.4981
   31MOL   C38225642   3.989   3.530   6.868  0.0823  0.6476  0.2694
   31MOL   C38325643   3.986   3.680   6.842 -0.1726 -0.0213  0.1419
   31MOL   C38425644   3.922   3.735   6.707 -0.1904  0.4256  0.1242
   31MOL   C38525645   3.770   3.718   6.697 -0.3183  0.2757  0.2278
   31MOL   C38625646   3.714   3.778   6.574  0.1902 -0.4306  0.6710
   31MOL   C38725647   3.561   3.809   6.582 -0.3498 -0.5971 -0.3794
   31MOL   C38825648   3.509   3.879   6.447 -0.0307 -0.1115 -0.0014
   31MOL   C38925649   3.547   4.035   6.437  0.7059 -0.1385 -1.2035
   31MOL   C39025650   3.431   4.130   6.467 -0.2049 -0.1306  0.1795
   31MOL   C39125651   3.323   4.112   6.357 -0.1926  0.5741 -0.0156
   31MOL   C39225652   3.195   4.186   6.368 -0.1424  0.5632  0.2831
   31MOL   C39325653   3.129   4.157   6.503 -0.0930 -0.1327  0.4606
   31MOL   H39425654   4.177   3.511   7.167 -0.9705 -0.3200  0.4690
   31MOL   H39525655   4.141   3.665   7.088  0.7919 -0.0836 -0.0126
   31MOL   H39625656   4.078   3.384   6.996  0.9028 -0.5548  0.7456
   31MOL   H39725657   3.890   3.498   6.901  0.5871  0.2665  1.4275
   31MOL   H39825658   3.988   3.466   6.780 -1.2631  0.0990  0.6782
   31MOL   H39925659   4.086   3.721   6.856 -0.1569 -0.0488  0.1085
   31MOL   H40025660   3.933   3.722   6.928  0.4879  0.1937  0.4489
   31MOL   H40125661   3.962   3.670   6.629 -0.1992 -0.8156  1.1315
   31MOL   H40225662   3.962   3.835   6.691 -1.1206  0.8951  0.6816
   31MOL   H40325663   3.737   3.783   6.778 -1.6365  1.2386 -1.0692
   31MOL   H40425664   3.743   3.613   6.714  0.6468 -0.1166 -0.5793
   31MOL   H40525665   3.774   3.868   6.558 -2.0025  0.9021 -0.3267
   31MOL   H40625666   3.713   3.704   6.494 -1.0125  1.6396 -1.3221
   31MOL   H40725667   3.511   3.712   6.587 -0.1558 -0.8584 -2.8202
   31MOL   H40825668   3.530   3.856   6.675  0.8813 -2.1881  0.8789
   31MOL   H40925669   3.537   3.845   6.347  1.4398  1.1007 -0.0330
   31MOL   H41025670   3.401   3.874   6.463 -0.2315  5.0929  1.1934
   31MOL   H41125671   3.590   4.067   6.342  0.9143  2.4586 -0.2893
   31MOL   H41225672   3.625   4.059   6.509  0.5959  0.5910 -1.3226
   31MOL   H41325673   3.383   4.117   6.564 -0.3799  0.7902  0.2215
   31MOL   H41425674   3.472   4.231   6.462  0.7321 -0.5145 -0.0229
   31MOL   H41525675   3.299   4.006   6.357 -0.8649  0.7143 -1.3587
   31MOL   H41625676   3.368   4.120   6.257  1.0663 -0.2486  0.4716
   31MOL   H41725677   3.219   4.293   6.363  2.1770  0.1868  2.2052
   31MOL   H41825678   3.119   4.166   6.293  0.7238  0.8244 -0.6704
   31MOL   H41925679   3.032   4.207   6.505 -0.3458 -0.6181  0.2797
   31MOL   H42025680   3.190   4.198   6.584  3.8001 -0.2417 -2.2652
   31MOL   H42125681   3.110   4.052   6.521 -1.3400 -0.9800 -4.8186
   31MOL   C42225682   4.237   3.497   6.909  0.2938 -0.5587 -0.1210
   31MOL   C42325683   4.267   3.397   6.792  0.1418  0.1208 -0.2364
   31MOL   C42425684   4.396   3.430   6.706 -0.2902 -0.3843  0.1916
   31MOL   C42525685   4.377   3.554   6.608  0.3048 -0.7211  0.1572
   31MOL   C42625686   4.287   3.523   6.487 -0.0278  0.1655 -0.7045
   31MOL   C42725687   4.274   3.640   6.385  0.2242 -0.1953 -0.4153
   31MOL   C42825688   4.241   3.777   6.444  0.1839 -0.2722  0.0953
   31MOL   C42925689   4.208   3.905   6.365 -0.7832  0.7066  0.0697
   31MOL   C43025690   4.094   3.990   6.433  0.2698  0.5039  0.0608
   31MOL   C43125691   4.086   4.140   6.385 -0.3953 -0.5022 -0.6356
   31MOL   C43225692   3.960   4.219   6.441  0.2630  0.2573  0.2226
   31MOL   C43325693   3.951   4.368   6.388  1.6586  0.0853  0.7228
   31MOL   C43425694   3.873   4.465   6.490  0.4738  0.5673  0.2506
   31MOL   C43525695   3.729   4.431   6.516 -0.2781 -0.1185  0.0511
   31MOL   H43625696   4.301   3.474   6.994  2.2901 -1.1851 -1.7660
   31MOL   H43725697   4.253   3.593   6.861  0.2618 -0.9940 -1.0018
   31MOL   H43825698   4.178   3.410   6.730 -0.0859  1.6171  0.3902
   31MOL   H43925699   4.427   3.348   6.642  0.6284 -0.4168  0.6577
   31MOL   H44025700   4.474   3.448   6.780  0.5241 -3.0933  0.0353
   31MOL   H44125701   4.344   3.639   6.668  3.1896 -0.2461  1.1084
   31MOL   H44225702   4.470   3.580   6.559  0.9350  1.0474  2.2070
   31MOL   H44325703   4.187   3.513   6.530  0.4485  0.6161  0.5393
   31MOL   H44425704   4.322   3.427   6.452 -0.1049 -0.9354  2.0725
   31MOL   H44525705   4.211   3.627   6.296 -1.0813  1.1117  0.2880
   31MOL   H44625706   4.370   3.648   6.334 -0.1621 -0.6133 -1.2217
   31MOL   H44725707   4.161   3.762   6.516 -0.2654 -0.3401 -0.4151
   31MOL   H44825708   4.322   3.813   6.507  0.4022  1.6899 -1.2423
   31MOL   H44925709   4.296   3.968   6.369  1.1727 -1.7884 -1.9958
   31MOL   H45025710   4.178   3.877   6.264 -1.4707  1.6538 -0.0008
   31MOL   H45125711   3.996   3.946   6.420 -0.0002  0.8471  0.9176
   31MOL   H45225712   4.123   3.992   6.538  3.1812 -0.8147 -0.6504
   31MOL   H45325713   4.174   4.182   6.435 -0.0619  0.7945 -2.2867
   31MOL   H45425714   4.103   4.150   6.278 -1.0087 -0.3519 -0.7191
   31MOL   H45525715   3.870   4.171   6.403 -1.0870  1.1962  2.1466
   31MOL   H45625716   3.970   4.230   6.549 -0.1952 -1.8594  0.5008
   31MOL   H45725717   3.899   4.375   6.292  1.1512 -0.0935  0.9855
   31MOL   H45825718   4.056   4.396   6.374  1.8281 -1.0707 -0.4051
   31MOL   H45925719   3.925   4.478   6.585  0.3734 -0.6570  0.4805
   31MOL   H46025720   3.874   4.566   6.449  3.7378 -1.1932 -4.3161
   31MOL   H46125721   3.689   4.403   6.418 -0.0050 -1.2514  0.2503
   31MOL   H46225722   3.683   4.526   6.540  0.3103 -0.1005  1.1226
   31MOL   H46325723   3.720   4.347   6.586 -1.0302 -0.7785 -0.8157
   31MOL   C46425724   4.274   3.254   6.845  0.5713  0.1951  0.2809
   31MOL   C46525725   4.220   3.156   6.735  0.2114  0.5064  0.2115
   31MOL   C46625726   4.264   3.009   6.741  0.1562  0.1134  0.8007
   31MOL   C46725727   4.235   2.937   6.878  0.0868 -0.5341 -0.1345
   31MOL   C46825728   4.231   2.786   6.865  0.5382 -0.2044 -0.3808
   31MOL   C46925729   4.359   2.725   6.812  0.5231 -0.6231 -0.1086
   31MOL   C47025730   4.364   2.572   6.851 -0.8873  0.1241  0.5145
   31MOL   C47125731   4.492   2.496   6.816 -0.2026  0.5330 -0.4314
   31MOL   C47225732   4.476   2.347   6.807  0.0706  0.1068  0.7892
   31MOL   C47325733   4.437   2.276   6.935 -0.8932  0.4977 -0.8537
   31MOL   C47425734   4.427   2.127   6.933  0.2648  0.0009 -0.5587
   31MOL   C47525735   4.376   2.076   7.069 -0.1063 -0.0861  0.4252
   31MOL   C47625736   4.382   1.920   7.086  0.2972  0.1725  0.3451
   31MOL   C47725737   4.316   1.856   7.209 -0.0788  0.7884  0.1995
   31MOL   H47825738   4.210   3.239   6.932 -0.8197  0.6132 -0.6544
   31MOL   H47925739   4.377   3.230   6.873  0.6979 -0.8880 -1.0661
   31MOL   H48025740   4.262   3.205   6.647  0.1007 -0.5401 -0.4380
   31MOL   H48125741   4.210   2.959   6.662  0.5971 -0.7055  1.0137
   31MOL   H48225742   4.364   2.986   6.705  0.2460  2.4962 -0.5520
   31MOL   H48325743   4.142   2.972   6.923  0.5857 -0.1807  0.6368
   31MOL   H48425744   4.318   2.973   6.940  0.6816 -1.2381 -0.5098
   31MOL   H48525745   4.152   2.759   6.795 -0.4735  0.6712  0.4121
   31MOL   H48625746   4.208   2.732   6.957  1.1480 -3.8809 -2.2957
   31MOL   H48725747   4.369   2.723   6.704  0.9123 -1.6052 -0.0642
   31MOL   H48825748   4.439   2.771   6.870 -0.1151 -0.6116  0.7803
   31MOL   H48925749   4.336   2.561   6.956 -1.0827 -1.4930  0.3001
   31MOL   H49025750   4.279   2.531   6.796  1.1035 -0.7971 -1.9470
   31MOL   H49125751   4.533   2.528   6.721 -2.9097 -0.8037 -2.1084
   31MOL   H49225752   4.561   2.518   6.898  0.7416 -0.9613 -0.8120
   31MOL   H49325753   4.406   2.316   6.730  0.5643 -0.8099  0.6972
   31MOL   H49425754   4.571   2.313   6.766 -0.4471 -0.5092  0.0824
   31MOL   H49525755   4.500   2.304   7.019 -1.2270 -1.3102  0.0155
   31MOL   H49625756   4.342   2.313   6.971 -0.0775 -0.0054  1.9200
   31MOL   H49725757   4.350   2.097   6.862 -0.2326 -0.7493  0.2969
   31MOL   H49825758   4.519   2.082   6.895  1.4589 -0.3915  2.6745
   31MOL   H49925759   4.276   2.114   7.092  0.7587  1.1043  2.4149
   31MOL   H50025760   4.444   2.111   7.147  0.2613 -0.2257  0.1661
   31MOL   H50125761   4.350   1.874   6.993  0.0766  1.5653 -0.2860
   31MOL   H50225762   4.487   1.893   7.092  0.1539 -0.3515  0.5763
   31MOL   H50325763   4.340   1.750   7.211 -1.1678  0.4746 -1.9471
   31MOL   H50425764   4.360   1.899   7.299 -0.0949 -2.6361  1.9452
   31MOL   H50525765   4.208   1.870   7.210 -0.1527  0.1976  0.7369
   31MOL   C50625766   4.067   3.159   6.714 -0.5597 -0.1034  0.5605
   31MOL   C50725767   4.016   3.132   6.568 -0.4292  0.0143  0.1876
   31MOL   C50825768   3.892   3.043   6.570 -0.2766  0.0985 -0.3663
   31MOL   C50925769   3.911   2.890   6.589 -0.1465 -1.2537  0.5584
   31MOL   C51025770   3.793   2.805   6.554  0.5114  0.5265 -0.7951
   31MOL   C51125771   3.742   2.810   6.408 -0.5969 -0.2894  0.0885
   31MOL   C51225772   3.664   2.682   6.379 -0.4614 -0.6207 -0.7276
   31MOL   C51325773   3.648   2.645   6.232  0.2304  0.0618  0.0571
   31MOL   C51425774   3.585   2.519   6.186  0.0300  0.0921  0.2570
   31MOL   C51525775   3.436   2.505   6.233 -0.4906 -0.3920 -0.1256
   31MOL   C51625776   3.361   2.389   6.160 -0.4270 -0.1080  0.5695
   31MOL   C51725777   3.223   2.336   6.223 -0.6157  0.1297 -0.0478
   31MOL   C51825778   3.141   2.259   6.120 -0.7627  0.4117  0.4094
   31MOL   C51925779   2.990   2.271   6.147 -0.6001 -0.4153  0.0740
   31MOL   H52025780   4.029   3.257   6.742  2.2370  1.2004  0.0278
   31MOL   H52125781   4.024   3.089   6.785 -0.8891 -1.0118 -0.5173
   31MOL   H52225782   4.093   3.079   6.513 -0.5276  0.3623 -0.2831
   31MOL   H52325783   3.832   3.079   6.654  1.4741  2.2277  0.0119
   31MOL   H52425784   3.832   3.060   6.480 -2.4968 -3.5327  0.3109
   31MOL   H52525785   3.991   2.850   6.527 -0.7929 -1.2154 -0.3198
   31MOL   H52625786   3.951   2.865   6.687 -0.4390  0.1151  1.0335
   31MOL   H52725787   3.711   2.817   6.625  0.2700  3.5759 -1.4964
   31MOL   H52825788   3.825   2.702   6.569  1.5341  1.0738  0.9355
   31MOL   H52925789   3.816   2.821   6.330  0.1381  0.3992  0.8751
   31MOL   H53025790   3.680   2.900   6.407  1.0991  0.9144  0.4872
   31MOL   H53125791   3.713   2.608   6.442 -2.4181 -0.2853  1.2532
   31MOL   H53225792   3.572   2.690   6.436  0.0156  1.4832 -0.2151
   31MOL   H53325793   3.738   2.656   6.172 -0.8868  1.6906 -1.3831
   31MOL   H53425794   3.588   2.730   6.200 -0.0319  0.1495  0.7827
   31MOL   H53525795   3.643   2.435   6.225  2.0631  1.0259 -0.7310
   31MOL   H53625796   3.579   2.526   6.077 -2.8090  0.0586  0.3614
   31MOL   H53725797   3.434   2.487   6.340  1.5655 -0.3118 -0.0540
   31MOL   H53825798   3.390   2.601   6.209  0.0798 -0.1418 -0.2300
   31MOL   H53925799   3.342   2.427   6.060  5.6759  2.7278  0.2413
   31MOL   H54025800   3.433   2.308   6.148  3.4357  3.3474 -0.7646
   31MOL   H54125801   3.181   2.420   6.278 -0.2802  0.2656  0.0069
   31MOL   H54225802   3.243   2.260   6.298 -0.1490 -0.7762 -1.0813
   31MOL   H54325803   3.166   2.153   6.106  0.5450  0.8889 -1.0078
   31MOL   H54425804   3.149   2.310   6.024 -0.8726 -1.0245 -0.3864
   31MOL   H54525805   2.944   2.202   6.076  0.3684 -0.5548 -0.4202
   31MOL   H54625806   2.967   2.220   6.241  0.4652  0.7335  0.9764
   31MOL   H54725807   2.954   2.373   6.159 -0.1026 -0.2054 -0.1980
   31MOL   C54825808   3.975   3.262   6.482 -0.2107 -0.8090 -1.3825
   31MOL   C54925809   3.993   3.242   6.330  0.1765 -0.0688  0.6191
   31MOL   C55025810   3.897   3.331   6.251 -0.5553 -0.2074  0.2017
   31MOL   C55125811   3.897   3.484   6.282  0.3853 -0.2328 -0.6005
   31MOL   C55225812   3.836   3.575   6.184 -1.0091 -0.4080 -0.1378
   31MOL   C55325813   3.874   3.727   6.229 -0.4307  0.1305  0.0226
   31MOL   C55425814   3.783   3.824   6.149 -0.4073  0.8284 -0.0301
   31MOL   C55525815   3.804   3.974   6.170 -0.6660 -0.3407  0.8809
   31MOL   C55625816   3.730   4.054   6.067 -0.4219 -0.3488 -0.4144
   31MOL   C55725817   3.745   4.200   6.109 -0.1706 -0.5033  0.3924
   31MOL   C55825818   3.648   4.290   6.035 -0.3423 -0.0241  0.1240
   31MOL   C55925819   3.696   4.314   5.883 -0.4748 -0.0362  0.9197
   31MOL   C56025820   3.597   4.404   5.804 -0.3412  0.0786  0.0522
   31MOL   C56125821   3.654   4.430   5.667  0.3220 -0.2276  0.0780
   31MOL   H56225822   3.878   3.292   6.521  0.5024 -0.5631  0.2663
   31MOL   H56325823   4.040   3.347   6.505 -1.6445 -0.2620  0.7741
   31MOL   H56425824   3.965   3.139   6.307 -2.1950  0.8627 -0.8137
   31MOL   H56525825   3.930   3.314   6.149  1.3356 -0.3059  0.8050
   31MOL   H56625826   3.796   3.292   6.262 -1.1959  0.3208 -3.2731
   31MOL   H56725827   4.004   3.505   6.292  0.2154  1.4242 -1.9715
   31MOL   H56825828   3.858   3.495   6.383 -2.3930 -0.4685 -1.6201
   31MOL   H56925829   3.883   3.561   6.087  0.4211 -2.7799  0.8573
   31MOL   H57025830   3.728   3.569   6.176 -1.1755 -1.1180  2.1795
   31MOL   H57125831   3.978   3.754   6.211 -0.2924 -0.5957 -0.2748
   31MOL   H57225832   3.868   3.747   6.336 -0.8395 -2.0390  0.4271
   31MOL   H57325833   3.786   3.803   6.043  0.0393 -0.8576  0.2923
   31MOL   H57425834   3.680   3.799   6.174 -0.5246  0.1551 -1.1648
   31MOL   H57525835   3.911   3.996   6.173 -1.0249  1.6339 -0.2152
   31MOL   H57625836   3.760   3.998   6.267  0.9041  0.7725  1.3350
   31MOL   H57725837   3.623   4.037   6.082 -0.8559  0.7456 -2.1954
   31MOL   H57825838   3.763   4.027   5.967  3.6660  3.5884 -0.3003
   31MOL   H57925839   3.740   4.209   6.218 -0.4348 -1.2427  0.4393
   31MOL   H58025840   3.847   4.227   6.081 -1.0782  1.1961 -1.4743
   31MOL   H58125841   3.653   4.386   6.087  0.5729 -0.2595  0.4677
   31MOL   H58225842   3.545   4.254   6.044 -0.1021 -0.2303  2.3742
   31MOL   H58325843   3.791   4.365   5.897 -1.6475  2.4415  0.1705
   31MOL   H58425844   3.710   4.212   5.848  1.0453  0.5618 -0.2593
   31MOL   H58525845   3.511   4.337   5.806 -0.4789  0.2310 -0.5632
   31MOL   H58625846   3.594   4.498   5.859  3.1708 -0.3575  1.0540
   31MOL   H58725847   3.735   4.500   5.690 -0.7693  0.7333  1.0586
   31MOL   H58825848   3.695   4.343   5.615  0.2996  0.6596 -1.4620
   31MOL   H58925849   3.600   4.488   5.592  2.5337  2.8263  0.7347
   31MOL   C59025850   4.143   3.243   6.288  0.0994  0.0583  0.2325
   31MOL   C59125851   4.184   3.186   6.153  0.7353 -0.1578  0.0214
   31MOL   C59225852   4.325   3.232   6.114  0.5769  0.9838 -0.1052
   31MOL   C59325853   4.358   3.383   6.107 -0.3343  0.0410  0.4001
   31MOL   C59425854   4.501   3.421   6.064 -0.4560 -0.0657 -0.0259
   31MOL   C59525855   4.528   3.383   5.916  0.5533  0.1548  0.4369
   31MOL   C59625856   4.595   3.242   5.905  0.2730  0.8206 -0.4570
   31MOL   C59725857   4.590   3.199   5.754  0.0616 -0.2628 -0.0225
   31MOL   C59825858   4.648   3.054   5.745  0.6114 -0.3288  0.1711
   31MOL   C59925859   4.733   3.024   5.621 -0.0129  0.3316 -0.5460
   31MOL   C60025860   4.658   3.016   5.484  0.1564 -0.5147  0.2738
   31MOL   C60125861   4.576   2.900   5.466 -0.6837  0.2751 -0.1205
   31MOL   C60225862   4.481   2.916   5.342 -0.1360  1.5155  0.0241
   31MOL   C60325863   4.401   2.792   5.333 -0.0942 -0.3931  0.2452
   31MOL   H60425864   4.199   3.194   6.368 -3.3227 -0.6333  2.3240
   31MOL   H60525865   4.170   3.348   6.298  0.2581 -0.1258  1.9326
   31MOL   H60625866   4.126   3.233   6.074  2.9664  0.2724 -1.4021
   31MOL   H60725867   4.338   3.194   6.013  0.0549 -0.4310  0.3387
   31MOL   H60825868   4.394   3.178   6.179 -1.4152 -0.0103  1.2641
   31MOL   H60925869   4.345   3.422   6.208  0.7517  1.5943 -0.0537
   31MOL   H61025870   4.280   3.441   6.057  0.6470  3.6820  2.9131
   31MOL   H61125871   4.568   3.382   6.141 -0.3403  3.3172  1.7080
   31MOL   H61225872   4.506   3.530   6.060  0.1534 -0.1122 -0.6043
   31MOL   H61325873   4.594   3.458   5.873 -2.2329  4.5982  3.5448
   31MOL   H61425874   4.435   3.391   5.860  1.2175 -1.3142 -0.9547
   31MOL   H61525875   4.690   3.241   5.958 -1.2907 -0.9753  2.4156
   31MOL   H61625876   4.544   3.174   5.973  0.4140 -0.4713 -1.6026
   31MOL   H61725877   4.487   3.203   5.719 -0.1107  0.8906  0.5964
   31MOL   H61825878   4.655   3.267   5.700 -0.0443 -0.5453 -0.5033
   31MOL   H61925879   4.719   3.048   5.828  0.3591 -3.7280  0.2075
   31MOL   H62025880   4.568   2.981   5.759  0.2916 -0.3487 -1.6324
   31MOL   H62125881   4.821   3.086   5.605 -1.5485  2.2601 -1.7849
   31MOL   H62225882   4.786   2.931   5.638 -1.0165 -0.2668 -0.6134
   31MOL   H62325883   4.735   3.015   5.407  1.5981 -1.5957  1.7028
   31MOL   H62425884   4.602   3.110   5.478  0.1360 -0.5891 -0.7198
   31MOL   H62525885   4.503   2.888   5.546  1.9983  2.8949  2.8265
   31MOL   H62625886   4.637   2.810   5.455 -1.8109 -0.6736  1.1916
   31MOL   H62725887   4.411   2.997   5.365 -1.8355  0.0216  0.2095
   31MOL   H62825888   4.531   2.946   5.250 -0.2453  0.4327 -0.3905
   31MOL   H62925889   4.459   2.700   5.338  1.0635  0.2230 -1.4255
   31MOL   H63025890   4.344   2.786   5.241 -1.3449 -0.2562  0.9925
   31MOL   H63125891   4.329   2.789   5.415  1.0953  1.9328  1.4454
   31MOL   C63225892   4.166   3.032   6.140  0.3969 -1.1982  0.3517
   31MOL   C63325893   4.103   2.992   6.004  0.0468 -0.3793 -0.2413
   31MOL   C63425894   3.949   3.040   5.995  1.3469  0.0976 -0.1876
   31MOL   C63525895   3.850   2.933   6.050 -0.5383 -0.2600 -0.3649
   31MOL   C63625896   3.701   2.980   6.019  0.1137  0.8726 -0.3495
   31MOL   C63725897   3.659   3.117   6.069 -0.1980 -0.0842 -0.5352
   31MOL   C63825898   3.517   3.160   6.020 -0.8056 -0.0495 -0.5060
   31MOL   C63925899   3.475   3.302   6.052  1.1020 -0.4059 -0.7786
   31MOL   C64025900   3.562   3.416   5.985  0.5811  0.6900  0.5297
   31MOL   C64125901   3.500   3.556   5.999 -0.3329  0.8345 -1.0325
   31MOL   C64225902   3.568   3.652   5.900 -0.6002  0.1400  0.4853
   31MOL   C64325903   3.491   3.777   5.881  0.5044 -0.2369  0.4482
   31MOL   C64425904   3.558   3.872   5.780 -0.0066  0.0983  0.0143
   31MOL   C64525905   3.463   3.991   5.759 -0.3155  0.0680 -0.3401
   31MOL   H64625906   4.109   2.983   6.219  0.4941 -2.2043 -0.1936
   31MOL   H64725907   4.264   2.983   6.135  2.0104  2.0689 -2.2430
   31MOL   H64825908   4.089   2.884   6.015 -0.7771 -0.6711 -3.5997
   31MOL   H64925909   3.939   3.135   6.049  0.6574  0.1301 -0.3690
   31MOL   H65025910   3.916   3.067   5.895 -0.7100 -0.9977  0.1764
   31MOL   H65125911   3.871   2.916   6.156  1.3149  0.0695 -0.6488
   31MOL   H65225912   3.878   2.836   6.007  1.7247  1.2164 -2.4021
   31MOL   H65325913   3.632   2.900   6.045  0.6254  0.1515 -1.1318
   31MOL   H65425914   3.691   2.989   5.911  0.1908 -1.6077 -0.5923
   31MOL   H65525915   3.675   3.127   6.177  1.2115 -0.6668 -0.6704
   31MOL   H65625916   3.731   3.193   6.040  0.1494 -0.1247  0.1954
   31MOL   H65725917   3.501   3.128   5.917  0.4467  0.2108 -0.7807
   31MOL   H65825918   3.449   3.085   6.061  1.8754 -0.7433  2.9291
   31MOL   H65925919   3.478   3.321   6.160  1.6157 -0.2773 -0.8127
   31MOL   H66025920   3.373   3.311   6.015  0.3866 -3.0082  0.4527
   31MOL   H66125921   3.558   3.379   5.882 -1.5272 -0.1113  0.8561
   31MOL   H66225922   3.663   3.413   6.024  0.5080 -0.7466  0.6442
   31MOL   H66325923   3.396   3.542   5.968 -0.3394  0.2343 -0.7510
   31MOL   H66425924   3.508   3.586   6.103  1.0357 -0.1711 -0.8218
   31MOL   H66525925   3.676   3.660   5.916 -0.5331  1.2586 -0.4461
   31MOL   H66625926   3.560   3.600   5.805 -1.5627  0.5167  0.3531
   31MOL   H66725927   3.493   3.836   5.973  0.2179  0.6070 -0.0846
   31MOL   H66825928   3.388   3.753   5.855  0.0505  0.7522  1.3316
   31MOL   H66925929   3.568   3.823   5.683  2.5801  2.0548 -0.7811
   31MOL   H67025930   3.655   3.914   5.808  0.9190 -1.6287 -0.4975
   31MOL   H67125931   3.475   4.060   5.843 -2.3384  0.5258 -0.4203
   31MOL   H67225932   3.483   4.042   5.665  1.0222 -1.5862 -1.0058
   31MOL   H67325933   3.361   3.964   5.733  0.1623 -1.3533 -0.7910
   31MOL   C67425934   4.178   3.029   5.873 -0.5181  0.5188 -0.1515
   31MOL   C67525935   4.133   2.958   5.742 -0.1668 -0.0308  0.0625
   31MOL   C67625936   4.227   3.005   5.631  0.0879 -0.3059 -0.1193
   31MOL   C67725937   4.214   3.160   5.595  0.1367  0.2024  0.3370
   31MOL   C67825938   4.304   3.213   5.480  0.3560 -0.1068 -0.8168
   31MOL   C67925939   4.257   3.359   5.453 -0.5627  0.5781 -0.2162
   31MOL   C68025940   4.335   3.420   5.331  0.1719 -0.3929  0.3798
   31MOL   C68125941   4.307   3.571   5.313 -0.2169  0.4695 -0.2579
   31MOL   C68225942   4.344   3.623   5.178  0.4322  0.2705  0.2416
   31MOL   C68325943   4.293   3.773   5.152 -0.2069 -0.1080 -0.3773
   31MOL   C68425944   4.145   3.778   5.109 -0.5163  0.5492  0.3316
   31MOL   C68525945   4.123   3.767   4.956 -0.2318  0.2974  0.1062
   31MOL   C68625946   3.978   3.777   4.908  0.1270 -0.8058  0.0417
   31MOL   C68725947   3.916   3.916   4.950 -0.0788  0.2755 -1.0823
   31MOL   H68825948   4.285   3.011   5.885 -0.2720  2.4279  0.6570
   31MOL   H68925949   4.164   3.136   5.860 -0.1183  0.7304  1.1392
   31MOL   H69025950   4.034   3.001   5.727 -1.0017 -1.5670  1.0480
   31MOL   H69125951   4.333   2.986   5.645  0.1834 -0.0635 -0.5189
   31MOL   H69225952   4.192   2.954   5.542 -1.3030 -2.2108  1.4781
   31MOL   H69325953   4.110   3.189   5.583 -0.1485 -0.6705  0.6444
   31MOL   H69425954   4.247   3.217   5.682 -1.0634 -0.9591  1.5806
   31MOL   H69525955   4.410   3.211   5.502  0.2855  1.4321 -0.2998
   31MOL   H69625956   4.297   3.170   5.380  1.1942 -1.1775 -0.4173
   31MOL   H69725957   4.153   3.367   5.422 -0.4912 -1.4346 -1.0604
   31MOL   H69825958   4.279   3.421   5.540 -3.3591  0.0634  0.9210
   31MOL   H69925959   4.440   3.399   5.351  0.0973 -1.2486 -0.1442
   31MOL   H70025960   4.311   3.370   5.238  2.7090 -0.5777 -0.2169
   31MOL   H70125961   4.200   3.586   5.328 -0.0198  0.8722  0.7754
   31MOL   H70225962   4.358   3.631   5.389  1.2660 -0.7914 -0.2276
   31MOL   H70325963   4.453   3.620   5.183  0.4193  0.6741  0.8461
   31MOL   H70425964   4.310   3.551   5.104  0.7437 -2.3184  2.5074
   31MOL   H70525965   4.358   3.830   5.086 -1.6706 -1.3051 -2.9195
   31MOL   H70625966   4.315   3.822   5.247  1.3915 -0.3691 -0.5846
   31MOL   H70725967   4.098   3.870   5.144 -0.6684  0.1040  1.3282
   31MOL   H70825968   4.092   3.698   5.161  1.6031 -0.0189  1.6837
   31MOL   H70925969   4.166   3.673   4.920  0.6129  1.5304 -2.2111
   31MOL   H71025970   4.188   3.842   4.910  0.9868  0.5542  2.1937
   31MOL   H71125971   3.976   3.783   4.799  1.3584  0.3461  0.0647
   31MOL   H71225972   3.910   3.693   4.919 -2.1858  0.8371 -1.1505
   31MOL   H71325973   3.818   3.929   4.903 -0.0874 -1.0048 -1.4442
   31MOL   H71425974   3.897   3.918   5.057 -0.2715 -2.1500 -1.0382
   31MOL   H71525975   3.971   4.002   4.914  1.1690  0.4780  1.2165
   31MOL   C71625976   4.141   2.803   5.740 -0.2893 -0.2055 -0.1921
   31MOL   C71725977   4.062   2.721   5.634  0.1844  0.2466  0.1705
   31MOL   C71825978   4.088   2.570   5.652  0.6219 -0.6311 -0.3999
   31MOL   C71925979   4.222   2.533   5.592  0.3815  0.0602  0.0784
   31MOL   C72025980   4.258   2.383   5.617 -0.2149 -0.2185 -0.3464
   31MOL   C72125981   4.390   2.344   5.545  0.0484 -0.6722  0.4534
   31MOL   C72225982   4.509   2.409   5.606 -0.2472  0.4109  0.0065
   31MOL   C72325983   4.636   2.345   5.551 -0.8157 -0.0322 -0.0316
   31MOL   C72425984   4.770   2.399   5.613 -0.1226 -0.6328  0.7690
   31MOL   C72525985   4.890   2.318   5.549  0.4338  0.8787  0.1109
   31MOL   C72625986   5.030   2.376   5.585 -0.6436 -0.3554 -0.4749
   31MOL   C72725987   5.150   2.306   5.514 -0.0798 -0.4367 -0.7997
   31MOL   C72825988   5.287   2.337   5.590 -0.8697 -0.1428  0.4014
   31MOL   C72925989   5.413   2.291   5.528 -0.5105 -0.1612  0.1856
   31MOL   H73025990   4.247   2.777   5.734 -0.3045 -0.0909 -0.9204
   31MOL   H73125991   4.106   2.768   5.838  2.5460 -1.3136  0.4989
   31MOL   H73225992   4.095   2.753   5.535  0.6765  0.3242  0.3568
   31MOL   H73325993   4.015   2.508   5.600  0.5189 -0.0024 -0.9937
   31MOL   H73425994   4.089   2.536   5.756  0.9468  0.3161 -0.0907
   31MOL   H73525995   4.214   2.553   5.485  0.3912 -1.2484 -0.1707
   31MOL   H73625996   4.295   2.605   5.629 -0.0180  1.9208 -2.6143
   31MOL   H73725997   4.261   2.362   5.724 -1.3992  0.7104 -0.1132
   31MOL   H73825998   4.174   2.327   5.578 -0.2302 -3.3838  3.8680
   31MOL   H73925999   4.393   2.235   5.552  1.1821 -0.5910  1.3151
   31MOL   H74026000   4.390   2.382   5.442  0.4447  3.0168  1.7408
   31MOL   H74126001   4.517   2.517   5.589  0.8638  0.3139 -0.1385
   31MOL   H74226002   4.501   2.385   5.712 -2.5648 -2.5520 -0.7628
   31MOL   H74326003   4.650   2.371   5.447 -1.8706  0.6276 -0.0059
   31MOL   H74426004   4.618   2.239   5.570 -1.4502 -0.2366 -1.7413
   31MOL   H74526005   4.761   2.503   5.584 -0.5137 -0.4692  1.4625
   31MOL   H74626006   4.775   2.404   5.722 -0.8273 -1.4422  0.8492
   31MOL   H74726007   4.888   2.213   5.580 -1.7069  0.3614 -1.6414
   31MOL   H74826008   4.871   2.317   5.442  2.1434  0.2725 -0.1995
   31MOL   H74926009   5.038   2.484   5.570 -1.0153 -0.4889 -1.7731
   31MOL   H75026010   5.045   2.367   5.692  0.5333  0.6103 -0.5483
   31MOL   H75126011   5.137   2.198   5.507  1.2297 -0.6961  0.5967
   31MOL   H75226012   5.165   2.335   5.411  0.5797 -0.0895 -0.6038
   31MOL   H75326013   5.277   2.300   5.692  0.5511 -0.4096  0.4500
   31MOL   H75426014   5.303   2.445   5.596 -0.7781 -0.2005  1.2814
   31MOL   H75526015   5.431   2.185   5.547  1.1378 -0.0831 -0.8556
   31MOL   H75626016   5.506   2.334   5.566 -0.8397  0.4009  0.3425
   31MOL   H75726017   5.401   2.307   5.421 -1.6386 -1.1188  0.1630
   31MOL   C75826018   3.912   2.747   5.653  0.4589 -0.1006  0.1753
   31MOL   C75926019   3.810   2.682   5.551  0.4745  0.3700 -0.5344
   31MOL   C76026020   3.665   2.718   5.587 -0.0411  0.3098 -0.8534
   31MOL   C76126021   3.612   2.700   5.734 -0.3687  0.0586  0.0705
   31MOL   C76226022   3.458   2.740   5.752 -0.1450  0.1157 -0.1218
   31MOL   C76326023   3.420   2.717   5.899 -0.1033  0.2402  0.2896
   31MOL   C76426024   3.294   2.789   5.935 -0.8737 -1.1551 -0.7790
   31MOL   C76526025   3.166   2.729   5.896  0.3241  0.4150 -0.0064
   31MOL   C76626026   3.039   2.781   5.967 -0.0726  0.0047  0.1961
   31MOL   C76726027   2.915   2.698   5.948 -0.1976  0.0246  0.0089
   31MOL   C76826028   2.785   2.768   5.986  0.4230 -0.0563 -0.0857
   31MOL   C76926029   2.766   2.793   6.138  0.5207 -0.9434 -0.2274
   31MOL   C77026030   2.646   2.891   6.166  0.0404 -0.7820 -0.2799
   31MOL   C77126031   2.511   2.822   6.146 -0.3246 -0.3671  0.0681
   31MOL   H77226032   3.887   2.705   5.751 -1.3472  2.7057  0.9640
   31MOL   H77326033   3.899   2.855   5.653 -0.0113 -0.1205  2.6780
   31MOL   H77426034   3.817   2.574   5.564  0.2759  0.2273 -1.5888
   31MOL   H77526035   3.640   2.822   5.567 -0.5840 -0.1036 -2.4404
   31MOL   H77626036   3.595   2.670   5.518  0.3195 -0.7422 -0.4908
   31MOL   H77726037   3.632   2.595   5.756 -2.0577  0.3955  3.6085
   31MOL   H77826038   3.673   2.756   5.805  1.7839 -2.4839  0.3060
   31MOL   H77926039   3.400   2.675   5.687 -1.0130  1.1187 -0.3640
   31MOL   H78026040   3.442   2.844   5.722 -2.7662 -0.6387 -1.4498
   31MOL   H78126041   3.492   2.757   5.971  0.3414  0.3722 -0.2326
   31MOL   H78226042   3.424   2.610   5.921  0.1691  0.0021 -0.9089
   31MOL   H78326043   3.303   2.814   6.041 -2.7935  0.2241 -0.9083
   31MOL   H78426044   3.301   2.893   5.903 -0.3049 -1.2879 -1.0956
   31MOL   H78526045   3.175   2.621   5.895  0.2796  0.3960  1.0673
   31MOL   H78626046   3.147   2.750   5.790 -2.5271  0.2265  0.4147
   31MOL   H78726047   3.021   2.885   5.939 -0.4951 -0.2673 -0.5425
   31MOL   H78826048   3.059   2.783   6.074  0.4002  0.1265  0.1061
   31MOL   H78926049   2.919   2.601   5.998  2.8950  0.5362  0.8812
   31MOL   H79026050   2.920   2.680   5.841 -0.1567  0.2766 -0.0306
   31MOL   H79126051   2.781   2.858   5.925 -0.4629  0.0412  0.1105
   31MOL   H79226052   2.703   2.707   5.947  0.7048 -0.2012 -0.4558
   31MOL   H79326053   2.759   2.698   6.190 -1.5403  0.3469  1.9189
   31MOL   H79426054   2.851   2.854   6.168 -0.1403  0.0043 -0.2603
   31MOL   H79526055   2.670   2.921   6.268 -0.8348 -0.6558 -0.1073
   31MOL   H79626056   2.667   2.983   6.111  1.4019  0.2578  1.8863
   31MOL   H79726057   2.493   2.795   6.043 -2.9734  0.9107  0.1610
   31MOL   H79826058   2.485   2.738   6.211 -1.3818 -0.4858 -0.5022
   31MOL   H79926059   2.436   2.898   6.168  1.1997  0.9555  0.8815
   31MOL   C80026060   3.838   2.720   5.405 -0.2365  0.1557  0.3953
   31MOL   C80126061   3.938   2.632   5.328  0.4454 -0.4527  0.1803
   31MOL   C80226062   3.915   2.634   5.172  0.5778 -0.2374  0.3969
   31MOL   C80326063   3.997   2.532   5.089  0.4010  0.1568  0.2401
   31MOL   C80426064   4.154   2.552   5.100 -0.0087  0.9901 -0.1512
   31MOL   C80526065   4.243   2.468   5.003  0.0026 -0.2826 -0.1061
   31MOL   C80626066   4.376   2.424   5.070  0.2586 -0.5671  1.1598
   31MOL   C80726067   4.357   2.309   5.173  0.0687  0.2193 -0.0391
   31MOL   C80826068   4.496   2.258   5.217 -0.0362  0.3967  0.0167
   31MOL   C80926069   4.537   2.117   5.163  0.5075 -0.8554 -0.0227
   31MOL   C81026070   4.593   2.117   5.020 -0.2233 -0.5285  0.6458
   31MOL   C81126071   4.653   1.984   4.982 -0.0501 -0.5384 -0.7544
   31MOL   C81226072   4.723   1.972   4.842 -0.5604 -0.6712  0.3428
   31MOL   C81326073   4.790   1.834   4.814  0.0037  0.2594  0.0637
   31MOL   H81426074   3.874   2.820   5.384 -2.8563  1.2257  0.8286
   31MOL   H81526075   3.743   2.706   5.354 -1.0297 -0.0779  1.9221
   31MOL   H81626076   3.945   2.532   5.372 -2.3681 -1.5326 -1.6745
   31MOL   H81726077   3.926   2.736   5.135 -1.6600 -0.1909 -0.2179
   31MOL   H81826078   3.810   2.612   5.153  0.9954 -1.2930 -0.7145
   31MOL   H81926079   3.976   2.557   4.984  0.7307  0.4820  0.2493
   31MOL   H82026080   3.981   2.426   5.109  1.2335  0.1075  0.6762
   31MOL   H82126081   4.192   2.654   5.097  1.7811  0.3743  0.8347
   31MOL   H82226082   4.173   2.518   5.202  0.2644 -1.3924 -0.9845
   31MOL   H82326083   4.250   2.526   4.911 -0.5408  2.4509  1.5270
   31MOL   H82426084   4.197   2.371   4.984  1.3251 -0.4586 -2.6088
   31MOL   H82526085   4.427   2.395   4.978 -1.2960 -0.7064  0.3311
   31MOL   H82626086   4.435   2.503   5.116  0.4870  0.3174 -0.5871
   31MOL   H82726087   4.294   2.344   5.254 -1.4243 -2.8906  0.2174
   31MOL   H82826088   4.305   2.223   5.130 -0.2229  0.5995 -0.4506
   31MOL   H82926089   4.576   2.329   5.198 -0.0873  0.9379  1.6960
   31MOL   H83026090   4.485   2.244   5.325  1.1566 -2.0467 -0.1388
   31MOL   H83126091   4.457   2.045   5.179 -0.1309 -0.2887 -0.6446
   31MOL   H83226092   4.610   2.077   5.234  1.2850  0.2940 -0.1602
   31MOL   H83326093   4.509   2.141   4.956  0.5072 -0.4460 -0.2959
   31MOL   H83426094   4.662   2.196   4.993 -0.7258 -0.6957 -1.1569
   31MOL   H83526095   4.575   1.909   4.972 -2.9946  2.0879  1.7577
   31MOL   H83626096   4.731   1.955   5.053  0.2520 -0.8194 -1.1937
   31MOL   H83726097   4.659   1.988   4.755 -0.1066  1.3246  0.3604
   31MOL   H83826098   4.803   2.045   4.850 -0.2847 -0.7269 -1.6315
   31MOL   H83926099   4.843   1.787   4.897 -1.3260 -1.7452 -0.1848
   31MOL   H84026100   4.720   1.754   4.789  3.4234 -2.8405  0.0332
   31MOL   H84126101   4.859   1.842   4.731  0.2255 -1.6518  0.0415
   31MOL   H84226102   4.038   2.673   5.345  0.7744 -1.3854  0.5235
   32MOL     C126103   4.347   7.106   1.816  0.3217  0.0426 -0.4309
   32MOL     C226104   4.389   7.040   1.950  0.0473  0.4140  0.0823
   32MOL     C326105   4.489   6.928   1.915  0.4205  0.0149  0.0552
   32MOL     C426106   4.476   6.814   2.019 -0.2364  0.3054 -0.4818
   32MOL     C526107   4.592   6.713   2.017  0.0383  0.2222  0.5157
   32MOL     C626108   4.597   6.618   2.134  0.7304 -0.0911 -0.4930
   32MOL     C726109   4.731   6.539   2.169  0.2425  0.3418  0.5158
   32MOL     C826110   4.829   6.627   2.252 -0.1030 -0.4547 -0.0813
   32MOL     C926111   4.956   6.545   2.269 -0.1353  0.7420 -0.2025
   32MOL    C1026112   5.046   6.596   2.386 -0.0113  0.1689 -0.3262
   32MOL    C1126113   5.132   6.715   2.347 -0.2472  0.4752  0.0284
   32MOL    C1226114   5.187   6.795   2.465  0.0107  0.5802 -0.8340
   32MOL    C1326115   5.265   6.925   2.419 -0.4462  0.1106 -0.1570
   32MOL    C1426116   5.285   7.008   2.543 -0.7526 -0.6706  0.1213
   32MOL    H1526117   4.428   7.160   1.767 -0.3718  0.9715 -0.5762
   32MOL    H1626118   4.260   7.173   1.819  0.2264  0.0256 -2.2189
   32MOL    H1726119   4.296   7.003   1.994 -0.2044  1.3351  0.3324
   32MOL    H1826120   4.459   6.879   1.822 -1.5149 -0.2499  0.7869
   32MOL    H1926121   4.592   6.962   1.914  0.3214  0.2950 -0.7311
   32MOL    H2026122   4.381   6.762   2.013 -0.9321  1.8214 -3.1974
   32MOL    H2126123   4.490   6.860   2.117  0.4066 -0.3417 -0.2626
   32MOL    H2226124   4.685   6.770   2.016 -0.6548  1.4163  1.7330
   32MOL    H2326125   4.596   6.657   1.924 -1.6226 -0.4372  0.8283
   32MOL    H2426126   4.512   6.552   2.118  1.1527 -1.4840  2.7012
   32MOL    H2526127   4.573   6.669   2.227 -2.3552 -1.3226 -0.5622
   32MOL    H2626128   4.707   6.460   2.241  1.2999 -0.2492  0.2399
   32MOL    H2726129   4.776   6.488   2.083 -3.0949 -1.7372 -0.1311
   32MOL    H2826130   4.780   6.653   2.346 -0.3802 -2.2539  0.2876
   32MOL    H2926131   4.829   6.722   2.198  0.4661 -0.0161  0.6872
   32MOL    H3026132   4.923   6.443   2.289  1.6539 -0.7144 -4.0638
   32MOL    H3126133   5.010   6.537   2.175  0.0471 -0.8063  0.0216
   32MOL    H3226134   4.986   6.617   2.475 -0.1129  0.5069 -0.4751
   32MOL    H3326135   5.111   6.514   2.417  0.4220  0.0940 -1.4296
   32MOL    H3426136   5.202   6.687   2.269  0.2427  0.9164  0.3064
   32MOL    H3526137   5.068   6.774   2.280 -0.4531 -0.7235 -0.8492
   32MOL    H3626138   5.259   6.737   2.522 -0.1720  0.6545 -0.5292
   32MOL    H3726139   5.102   6.825   2.526  1.5302  3.7122 -0.1517
   32MOL    H3826140   5.364   6.894   2.384  0.1231  0.7493  0.8230
   32MOL    H3926141   5.224   6.993   2.345  1.3164 -2.6574 -3.8117
   32MOL    H4026142   5.351   7.087   2.507  1.3827 -2.5555 -0.1547
   32MOL    H4126143   5.192   7.055   2.577  0.4375  2.0498 -0.2071
   32MOL    H4226144   5.323   6.954   2.629  0.9632  1.9879  1.0750
   32MOL    H4326145   4.317   7.033   1.741 -1.8918 -0.8562  1.2635
   32MOL    C4426146   4.447   7.143   2.040  0.1019  0.0238  0.6774
   32MOL    C4526147   4.348   7.245   2.094 -0.5517 -0.9349 -0.1606
   32MOL    C4626148   4.428   7.355   2.171 -0.3422  0.4892 -0.3755
   32MOL    C4726149   4.517   7.449   2.086 -0.3135  0.6964 -0.1960
   32MOL    C4826150   4.642   7.500   2.163  0.8629  0.6473 -0.4242
   32MOL    C4926151   4.704   7.616   2.078  0.3012 -0.8906 -0.3084
   32MOL    C5026152   4.823   7.673   2.147  0.4655  0.0414 -0.6963
   32MOL    C5126153   4.910   0.062   2.054  0.6846 -0.7085  0.2568
   32MOL    C5226154   5.004   0.143   2.136 -0.0828  0.1638 -0.3061
   32MOL    C5326155   5.082   0.257   2.056 -0.4928  0.2821  0.6455
   32MOL    C5426156   5.151   0.353   2.148 -0.7704  0.3002 -0.0928
   32MOL    C5526157   5.246   0.452   2.078  0.3578  0.4524 -0.8771
   32MOL    C5626158   5.170   0.552   1.977 -0.2263 -0.0206 -0.2672
   32MOL    C5726159   5.090   0.653   2.062 -1.0735  0.2331 -0.9466
   32MOL    H5826160   4.489   7.097   2.130 -1.7397 -1.2586  0.9177
   32MOL    H5926161   4.539   7.190   2.006  0.1656  0.1466  1.0179
   32MOL    H6026162   4.295   7.299   2.016 -0.6978  0.8922  1.1722
   32MOL    H6126163   4.378   7.415   2.248  0.0230  0.9460 -0.4922
   32MOL    H6226164   4.496   7.300   2.236 -0.8834  2.2144  1.7483
   32MOL    H6326165   4.453   7.531   2.052 -0.8007  0.3005 -0.2496
   32MOL    H6426166   4.545   7.386   2.001  0.0414 -0.2029  0.5797
   32MOL    H6526167   4.714   7.422   2.186 -1.9477 -1.2071  2.5469
   32MOL    H6626168   4.613   7.551   2.255  0.8300 -1.9821  1.0640
   32MOL    H6726169   4.730   7.605   1.972 -3.4049 -2.7203 -1.1014
   32MOL    H6826170   4.625   7.691   2.071 -0.4410 -1.5253  1.0660
   32MOL    H6926171   4.790   0.030   2.236 -0.4963 -0.1978 -0.9054
   32MOL    H7026172   4.879   7.588   2.185  1.1203  0.9706  0.4508
   32MOL    H7126173   4.852   0.120   1.982 -0.2617  1.3324  2.5771
   32MOL    H7226174   4.961   7.692   1.984 -0.4683  1.0935 -2.3852
   32MOL    H7326175   4.953   0.185   2.223  1.0514  1.9652 -0.4749
   32MOL    H7426176   5.072   0.074   2.185 -2.0729 -1.1088  0.7608
   32MOL    H7526177   5.024   0.316   1.985 -1.6943 -0.1864  1.2165
   32MOL    H7626178   5.146   0.203   1.986  0.8811  2.2648  0.3208
   32MOL    H7726179   5.215   0.294   2.212  0.4940  1.8006  0.0668
   32MOL    H7826180   5.096   0.413   2.221 -2.0793  0.3414 -1.0784
   32MOL    H7926181   5.306   0.497   2.158  1.7304  0.8089 -2.0948
   32MOL    H8026182   5.322   0.395   2.025  0.6583  1.8876 -2.0188
   32MOL    H8126183   5.118   0.510   1.891  0.8821  3.6946 -2.8772
   32MOL    H8226184   5.253   0.609   1.934  0.7931  0.5896  2.3658
   32MOL    H8326185   5.162   0.704   2.126 -0.7073 -1.1128 -0.2641
   32MOL    H8426186   5.015   0.610   2.129 -1.2372  2.8166  0.6075
   32MOL    H8526187   5.041   0.727   1.999  0.0628 -0.7351 -3.0047
   32MOL    C8626188   4.235   7.193   2.190  0.0929  0.0405  0.1349
   32MOL    C8726189   4.142   7.305   2.247  0.4471  0.1011 -0.6333
   32MOL    C8826190   4.124   7.292   2.401  0.2826 -0.7631  0.2128
   32MOL    C8926191   4.244   7.321   2.489 -0.2646 -0.0919  0.1203
   32MOL    C9026192   4.220   7.334   2.635  0.2320  0.4467 -0.0360
   32MOL    C9126193   4.355   7.366   2.698  0.2827 -0.4652 -0.3272
   32MOL    C9226194   4.351   7.325   2.847  0.4494  0.0505  0.1809
   32MOL    C9326195   4.486   7.356   2.915  0.5874 -0.7490 -0.2725
   32MOL    C9426196   4.589   7.248   2.885 -0.0575 -0.1014  0.4520
   32MOL    C9526197   4.726   7.301   2.928  0.3049  0.2212  0.4218
   32MOL    C9626198   4.838   7.203   2.886 -0.3392  0.4400 -0.1647
   32MOL    C9726199   4.980   7.260   2.912 -0.0804  0.0388  0.2873
   32MOL    C9826200   5.085   7.162   2.972 -0.8425 -0.0317 -0.3724
   32MOL    C9926201   5.216   7.235   3.011  0.3424  1.0327 -0.0904
   32MOL   H10026202   4.170   7.121   2.140 -1.7674  2.0571 -0.3776
   32MOL   H10126203   4.282   7.137   2.271  2.0081  3.3471  1.3711
   32MOL   H10226204   4.179   7.407   2.249 -1.6684  0.8815 -0.1927
   32MOL   H10326205   4.045   7.362   2.429 -0.6484 -2.1343  1.0890
   32MOL   H10426206   4.078   7.195   2.418  0.0786 -0.5310  1.0016
   32MOL   H10526207   4.326   7.252   2.472 -1.6339 -1.9573  0.8368
   32MOL   H10626208   4.281   7.420   2.461  1.1028  0.0954  2.4414
   32MOL   H10726209   4.191   7.236   2.672  0.3476 -0.4938 -2.3430
   32MOL   H10826210   4.144   7.409   2.657  1.4735  1.5706  0.5637
   32MOL   H10926211   4.383   7.470   2.684 -0.5065 -0.2033  0.0100
   32MOL   H11026212   4.429   7.307   2.644  1.0164  0.0005  0.1588
   32MOL   H11126213   4.273   7.386   2.891  0.4235  2.0263 -2.4280
   32MOL   H11226214   4.328   7.219   2.856 -1.6206  0.4803  0.1851
   32MOL   H11326215   4.462   7.365   3.021  1.2221 -1.8239 -0.0323
   32MOL   H11426216   4.526   7.451   2.881  0.2558 -1.1907 -1.9474
   32MOL   H11526217   4.561   7.156   2.936  2.4362 -0.8459  0.5405
   32MOL   H11626218   4.592   7.211   2.783  3.8468 -2.6221  1.3880
   32MOL   H11726219   4.727   7.302   3.037 -2.2017 -1.3126  0.4909
   32MOL   H11826220   4.752   7.399   2.888  1.6161  0.2116  1.2220
   32MOL   H11926221   4.824   7.110   2.943  0.2255  0.9256  0.7912
   32MOL   H12026222   4.837   7.168   2.783  0.9197  2.4346 -0.8859
   32MOL   H12126223   5.012   7.323   2.829  0.4987 -0.3630  0.2028
   32MOL   H12226224   4.979   7.323   3.001 -1.3988 -0.5855  0.7130
   32MOL   H12326225   5.105   7.084   2.898 -1.6209 -0.9114  0.3393
   32MOL   H12426226   5.042   7.124   3.064  0.6095 -0.1863  0.2674
   32MOL   H12526227   5.271   7.273   2.925  0.5869  0.7146 -0.0749
   32MOL   H12626228   5.196   7.317   3.080  0.8575  2.1386 -1.2223
   32MOL   H12726229   5.288   7.167   3.055 -1.8780  0.5421  2.9328
   32MOL   C12826230   4.003   7.301   2.182 -0.0734  0.4916 -0.4006
   32MOL   C12926231   4.003   7.353   2.033 -0.1092  1.1897  0.8386
   32MOL   C13026232   3.868   7.307   1.961 -0.1876  0.0885  0.2362
   32MOL   C13126233   3.872   7.160   1.909 -1.1774  0.4880  0.5120
   32MOL   C13226234   3.739   7.116   1.849  0.1275 -0.3196  0.3614
   32MOL   C13326235   3.767   6.978   1.785 -0.0738 -0.0470  0.0856
   32MOL   C13426236   3.667   6.940   1.671 -0.3830  0.0775  0.0398
   32MOL   C13526237   3.639   6.795   1.645  0.3226 -0.1035  0.4403
   32MOL   C13626238   3.529   6.728   1.732 -0.3353  0.2397  0.0449
   32MOL   C13726239   3.503   6.575   1.707 -0.4787  0.1330 -0.2189
   32MOL   C13826240   3.383   6.527   1.801 -0.2307  0.8334  0.4290
   32MOL   C13926241   3.327   6.391   1.778 -0.2048  0.2512  0.4082
   32MOL   C14026242   3.237   6.360   1.659  0.1156 -0.6523 -0.0908
   32MOL   C14126243   3.183   6.222   1.647  0.5754 -0.3241 -0.2922
   32MOL   H14226244   3.954   7.204   2.177 -1.6655  1.2014  0.9280
   32MOL   H14326245   3.926   7.356   2.237 -0.2316 -0.8947  0.7972
   32MOL   H14426246   4.089   7.305   1.985  0.3751  3.3034 -0.4745
   32MOL   H14526247   3.789   7.318   2.035 -0.7284 -2.5327  0.0961
   32MOL   H14626248   3.839   7.384   1.889  0.2732 -1.1448 -1.2936
   32MOL   H14726249   3.951   7.142   1.836 -1.5566 -1.6412  0.5967
   32MOL   H14826250   3.912   7.093   1.985  2.2482 -1.3107 -2.6888
   32MOL   H14926251   3.659   7.105   1.922  1.3274 -2.1724  1.4499
   32MOL   H15026252   3.709   7.190   1.775 -0.9211 -2.0952 -1.0556
   32MOL   H15126253   3.865   6.981   1.736 -1.2685 -0.0381 -2.3657
   32MOL   H15226254   3.755   6.904   1.864  0.4102 -1.1368 -0.8356
   32MOL   H15326255   3.568   6.983   1.689 -0.5107 -0.4562  0.5959
   32MOL   H15426256   3.704   6.984   1.578  2.6526 -1.6213  0.4175
   32MOL   H15526257   3.606   6.790   1.541  0.0217  0.0528  0.5277
   32MOL   H15626258   3.731   6.737   1.647 -0.4051 -1.2795  2.7807
   32MOL   H15726259   3.564   6.743   1.834  2.8945 -0.8054 -0.8660
   32MOL   H15826260   3.446   6.799   1.733  0.2683  0.9895 -1.0553
   32MOL   H15926261   3.602   6.532   1.727 -0.0158  1.0962 -0.3705
   32MOL   H16026262   3.476   6.561   1.603 -0.2415  0.0066 -0.2653
   32MOL   H16126263   3.422   6.528   1.903 -1.6852 -2.9268  1.1193
   32MOL   H16226264   3.300   6.597   1.804 -2.5629 -1.7752 -0.6852
   32MOL   H16326265   3.410   6.321   1.772 -3.3393 -3.5458 -1.4561
   32MOL   H16426266   3.274   6.376   1.873 -0.2280 -3.4594 -0.1230
   32MOL   H16526267   3.149   6.422   1.673 -0.4139 -1.7484  1.6197
   32MOL   H16626268   3.288   6.403   1.573  0.5127 -0.1800  0.3744
   32MOL   H16726269   3.129   6.209   1.553  1.3878 -2.5872 -0.4651
   32MOL   H16826270   3.259   6.145   1.635 -0.0540 -0.9283 -0.4781
   32MOL   H16926271   3.114   6.204   1.730  1.5746 -2.3033  0.1482
   32MOL   C17026272   4.025   7.508   2.025  0.1630  0.3767  0.3435
   32MOL   C17126273   4.044   7.565   1.879 -0.4405  0.4346 -0.3629
   32MOL   C17226274   4.078   0.025   1.875  0.2076  0.2612  0.0780
   32MOL   C17326275   3.975   0.116   1.938  0.1645  0.5071 -1.0840
   32MOL   C17426276   3.830   0.107   1.880  0.2299  0.1340  0.2078
   32MOL   C17526277   3.733   0.222   1.922 -0.1871 -0.2300 -0.5161
   32MOL   C17626278   3.771   0.350   1.838  0.5807 -0.2175 -0.0199
   32MOL   C17726279   3.690   0.474   1.888 -0.3955  0.4001  0.1716
   32MOL   C17826280   3.719   0.512   2.040  0.2149  0.0356  0.6982
   32MOL   C17926281   3.662   0.651   2.082 -0.1161  0.4998  0.7868
   32MOL   C18026282   3.655   0.653   2.239  0.8606 -0.3037  0.0664
   32MOL   C18126283   3.799   0.642   2.305  0.3578 -0.6532 -0.2422
   32MOL   C18226284   3.797   0.648   2.460 -0.6995 -0.0525  0.5989
   32MOL   C18326285   3.940   0.627   2.525 -0.0612 -0.8103  0.0450
   32MOL   H18426286   4.116   7.538   2.077 -1.2942 -0.1927  3.3020
   32MOL   H18526287   3.941   7.560   2.070 -0.1972  0.1494 -0.0530
   32MOL   H18626288   3.958   7.548   1.815 -0.9996 -1.0362  0.7754
   32MOL   H18726289   4.180   0.021   1.911  0.8484 -2.3638 -1.8526
   32MOL   H18826290   4.090   0.066   1.775  1.2422  3.1405  1.3387
   32MOL   H18926291   3.973   0.093   2.045 -1.1796 -1.2944 -1.4697
   32MOL   H19026292   4.015   0.217   1.931  0.1169  0.5759 -0.4165
   32MOL   H19126293   3.846   0.106   1.772 -0.1536 -0.0304  0.1536
   32MOL   H19226294   3.797   0.009   1.914  0.8711  0.5079  1.9464
   32MOL   H19326295   3.740   0.235   2.029 -0.9802 -0.7139 -0.4008
   32MOL   H19426296   3.628   0.200   1.906  0.0494 -1.6149 -0.1875
   32MOL   H19526297   3.765   0.339   1.730 -0.6540 -1.4268  0.1625
   32MOL   H19626298   3.875   0.367   1.867  0.7578 -1.6843  0.2268
   32MOL   H19726299   3.583   0.462   1.875 -0.1027 -0.6754 -1.3970
   32MOL   H19826300   3.723   0.552   1.820  0.0297  0.1480  0.0815
   32MOL   H19926301   3.828   0.518   2.050  0.0109  0.4162  3.0941
   32MOL   H20026302   3.667   0.433   2.094 -0.6214  1.4193  1.9520
   32MOL   H20126303   3.558   0.664   2.050  0.2915  0.4427 -0.5784
   32MOL   H20226304   3.722   0.730   2.038  0.7280 -0.3051  0.4791
   32MOL   H20326305   3.585   0.576   2.272  0.1958  0.4044  0.3596
   32MOL   H20426306   3.616   0.750   2.271  0.0893 -0.9390  1.1070
   32MOL   H20526307   3.846   0.549   2.273  0.8473 -1.1572  1.8716
   32MOL   H20626308   3.866   0.714   2.258 -1.4756  0.9484 -0.4837
   32MOL   H20726309   3.767   0.740   2.510  2.5901 -0.1664  2.9440
   32MOL   H20826310   3.736   0.571   2.508 -2.7328  0.5815 -0.8849
   32MOL   H20926311   3.939   0.628   2.634 -0.1148  2.4067  0.0652
   32MOL   H21026312   4.005   0.713   2.502 -0.7048 -0.1861  0.5462
   32MOL   H21126313   3.980   0.530   2.496 -2.4254 -1.4175 -1.2741
   32MOL   C21226314   4.160   7.485   1.806  0.6202  0.6845  0.0526
   32MOL   C21326315   4.206   7.527   1.663 -0.2738 -1.0452 -0.1145
   32MOL   C21426316   4.340   7.455   1.614 -0.2161  0.3188 -0.1937
   32MOL   C21526317   4.462   7.539   1.647 -0.4388 -0.0467 -0.6596
   32MOL   C21626318   4.596   7.470   1.622 -0.4682 -0.0118  0.4421
   32MOL   C21726319   4.640   7.385   1.736  0.2120  0.1102  0.2077
   32MOL   C21826320   4.778   7.312   1.707 -0.2461 -0.2441  0.5096
   32MOL   C21926321   4.783   7.175   1.780 -0.2130 -0.0757 -0.2747
   32MOL   C22026322   4.922   7.108   1.784 -0.7565 -0.0044 -0.0034
   32MOL   C22126323   4.911   6.970   1.845  0.1428 -0.5346  0.4154
   32MOL   C22226324   5.005   6.879   1.771 -0.2383  0.5161  0.7033
   32MOL   C22326325   5.006   6.739   1.836  0.1586 -0.0833  0.3624
   32MOL   C22426326   5.093   6.638   1.755  0.2546  0.2606 -0.0170
   32MOL   C22526327   5.241   6.668   1.787  0.7488  0.1895 -0.4025
   32MOL   H22626328   4.125   7.383   1.797 -0.5660  0.8403  2.5744
   32MOL   H22726329   4.251   7.491   1.866 -0.6968 -2.4989  2.4961
   32MOL   H22826330   4.222   7.634   1.660 -3.8044 -0.3173  3.3133
   32MOL   H22926331   4.350   7.362   1.670  0.7689  0.9074  0.6237
   32MOL   H23026332   4.335   7.418   1.512  1.9399 -0.8296  0.1020
   32MOL   H23126333   4.462   7.569   1.752  3.4274  0.6391 -0.7768
   32MOL   H23226334   4.466   7.629   1.586  1.3942 -1.1539 -2.2398
   32MOL   H23326335   4.680   7.537   1.602 -0.2450 -0.7712 -1.2431
   32MOL   H23426336   4.581   7.413   1.531 -0.1326  1.4535 -0.5545
   32MOL   H23526337   4.560   7.313   1.752  0.0447  0.3084  0.2714
   32MOL   H23626338   4.641   7.457   1.818  1.1788  1.7740 -1.2313
   32MOL   H23726339   4.778   7.295   1.599 -2.0866  0.9493  0.2944
   32MOL   H23826340   4.857   7.386   1.725 -1.7808  1.6852 -0.5431
   32MOL   H23926341   4.737   7.168   1.879 -0.4038 -0.5415 -0.3954
   32MOL   H24026342   4.711   7.121   1.719 -1.1989  0.9290 -0.0249
   32MOL   H24126343   4.995   7.177   1.827 -0.7264 -0.6931  1.0643
   32MOL   H24226344   4.965   7.093   1.685 -0.5308  1.7412 -0.1791
   32MOL   H24326345   4.926   6.971   1.953 -0.6894 -2.3687  0.5722
   32MOL   H24426346   4.812   6.931   1.822 -1.6144  3.0977  1.4999
   32MOL   H24526347   5.106   6.921   1.768 -0.6155  1.4155  0.3478
   32MOL   H24626348   4.971   6.866   1.668  0.4615 -1.9998  0.7519
   32MOL   H24726349   4.900   6.714   1.849  0.0949 -0.3716 -0.6092
   32MOL   H24826350   5.045   6.746   1.937  1.7433  0.9579 -0.3034
   32MOL   H24926351   5.063   6.622   1.651  2.3447  0.2335 -0.6562
   32MOL   H25026352   5.073   6.537   1.792  3.3429 -1.0151 -1.5505
   32MOL   H25126353   5.258   6.774   1.769  0.3532  0.4016  0.4416
   32MOL   H25226354   5.252   6.661   1.896 -2.9468  0.6076  0.0565
   32MOL   H25326355   5.322   6.608   1.745  0.4734 -0.0369 -0.6097
   32MOL   C25426356   4.089   7.510   1.558 -0.6722  0.2073  0.2329
   32MOL   C25526357   4.112   7.567   1.416 -1.1060  0.0205  0.5166
   32MOL   C25626358   3.998   7.521   1.317  0.0686  0.2909 -0.3025
   32MOL   C25726359   3.965   7.368   1.296 -0.6519  0.4519  0.2259
   32MOL   C25826360   4.082   7.288   1.243 -0.6253 -0.0728 -0.5338
   32MOL   C25926361   4.059   7.132   1.228 -0.0066 -0.3934  0.3791
   32MOL   C26026362   4.094   7.070   1.360 -0.2727  0.5537  0.4928
   32MOL   C26126363   4.063   6.919   1.376 -0.1510  0.7419  1.0880
   32MOL   C26226364   4.084   6.866   1.521  0.0190 -1.0901 -0.7331
   32MOL   C26326365   4.059   6.721   1.533  0.2710 -0.1363 -0.6138
   32MOL   C26426366   4.109   6.660   1.660  0.0471 -0.1769 -1.1572
   32MOL   C26526367   4.052   6.727   1.789 -0.6975  0.5033  0.3630
   32MOL   C26626368   4.055   6.628   1.911  0.1544 -0.4508  0.1656
   32MOL   C26726369   3.997   6.685   2.039 -0.5064  0.3845  0.9718
   32MOL   H26826370   4.005   7.568   1.596 -0.2368  0.9749  0.0274
   32MOL   H26926371   4.068   7.404   1.546 -0.9860  0.0168  2.2111
   32MOL   H27026372   4.202   7.523   1.373 -0.2997  1.2034  0.9630
   32MOL   H27126373   4.025   7.560   1.219 -1.9261  1.2628 -0.4901
   32MOL   H27226374   3.906   7.576   1.337  0.3199 -0.6823  4.0482
   32MOL   H27326375   3.893   7.357   1.215 -1.5591  0.3427  1.0438
   32MOL   H27426376   3.923   7.326   1.388 -2.3374  0.0253 -0.7062
   32MOL   H27526377   4.174   7.301   1.301 -0.9264 -1.5186  0.2982
   32MOL   H27626378   4.106   7.326   1.144 -1.5738  0.2978 -0.6221
   32MOL   H27726379   4.127   7.098   1.150  1.0468  4.2901 -0.9217
   32MOL   H27826380   3.963   7.095   1.192  0.0410  0.9040 -1.1517
   32MOL   H27926381   4.192   7.105   1.394 -0.4397 -0.7838  2.4636
   32MOL   H28026382   4.022   7.114   1.429 -1.8651  2.4348 -2.2825
   32MOL   H28126383   4.134   6.869   1.310  1.2244  0.2336  2.9114
   32MOL   H28226384   3.956   6.909   1.355  0.0005  0.1787  0.5706
   32MOL   H28326385   4.183   6.902   1.548 -0.0568  1.3046 -3.5028
   32MOL   H28426386   4.014   6.920   1.584  0.1557  1.5069 -2.7352
   32MOL   H28526387   4.100   6.657   1.455  2.4631  0.0068  0.3703
   32MOL   H28626388   3.951   6.707   1.526  0.1048  0.1957  1.1529
   32MOL   H28726389   4.218   6.666   1.659  0.1302 -1.6353 -1.4552
   32MOL   H28826390   4.094   6.552   1.655  1.6387 -0.6101  2.0383
   32MOL   H28926391   4.092   6.828   1.796  0.0123  0.3351 -0.9744
   32MOL   H29026392   3.945   6.742   1.781 -0.5543  1.6920  0.6407
   32MOL   H29126393   3.996   6.541   1.883 -2.9117  2.0650 -1.4371
   32MOL   H29226394   4.154   6.588   1.933  1.1275  0.9743 -1.4785
   32MOL   H29326395   3.888   6.676   2.034 -0.5737  1.1261  1.0064
   32MOL   H29426396   4.030   6.787   2.057  3.7789 -0.4975 -1.2948
   32MOL   H29526397   4.034   6.635   2.128  0.7600  0.9440  0.7720
   32MOL   C29626398   4.142   0.023   1.410 -0.9392  0.2599  0.2287
   32MOL   C29726399   4.217   0.071   1.286  0.6537 -0.5688  0.1610
   32MOL   C29826400   4.219   0.222   1.271 -0.4902 -0.3824  0.4179
   32MOL   C29926401   4.082   0.273   1.209  0.3830  0.1034  0.5209
   32MOL   C30026402   4.086   0.424   1.188 -0.3497 -0.4137  0.6213
   32MOL   C30126403   3.953   0.497   1.202 -0.0400 -0.2409 -0.1585
   32MOL   C30226404   3.945   0.650   1.179 -0.1522  0.9832 -0.4636
   32MOL   C30326405   3.987   0.692   1.033  0.6705  0.0017  0.7638
   32MOL   C30426406   3.965   0.843   1.002  0.4567  0.2289  0.3936
   32MOL   C30526407   4.018   0.861   0.858  0.8248  0.1452 -0.0720
   32MOL   C30626408   3.991   1.004   0.813  0.1397 -0.4748  0.5087
   32MOL   C30726409   4.041   1.022   0.674  0.0958  0.1113 -0.2041
   32MOL   C30826410   4.005   1.165   0.629  0.1082  0.0358 -0.2247
   32MOL   C30926411   4.069   1.199   0.490  0.3781 -0.4915 -0.6422
   32MOL   H31026412   4.189   0.062   1.500  0.4989  0.2870 -0.5394
   32MOL   H31126413   4.046   0.075   1.410 -0.5824  0.9175  0.1514
   32MOL   H31226414   4.156   0.029   1.207 -2.5892  0.8922  1.8032
   32MOL   H31326415   4.301   0.262   1.212 -1.5501 -0.8773 -1.4417
   32MOL   H31426416   4.238   0.269   1.368  0.5235 -1.0338  0.5355
   32MOL   H31526417   4.003   0.251   1.281 -0.6408  1.3055 -0.2074
   32MOL   H31626418   4.055   0.213   1.123  1.9498  0.0200  0.0602
   32MOL   H31726419   4.153   0.457   1.267 -0.1566 -2.6396  1.4285
   32MOL   H31826420   4.139   0.453   1.098  0.4822  0.1504  1.2915
   32MOL   H31926421   3.917   0.467   1.300 -2.9539  1.4558 -0.6319
   32MOL   H32026422   3.882   0.446   1.137 -1.1262  1.5619 -0.4474
   32MOL   H32126423   3.840   0.680   1.190 -0.3509  0.9608 -2.2086
   32MOL   H32226424   4.003   0.706   1.253  0.2614 -0.0262 -0.0112
   32MOL   H32326425   3.930   0.637   0.958  0.8035  0.4407  0.3379
   32MOL   H32426426   4.092   0.662   1.024  0.2365 -0.8405 -2.0373
   32MOL   H32526427   3.858   0.861   1.015  0.2169 -0.6601 -0.2658
   32MOL   H32626428   4.024   0.896   1.076 -2.2276  1.2550  1.8557
   32MOL   H32726429   3.973   0.791   0.788  0.7637 -0.6628  0.7687
   32MOL   H32826430   4.125   0.843   0.851  0.5923 -0.7928 -1.1753
   32MOL   H32926431   4.028   1.072   0.890  1.4630  0.2153 -0.7320
   32MOL   H33026432   3.885   1.031   0.816  0.2602  0.2674 -1.4834
   32MOL   H33126433   3.996   0.944   0.612 -1.0058 -1.1973  2.1840
   32MOL   H33226434   4.146   1.008   0.648  0.3364  0.9761  0.2691
   32MOL   H33326435   4.040   1.246   0.694  0.6769  1.4838 -2.2960
   32MOL   H33426436   3.896   1.173   0.632  0.0264 -0.5474 -1.6081
   32MOL   H33526437   4.013   1.140   0.417  1.1019  0.1472 -1.7407
   32MOL   H33626438   4.057   1.302   0.455  0.3284 -0.2383  0.1224
   32MOL   H33726439   4.172   1.167   0.471  1.1751  0.2851  2.1853
   32MOL   C33826440   4.363   0.021   1.279  0.6128  0.2454 -0.4972
   32MOL   C33926441   4.419   7.690   1.134 -0.2747 -0.5650 -0.9715
   32MOL   C34026442   4.567   7.651   1.146  0.6339 -0.1163 -0.3409
   32MOL   C34126443   4.600   7.515   1.207  0.0971  0.2310  0.4410
   32MOL   C34226444   4.738   7.466   1.187  0.3365 -0.3986  0.6298
   32MOL   C34326445   4.773   7.337   1.267 -0.4409 -0.2817 -0.1047
   32MOL   C34426446   4.910   7.286   1.211  0.2149 -0.4091  0.4538
   32MOL   C34526447   4.983   7.179   1.287  0.3465  0.4742 -0.2477
   32MOL   C34626448   4.932   7.035   1.251 -1.0807 -0.0210 -0.2459
   32MOL   C34726449   5.023   6.923   1.317  0.6992 -0.6757  0.5297
   32MOL   C34826450   4.968   6.781   1.301  0.0635  0.5132 -0.3154
   32MOL   C34926451   5.070   6.666   1.312  0.1626 -0.0310  0.2862
   32MOL   C35026452   5.003   6.536   1.270 -0.1013 -0.5598  0.2365
   32MOL   C35126453   5.097   6.422   1.243  0.1726  0.2382 -0.2566
   32MOL   H35226454   4.428   0.093   1.328 -0.5034  1.5587 -0.9023
   32MOL   H35326455   4.388   7.629   1.339 -0.9569  0.1162  0.0004
   32MOL   H35426456   4.411   0.084   1.072 -1.4111  0.3331  0.4390
   32MOL   H35526457   4.588   7.653   1.039  0.4045 -0.5774 -0.3958
   32MOL   H35626458   4.632   0.036   1.180  1.5709 -0.8230 -0.4357
   32MOL   H35726459   4.545   7.433   1.160  1.7991 -0.2493 -0.7613
   32MOL   H35826460   4.570   7.511   1.312  0.8246 -1.1321  0.6126
   32MOL   H35926461   4.814   7.541   1.211  0.2567  0.1761 -0.8184
   32MOL   H36026462   4.747   7.438   1.082 -1.6701  0.4781  0.2021
   32MOL   H36126463   4.781   7.354   1.374  2.4065  0.8675 -0.4639
   32MOL   H36226464   4.697   7.259   1.261  0.8893 -1.5423 -1.0247
   32MOL   H36326465   4.911   7.259   1.105 -0.4365  0.0187  0.3318
   32MOL   H36426466   4.982   7.366   1.195 -0.8165  0.4897  0.1982
   32MOL   H36526467   5.088   7.186   1.257  1.0300 -0.0981  1.8763
   32MOL   H36626468   4.976   7.195   1.395  1.4838 -2.7226  0.3551
   32MOL   H36726469   4.837   7.035   1.304 -1.3522 -2.3822 -0.6789
   32MOL   H36826470   4.912   7.033   1.144 -1.8221 -1.1569 -0.0998
   32MOL   H36926471   5.124   6.943   1.280 -0.0244  0.6242 -0.7608
   32MOL   H37026472   5.020   6.949   1.423  1.0893  2.5602 -0.2081
   32MOL   H37126473   4.931   6.776   1.198  0.9368 -1.4689 -0.5546
   32MOL   H37226474   4.883   6.758   1.364 -0.0327 -0.7439 -0.8856
   32MOL   H37326475   5.104   6.649   1.414 -1.5372  3.0697  1.4313
   32MOL   H37426476   5.153   6.690   1.246 -0.4442  2.9686  0.5599
   32MOL   H37526477   4.933   6.515   1.351 -0.8285 -2.3205 -0.8087
   32MOL   H37626478   4.937   6.562   1.187  1.3354 -0.2500 -0.8146
   32MOL   H37726479   5.052   6.328   1.273 -0.5463  0.7734  0.3672
   32MOL   H37826480   5.121   6.406   1.138  3.4127 -2.8028  0.8574
   32MOL   H37926481   5.191   6.432   1.296  0.7588 -0.5051 -1.1375
   32MOL   C38026482   4.331   7.577   1.072 -0.0187  0.4287 -0.3547
   32MOL   C38126483   4.381   7.527   0.934  0.1660  0.2092 -0.6205
   32MOL   C38226484   4.297   7.394   0.889 -0.6679 -0.5821  0.6053
   32MOL   C38326485   4.151   7.423   0.848  0.5848 -0.6657  0.3424
   32MOL   C38426486   4.070   7.290   0.836  0.0385 -0.3900  0.6720
   32MOL   C38526487   3.926   7.307   0.781  0.5247  0.4819 -0.5343
   32MOL   C38626488   3.857   7.168   0.771  0.5485 -0.0779 -0.0345
   32MOL   C38726489   3.721   7.172   0.703  0.7197 -0.1108 -0.3787
   32MOL   C38826490   3.665   7.028   0.681  0.0944 -0.5431  0.3081
   32MOL   C38926491   3.606   6.968   0.806 -0.1451  0.2319 -0.0476
   32MOL   C39026492   3.551   6.827   0.779 -0.2840 -0.2733 -0.7045
   32MOL   C39126493   3.654   6.715   0.791 -0.6752 -0.2405 -0.5807
   32MOL   C39226494   3.603   6.573   0.761 -0.6622  0.6979 -0.5750
   32MOL   C39326495   3.718   6.470   0.796  1.0178 -0.2545  0.5537
   32MOL   H39426496   4.235   7.620   1.045  0.6479  2.3845  0.3586
   32MOL   H39526497   4.308   7.495   1.140  1.7507  0.2861  0.1123
   32MOL   H39626498   4.486   7.497   0.942  0.5010  1.7506  1.3650
   32MOL   H39726499   4.312   7.324   0.972  2.9507 -0.0820  0.4528
   32MOL   H39826500   4.352   7.354   0.804 -0.4372 -0.1307  0.5403
   32MOL   H39926501   4.141   7.477   0.754 -3.5888 -0.6630  0.6944
   32MOL   H40026502   4.104   7.488   0.922 -1.4441 -0.2793 -1.2545
   32MOL   H40126503   4.073   7.237   0.931 -0.1598 -1.0529  0.3096
   32MOL   H40226504   4.131   7.227   0.773  0.9614  1.2192 -0.0868
   32MOL   H40326505   3.917   7.351   0.682  0.0387 -2.1321 -1.6891
   32MOL   H40426506   3.870   7.377   0.843 -0.6051 -0.0551 -0.9495
   32MOL   H40526507   3.927   7.109   0.712 -0.2899 -1.8418  0.7065
   32MOL   H40626508   3.849   7.124   0.871 -0.9905  0.0830 -0.0809
   32MOL   H40726509   3.642   7.224   0.757 -1.1596  0.9302 -3.9553
   32MOL   H40826510   3.730   7.211   0.601 -0.8958  1.5055  0.0747
   32MOL   H40926511   3.594   7.018   0.600  0.2327 -0.7094  0.2072
   32MOL   H41026512   3.752   6.968   0.653  2.4549  1.9076  2.0588
   32MOL   H41126513   3.520   7.032   0.828  0.2503  1.0063 -0.7112
   32MOL   H41226514   3.684   6.956   0.881 -1.0864  0.9067  1.0640
   32MOL   H41326515   3.467   6.813   0.848  1.0111 -0.9342  0.7674
   32MOL   H41426516   3.497   6.825   0.684 -0.9103 -3.4151 -0.3329
   32MOL   H41526517   3.702   6.717   0.889  0.4501 -0.4123 -1.1161
   32MOL   H41626518   3.731   6.738   0.717 -0.7264  2.8432  0.2507
   32MOL   H41726519   3.511   6.563   0.819 -0.0828  1.4791  0.4951
   32MOL   H41826520   3.593   6.573   0.653  2.1929  1.6501 -0.8805
   32MOL   H41926521   3.689   6.371   0.763  2.1725  0.1960 -1.9269
   32MOL   H42026522   3.719   6.486   0.904  0.4923 -0.8614  0.6518
   32MOL   H42126523   3.805   6.511   0.745  0.5321 -0.3033 -0.3190
   32MOL   C42226524   4.361   7.641   0.831 -0.0199  0.4730 -0.2686
   32MOL   C42326525   4.422   7.608   0.688  0.3874  0.0217 -0.2951
   32MOL   C42426526   4.381   0.024   0.585 -0.2928 -0.1181 -0.1100
   32MOL   C42526527   4.436   0.161   0.598 -0.1794 -0.0803 -0.8137
   32MOL   C42626528   4.444   0.238   0.462 -0.1421 -0.4045 -0.6571
   32MOL   C42726529   4.537   0.367   0.459  0.0445 -0.5381 -0.2162
   32MOL   C42826530   4.528   0.446   0.330 -0.0925 -0.1361  0.1893
   32MOL   C42926531   4.610   0.380   0.215  0.5741  0.0768 -0.4143
   32MOL   C43026532   4.761   0.395   0.216  0.1446  0.4949  0.3245
   32MOL   C43126533   4.849   0.306   0.128 -0.4557 -0.4254 -0.2347
   32MOL   C43226534   4.999   0.341   0.129 -0.5870 -0.7525  0.2193
   32MOL   C43326535   5.078   0.243   0.040 -0.3726 -0.3813 -0.1040
   32MOL   C43426536   5.224   0.272   0.045 -0.2521  0.7295 -0.6000
   32MOL   C43526537   5.312   0.178   7.664  0.0217 -0.5006  0.2448
   32MOL   H43626538   4.410   0.035   0.871 -2.0610  0.0854  3.3307
   32MOL   H43726539   4.254   7.661   0.822 -0.1876 -0.4122 -0.2798
   32MOL   H43826540   4.366   7.523   0.650  1.8212 -1.4849  0.8686
   32MOL   H43926541   4.273   0.036   0.572 -0.0893  1.3791 -0.5262
   32MOL   H44026542   4.402   7.685   0.484  0.0246  1.1199 -0.4729
   32MOL   H44126543   4.384   0.231   0.663 -3.3100  0.3321 -3.6642
   32MOL   H44226544   4.543   0.166   0.621 -0.1521 -1.3777 -0.6272
   32MOL   H44326545   4.344   0.258   0.424 -0.2026  1.5583  0.4856
   32MOL   H44426546   4.491   0.177   0.384  1.4837  1.1787 -0.9422
   32MOL   H44526547   4.643   0.345   0.478  0.4314  0.1587 -1.5416
   32MOL   H44626548   4.509   0.430   0.543 -1.1596 -1.8235  0.3707
   32MOL   H44726549   4.420   0.458   0.314 -0.0194  0.4422  0.1243
   32MOL   H44826550   4.564   0.547   0.349 -1.4533  0.4306 -0.1673
   32MOL   H44926551   4.598   0.273   0.195  1.7391  0.4393 -3.3545
   32MOL   H45026552   4.580   0.424   0.120  0.2359 -0.1564 -0.4174
   32MOL   H45126553   4.776   0.500   0.189 -0.1134  0.5608  0.4291
   32MOL   H45226554   4.784   0.386   0.322  0.0251  0.4531  0.3468
   32MOL   H45326555   4.830   0.201   0.151 -2.7443  0.0955  0.3766
   32MOL   H45426556   4.816   0.316   0.024 -2.0090 -0.6890  0.2228
   32MOL   H45526557   5.018   0.442   0.091  0.8679  0.3238  3.6425
   32MOL   H45626558   5.022   0.342   0.235  0.3635 -3.2510  0.0622
   32MOL   H45726559   5.051   0.244   7.630  1.4594  0.0893 -0.5875
   32MOL   H45826560   5.053   0.143   0.076 -3.6311  0.1170 -0.8405
   32MOL   H45926561   5.241   0.374   0.014  1.8225  0.4255 -0.5254
   32MOL   H46026562   5.255   0.275   0.150 -1.8613 -0.3246 -0.0661
   32MOL   H46126563   5.286   0.157   7.560 -1.3594 -0.1412  0.5092
   32MOL   H46226564   5.328   0.088   0.029 -4.3844 -1.3690  0.2559
   32MOL   H46326565   5.408   0.230   7.656 -1.2932  1.5636 -2.7127
   32MOL   C46426566   4.572   7.584   0.686  0.0072  0.4142 -0.2076
   32MOL   C46526567   4.628   7.537   0.551 -0.0299 -0.2320  0.4321
   32MOL   C46626568   4.727   7.639   0.477  0.1874 -0.3314 -0.1481
   32MOL   C46726569   4.873   7.636   0.532  0.5312  0.3950 -0.5736
   32MOL   C46826570   4.952   0.045   0.454  0.0982 -0.6206 -0.4396
   32MOL   C46926571   5.101   0.034   0.497  0.3456 -0.1620  0.3262
   32MOL   C47026572   5.198   0.107   0.414 -0.6767  0.2984  0.2772
   32MOL   C47126573   5.349   0.071   0.443  0.1644 -0.4806  0.5556
   32MOL   C47226574   5.442   0.151   0.351  0.8571  0.7685  0.5479
   32MOL   C47326575   5.594   0.132   0.383 -0.2154  0.0757  0.1154
   32MOL   C47426576   5.681   0.236   0.314  0.4710  0.0460  0.9229
   32MOL   C47526577   5.820   0.175   0.306  0.3831 -0.0853 -0.8260
   32MOL   C47626578   5.919   0.272   0.250 -0.0502  0.1163  0.1547
   32MOL   C47726579   6.062   0.223   0.226  1.0192  0.3436 -0.3982
   32MOL   H47826580   4.591   7.514   0.768 -1.3475  2.4414  1.8874
   32MOL   H47926581   4.622   7.676   0.718  0.6529  0.0906 -0.2602
   32MOL   H48026582   4.541   7.526   0.487  0.6088 -4.5794  0.1866
   32MOL   H48126583   4.722   7.613   0.371  2.6674  0.4512 -0.4709
   32MOL   H48226584   4.689   0.044   0.491  2.3198  0.6564 -1.2621
   32MOL   H48326585   4.919   7.540   0.511  0.2214  0.2871 -0.7624
   32MOL   H48426586   4.876   7.662   0.638  1.2118 -2.1052  0.0520
   32MOL   H48526587   4.906   0.143   0.475 -0.7411 -0.6057 -2.2995
   32MOL   H48626588   4.937   0.029   0.348 -2.7211  0.2146 -0.2117
   32MOL   H48726589   5.098   0.061   0.602  0.8801  0.8659  0.0781
   32MOL   H48826590   5.119   7.622   0.486 -0.8459 -0.4117  0.7252
   32MOL   H48926591   5.180   0.087   0.309  2.3723 -2.1957  0.1592
   32MOL   H49026592   5.200   0.216   0.418 -0.6966  0.3765 -1.6215
   32MOL   H49126593   5.374   0.098   0.545  0.8541  1.3725 -0.0799
   32MOL   H49226594   5.366   7.659   0.437  0.2962 -0.4399  0.2166
   32MOL   H49326595   5.416   0.138   0.246  1.4428  1.6818  0.2819
   32MOL   H49426596   5.423   0.256   0.372 -1.7706  0.2103  1.1202
   32MOL   H49526597   5.621   0.107   0.486  2.5633 -0.5835 -0.7305
   32MOL   H49626598   5.619   0.033   0.343  0.4813  0.4524 -0.3825
   32MOL   H49726599   5.646   0.252   0.212  3.1638 -2.5892 -0.4759
   32MOL   H49826600   5.681   0.336   0.358  0.5181  0.9043 -0.9618
   32MOL   H49926601   5.836   0.092   0.238 -0.6126 -1.5179  0.6753
   32MOL   H50026602   5.856   0.138   0.402  0.7024 -1.2114 -1.3705
   32MOL   H50126603   5.887   0.307   0.152  1.6820 -1.0768 -0.8610
   32MOL   H50226604   5.916   0.364   0.309 -0.9777 -0.2350  0.6641
   32MOL   H50326605   6.119   0.300   0.174 -1.8885  3.4673  0.7767
   32MOL   H50426606   6.108   0.224   0.325  1.4937  1.3493 -0.6226
   32MOL   H50526607   6.075   0.122   0.187  0.7903 -0.1587  0.8076
   32MOL   C50626608   4.686   7.399   0.553  0.2568  1.0256 -1.4274
   32MOL   C50726609   4.587   7.289   0.589 -0.1953  0.0409 -0.2293
   32MOL   C50826610   4.484   7.252   0.479  0.7950  0.3737  0.3376
   32MOL   C50926611   4.383   7.154   0.534  0.3588  0.2879  0.8768
   32MOL   C51026612   4.266   7.134   0.437 -0.2844  0.1190 -0.0859
   32MOL   C51126613   4.153   7.039   0.478  0.0860 -0.7655  1.0535
   32MOL   C51226614   4.042   7.030   0.372  0.1374 -0.7362  0.5151
   32MOL   C51326615   3.947   6.911   0.385  0.3825  0.0586 -0.1649
   32MOL   C51426616   3.830   6.910   0.279  0.2878 -0.3021  0.0364
   32MOL   C51526617   3.737   6.793   0.313  0.3364 -0.1039 -0.0315
   32MOL   C51626618   3.598   6.804   0.245 -0.4737  0.5865  1.0500
   32MOL   C51726619   3.512   6.680   0.247  0.6984 -0.1554 -0.7089
   32MOL   C51826620   3.432   6.657   0.377  0.1386 -0.8337 -0.2764
   32MOL   C51926621   3.337   6.531   0.372 -0.3583  0.1507  0.1386
   32MOL   H52026622   4.770   7.395   0.622 -0.3325 -2.0934 -0.8322
   32MOL   H52126623   4.733   7.376   0.457  0.3454 -3.0898 -0.4670
   32MOL   H52226624   4.530   7.314   0.679  0.7947 -1.1259  0.7410
   32MOL   H52326625   4.422   7.340   0.465 -0.4835 -0.2786  1.7061
   32MOL   H52426626   4.527   7.201   0.393 -0.9463 -0.1390 -0.2419
   32MOL   H52526627   4.432   7.058   0.550 -0.2189  0.1287  1.7142
   32MOL   H52626628   4.339   7.194   0.626 -1.3927 -0.4581  0.3937
   32MOL   H52726629   4.306   7.095   0.343 -0.8292  1.4616 -0.8945
   32MOL   H52826630   4.216   7.229   0.420 -0.1813  0.3446  0.8653
   32MOL   H52926631   4.123   7.077   0.576  0.2505  0.0423  0.7968
   32MOL   H53026632   4.189   6.936   0.479  0.6811 -0.6034 -1.4240
   32MOL   H53126633   3.986   7.123   0.378  1.7720  0.1836  1.9933
   32MOL   H53226634   4.091   7.032   0.275 -0.1042  3.1576  0.4162
   32MOL   H53326635   3.906   6.931   0.484  1.5020 -0.0001  0.3206
   32MOL   H53426636   3.992   6.812   0.383  1.8034  0.7036 -0.5348
   32MOL   H53526637   3.871   6.906   0.179 -0.7869  1.2483 -0.4874
   32MOL   H53626638   3.769   6.999   0.297 -0.1635 -1.0183  2.3144
   32MOL   H53726639   3.790   6.700   0.292  0.7604  0.0976  0.1540
   32MOL   H53826640   3.731   6.806   0.421  2.3939 -0.1725  0.1118
   32MOL   H53926641   3.542   6.888   0.286 -0.8185  0.5877  0.5819
   32MOL   H54026642   3.612   6.833   0.141 -0.4090 -0.1825  0.8417
   32MOL   H54126643   3.572   6.596   0.213  0.6008 -1.1294  1.4025
   32MOL   H54226644   3.441   6.715   0.173  0.0779 -3.0106 -1.5355
   32MOL   H54326645   3.367   6.742   0.395 -1.6303 -2.4566  1.2052
   32MOL   H54426646   3.513   6.650   0.451 -0.1872  1.2325  0.3031
   32MOL   H54526647   3.392   6.438   0.353  0.2822  0.9448 -1.9837
   32MOL   H54626648   3.253   6.517   0.440  2.2151 -1.1857  3.2314
   32MOL   H54726649   3.285   6.550   0.278  0.8498  0.1302 -0.5415
   32MOL   C54826650   4.684   7.176   0.644  0.3569 -0.1485 -0.2386
   32MOL   C54926651   4.741   7.195   0.788  0.0538 -0.2570  0.0628
   32MOL   C55026652   4.639   7.171   0.903  0.2018 -0.8010 -0.4245
   32MOL   C55126653   4.581   7.028   0.914  0.3498 -0.6751 -0.7819
   32MOL   C55226654   4.439   7.031   0.984 -0.2346 -0.2964  0.0677
   32MOL   C55326655   4.443   7.069   1.125  0.1099 -0.1249 -0.2548
   32MOL   C55426656   4.511   6.972   1.230 -0.0780 -0.0303 -1.1838
   32MOL   C55526657   4.515   7.033   1.375 -0.1869  0.2638 -0.2450
   32MOL   C55626658   4.515   6.923   1.484  0.0704 -0.6200  0.3449
   32MOL   C55726659   4.644   6.846   1.503  0.3707  0.8190 -0.2747
   32MOL   C55826660   4.608   6.714   1.577 -0.0570  0.1639  0.2069
   32MOL   C55926661   4.722   6.610   1.573 -0.1597 -0.0025  0.1878
   32MOL   C56026662   4.697   6.482   1.641  0.3657  1.0219 -0.0248
   32MOL   C56126663   4.823   6.401   1.685 -0.0206  0.4710  0.8737
   32MOL   H56226664   4.634   7.080   0.635  0.2947 -0.0187 -1.3945
   32MOL   H56326665   4.771   7.172   0.578 -0.2823 -0.2206 -1.0697
   32MOL   H56426666   4.765   7.302   0.796  1.0174 -0.5407  1.2770
   32MOL   H56526667   4.682   7.198   1.000 -1.3926 -0.9282  0.3280
   32MOL   H56626668   4.552   7.230   0.874 -0.2874  0.6615  3.6333
   32MOL   H56726669   4.646   6.964   0.974 -0.3759  0.7823  1.6707
   32MOL   H56826670   4.587   6.976   0.819 -1.3870 -1.5591 -0.4230
   32MOL   H56926671   4.381   7.100   0.923 -1.0790 -0.8905  0.1779
   32MOL   H57026672   4.385   6.937   0.972 -2.6617  0.9148  1.2855
   32MOL   H57126673   4.339   7.087   1.154 -0.0002  1.0312 -1.3539
   32MOL   H57226674   4.500   7.159   1.145  0.7718 -0.2297 -1.6435
   32MOL   H57326675   4.457   6.878   1.243 -0.2752  0.1067 -1.0014
   32MOL   H57426676   4.610   6.939   1.200  1.3797 -0.6673  3.8863
   32MOL   H57526677   4.418   7.080   1.393 -0.7988 -0.3000 -2.0046
   32MOL   H57626678   4.589   7.110   1.394  2.8929 -2.5510 -0.4007
   32MOL   H57726679   4.435   6.853   1.458 -0.7524  1.6622 -3.6918
   32MOL   H57826680   4.494   6.965   1.582  0.0513  1.6118 -0.5901
   32MOL   H57926681   4.696   6.830   1.409  2.9612 -0.2373  1.2843
   32MOL   H58026682   4.725   6.900   1.554  0.8920 -0.9859  0.8472
   32MOL   H58126683   4.520   6.669   1.530  0.6900 -1.2503  0.1202
   32MOL   H58226684   4.586   6.726   1.683  2.0307 -0.9171  0.7988
   32MOL   H58326685   4.752   6.592   1.470 -1.7908  0.9014 -0.4605
   32MOL   H58426686   4.813   6.657   1.611 -0.7458  1.0752  0.2964
   32MOL   H58526687   4.639   6.505   1.731 -0.9735 -0.0329 -0.5875
   32MOL   H58626688   4.636   6.416   1.580  2.6836  0.6192 -1.9514
   32MOL   H58726689   4.888   6.449   1.759 -0.9389 -2.0469  3.4060
   32MOL   H58826690   4.802   6.302   1.725  1.3161 -0.7464 -1.3547
   32MOL   H58926691   4.881   6.380   1.596 -2.9156  0.8531 -1.1606
   32MOL   C59026692   4.869   7.120   0.819 -0.7279 -0.3350  0.8822
   32MOL   C59126693   4.997   7.185   0.768 -0.5965 -0.5856  0.1656
   32MOL   C59226694   5.040   7.304   0.851 -0.3575 -0.0812 -0.2793
   32MOL   C59326695   5.164   7.383   0.796  0.0242 -0.3189 -0.0095
   32MOL   C59426696   5.164   7.542   0.809  0.4581  0.2113  0.1470
   32MOL   C59526697   5.168   7.602   0.955  0.1379  0.6167 -0.0186
   32MOL   C59626698   5.157   0.059   0.955  0.5177 -0.2799 -0.4946
   32MOL   C59726699   5.182   0.140   1.090 -0.1574 -0.3059  0.5316
   32MOL   C59826700   5.319   0.121   1.156 -0.3170  0.0463 -0.3299
   32MOL   C59926701   5.378   0.230   1.244  0.2641 -0.3146  0.1317
   32MOL   C60026702   5.325   0.234   1.384 -0.1623  0.0105  0.4066
   32MOL   C60126703   5.401   0.331   1.479 -0.2894 -0.2110  0.2270
   32MOL   C60226704   5.358   0.355   1.622  0.0774  0.8552 -0.3411
   32MOL   C60326705   5.458   0.433   1.705  0.7416  0.2070 -0.2738
   32MOL   H60426706   4.862   7.023   0.770 -1.6747  0.4386 -0.5440
   32MOL   H60526707   4.863   7.103   0.927 -1.2687  0.2337  0.9461
   32MOL   H60626708   4.980   7.231   0.670  0.8448  0.8541  0.5655
   32MOL   H60726709   5.070   7.251   0.941 -0.1493 -2.2144 -1.5517
   32MOL   H60826710   4.963   7.375   0.879  0.5124  0.7154  0.1036
   32MOL   H60926711   5.182   7.360   0.691  0.1946 -2.0153  0.3703
   32MOL   H61026712   5.264   7.359   0.834  0.0290  0.7882  0.6771
   32MOL   H61126713   5.068   7.576   0.773  0.0240  0.4071  1.4462
   32MOL   H61226714   5.248   7.571   0.746  1.7764 -2.2333  0.6958
   32MOL   H61326715   5.267   7.570   0.988 -0.0594  1.9134  1.8786
   32MOL   H61426716   5.095   7.557   1.022  1.2344  1.5911  1.8698
   32MOL   H61526717   5.204   0.094   0.863  1.2774  1.2463  0.4472
   32MOL   H61626718   5.052   0.079   0.936  0.5906  1.0720  0.4571
   32MOL   H61726719   5.156   0.242   1.064  1.0800  0.0489  0.6446
   32MOL   H61826720   5.107   0.113   1.164 -1.5268  3.4328  0.6043
   32MOL   H61926721   5.305   0.034   1.219  0.5122 -0.4727 -0.8436
   32MOL   H62026722   5.386   0.080   1.080  1.1084  1.1546  0.3045
   32MOL   H62126723   5.484   0.215   1.263 -0.0533  0.0611  2.2790
   32MOL   H62226724   5.371   0.332   1.205 -4.4204  0.1729  1.8774
   32MOL   H62326725   5.326   0.131   1.419  1.1389 -1.0492 -2.6315
   32MOL   H62426726   5.221   0.267   1.385 -0.8538 -2.1248  0.5875
   32MOL   H62526727   5.409   0.427   1.427 -0.2767 -0.0356  0.5515
   32MOL   H62626728   5.506   0.300   1.479  0.3995  1.9811  0.0128
   32MOL   H62726729   5.265   0.412   1.620 -0.3895  0.0830 -0.9577
   32MOL   H62826730   5.346   0.257   1.669 -0.6638  0.1112 -2.0320
   32MOL   H62926731   5.466   0.535   1.670 -1.6173 -0.6514 -3.4578
   32MOL   H63026732   5.556   0.385   1.698  0.0570 -1.4938  1.3111
   32MOL   H63126733   5.416   0.438   1.806 -1.2513 -2.0808 -0.9345
   32MOL   C63226734   5.113   7.084   0.747  0.3278  0.2925  0.4275
   32MOL   C63326735   5.171   7.074   0.601 -0.2966 -0.1249  0.3405
   32MOL   C63426736   5.295   6.978   0.587 -0.5276 -0.3480  0.0357
   32MOL   C63526737   5.414   6.991   0.684  0.3945  0.5741 -0.4315
   32MOL   C63626738   5.483   7.129   0.683  0.1572 -0.7158  0.0238
   32MOL   C63726739   5.537   7.165   0.542 -0.2517 -0.3323  0.3121
   32MOL   C63826740   5.635   7.281   0.538  0.0188  0.4582 -0.4302
   32MOL   C63926741   5.586   7.407   0.615  0.0013 -0.5518  0.1615
   32MOL   C64026742   5.667   7.536   0.610  0.6000  0.1040  0.3843
   32MOL   C64126743   5.807   7.534   0.675 -0.0984  0.3608  0.1783
   32MOL   C64226744   5.846   7.675   0.721  0.1988  0.3486  0.0108
   32MOL   C64326745   5.989   7.665   0.787 -0.5724 -0.0691 -0.0394
   32MOL   C64426746   6.056   0.107   0.798  0.3528 -0.2950  0.3623
   32MOL   C64526747   6.213   0.075   0.810  0.5688  0.1215  0.0696
   32MOL   H64626748   5.077   6.985   0.776  1.0734 -0.1247 -0.0769
   32MOL   H64726749   5.198   7.107   0.811 -0.7486  1.5824  1.4348
   32MOL   H64826750   5.216   7.172   0.590  1.1647 -0.8361 -0.1114
   32MOL   H64926751   5.256   6.876   0.596  0.1127 -0.6139 -0.2151
   32MOL   H65026752   5.328   6.965   0.484  3.1115 -0.6123  1.1678
   32MOL   H65126753   5.473   6.904   0.656 -2.0467 -1.7153  1.2885
   32MOL   H65226754   5.381   6.969   0.786  1.3952  1.6749  0.1435
   32MOL   H65326755   5.565   7.115   0.753  1.1237 -0.8548 -1.1205
   32MOL   H65426756   5.420   7.207   0.724  0.5006 -0.6646  0.4508
   32MOL   H65526757   5.581   7.078   0.494  2.2199  0.3845  1.2038
   32MOL   H65626758   5.449   7.192   0.482 -0.4274 -2.0731 -0.2373
   32MOL   H65726759   5.727   7.250   0.588 -0.8388 -1.1204  0.1888
   32MOL   H65826760   5.664   7.308   0.437 -1.9446 -0.3990 -1.2390
   32MOL   H65926761   5.572   7.380   0.720  1.0483 -0.5966  0.2974
   32MOL   H66026762   5.488   7.438   0.579 -0.0843  1.3354  1.9299
   32MOL   H66126763   5.608   7.625   0.633 -0.9313 -0.9359  0.5738
   32MOL   H66226764   5.689   7.553   0.504  0.4410  0.9986  0.4915
   32MOL   H66326765   5.800   7.468   0.761 -1.4611  0.3674  0.0969
   32MOL   H66426766   5.881   7.482   0.614 -2.4867  0.1789 -2.6685
   32MOL   H66526767   5.848   0.050   0.638  0.9914  0.1481 -0.1461
   32MOL   H66626768   5.772   0.021   0.789  0.1494  1.0791 -0.4838
   32MOL   H66726769   6.044   7.601   0.718 -0.7261 -0.7085  0.4268
   32MOL   H66826770   5.987   7.611   0.881  1.2801 -0.7810 -0.3879
   32MOL   H66926771   6.011   0.175   0.871  1.4499  0.9612 -0.1143
   32MOL   H67026772   6.035   0.152   0.701  1.8383 -1.2979 -0.4358
   32MOL   H67126773   6.233   0.006   0.728  0.9490 -0.1546  0.3892
   32MOL   H67226774   6.270   0.168   0.806 -0.4103  0.6565 -1.4900
   32MOL   H67326775   6.241   0.024   0.902 -0.9475 -1.2740 -0.2172
   32MOL   C67426776   5.065   7.047   0.481  0.0822 -0.4795  0.3068
   32MOL   C67526777   5.089   7.111   0.336  0.8786  0.1709 -0.6752
   32MOL   C67626778   5.016   7.028   0.217 -0.7073 -0.0338  0.0951
   32MOL   C67726779   4.864   7.018   0.241 -0.1342 -0.2525  0.3787
   32MOL   C67826780   4.796   6.984   0.108  0.1530  0.0708 -0.2071
   32MOL   C67926781   4.645   6.962   0.090  0.3814 -0.1408 -0.6123
   32MOL   C68026782   4.565   7.098   0.090 -0.0115 -0.1708  0.0930
   32MOL   C68126783   4.415   7.085   0.090 -0.6178  1.0361 -0.4543
   32MOL   C68226784   4.348   7.052   7.652 -0.2890 -0.2756  0.1511
   32MOL   C68326785   4.194   7.042   7.676 -0.1823 -0.6799 -0.7154
   32MOL   C68426786   4.111   7.033   7.545 -0.3010 -0.0516  0.0795
   32MOL   C68526787   3.966   6.999   7.555 -0.4943 -0.4814  0.3190
   32MOL   C68626788   3.874   7.104   7.629  0.0594  0.6023  0.9415
   32MOL   C68726789   3.724   7.060   7.611 -0.4780 -0.2526  0.4073
   32MOL   H68826790   4.968   7.091   0.504 -2.2119 -3.4753 -3.2873
   32MOL   H68926791   5.059   6.939   0.478  2.4754 -0.6507  0.4186
   32MOL   H69026792   5.195   7.099   0.311  0.8207 -2.3126  0.0430
   32MOL   H69126793   5.043   7.083   0.127  0.7092 -0.5068  0.2145
   32MOL   H69226794   5.062   6.929   0.214 -0.2700  0.2177 -2.7633
   32MOL   H69326795   4.837   6.941   0.314 -2.2325 -0.3542 -0.4695
   32MOL   H69426796   4.824   7.106   0.292 -2.7339 -1.5154  0.5886
   32MOL   H69526797   4.831   7.068   0.047  1.5308  0.5914  1.2717
   32MOL   H69626798   4.848   6.900   0.062 -0.0364  0.9712 -2.1316
   32MOL   H69726799   4.624   6.929   7.684  0.1236  1.2814 -1.0325
   32MOL   H69826800   4.593   6.900   0.163 -1.3412  2.0036  0.0450
   32MOL   H69926801   4.588   7.160   0.177  1.1163  0.4658 -0.6505
   32MOL   H70026802   4.602   7.166   0.013 -0.3888  0.3464  0.3577
   32MOL   H70126803   4.384   7.014   0.167  0.5227  1.0852  0.0579
   32MOL   H70226804   4.370   7.177   0.129 -0.3389  1.5187 -1.2599
   32MOL   H70326805   4.359   7.138   7.585 -1.0849 -0.8089 -0.6730
   32MOL   H70426806   4.391   6.966   7.600  0.3653  0.6948 -0.9614
   32MOL   H70526807   4.153   7.123   0.041 -1.0740 -1.4409 -0.2882
   32MOL   H70626808   4.179   6.953   0.043  0.0647 -2.0192 -2.5287
   32MOL   H70726809   4.156   6.971   7.468  0.8604  0.4646  0.3279
   32MOL   H70826810   4.105   7.132   7.500 -1.5479  0.2044  0.7850
   32MOL   H70926811   3.942   6.899   7.591  0.7915 -0.7700  0.4157
   32MOL   H71026812   3.929   6.994   7.453  0.2009  2.1290 -0.0912
   32MOL   H71126813   3.921   7.121   0.030  2.5204 -0.7007  0.0313
   32MOL   H71226814   3.887   7.198   7.575  3.0198 -0.7478 -0.8254
   32MOL   H71326815   3.653   7.129   7.656 -0.6752  0.4257 -0.9301
   32MOL   H71426816   3.694   7.057   7.507 -0.4888  0.0961  0.4011
   32MOL   H71526817   3.707   6.972   7.674 -1.6888  0.8441  1.6464
   32MOL   C71626818   5.065   7.259   0.341 -0.2679 -0.5726  0.2728
   32MOL   C71726819   5.130   7.341   0.223  0.4156 -0.3596 -0.7406
   32MOL   C71826820   5.053   7.471   0.221  0.3357 -0.1908 -0.0723
   32MOL   C71926821   4.905   7.463   0.166 -0.4443 -0.2910 -0.1104
   32MOL   C72026822   4.889   7.388   0.036  0.4072  0.1659 -0.5035
   32MOL   C72126823   4.963   7.438   7.602  0.5661  0.2131 -0.4597
   32MOL   C72226824   4.932   7.587   7.571  0.3989 -0.0911  0.5296
   32MOL   C72326825   4.997   7.642   7.443  0.0677 -1.1393  0.8034
   32MOL   C72426826   5.152   7.607   7.418  0.2409  0.4008 -0.2578
   32MOL   C72526827   5.212   7.661   7.290  0.9114  0.1384 -0.4809
   32MOL   C72626828   5.362   7.625   7.275  0.7204  0.8161 -0.4860
   32MOL   C72726829   5.401   7.663   7.129  0.0271 -0.4947 -0.5223
   32MOL   C72826830   5.540   7.620   7.091  0.0139  1.6204 -0.2280
   32MOL   C72926831   5.576   7.473   7.073 -0.5288  0.4780 -0.5271
   32MOL   H73026832   4.959   7.275   0.363 -0.5244 -2.5577  0.5652
   32MOL   H73126833   5.112   7.295   0.433  0.4571 -0.3620 -0.1730
   32MOL   H73226834   5.126   7.292   0.126  0.6252 -1.8000 -0.0333
   32MOL   H73326835   5.101   7.555   0.171 -0.8935 -0.7023 -2.1788
   32MOL   H73426836   5.037   7.498   0.325  0.1768 -1.6652  0.2903
   32MOL   H73526837   4.842   7.402   0.230 -3.5615 -0.7826 -3.4412
   32MOL   H73626838   4.868   7.564   0.145 -1.0507 -0.1685  1.5029
   32MOL   H73726839   4.906   7.280   0.045 -2.2231 -0.1347  1.5012
   32MOL   H73826840   4.781   7.383   0.021  0.0699 -1.9815  2.2178
   32MOL   H73926841   5.067   7.423   7.630 -0.4049 -1.0910  2.6108
   32MOL   H74026842   4.942   7.368   7.522 -1.1991  0.0791  0.0961
   32MOL   H74126843   4.823   7.598   7.570  0.3712 -0.2204  1.2532
   32MOL   H74226844   4.962   7.645   7.659  0.7113  0.4277  0.0824
   32MOL   H74326845   4.996   0.055   7.444  1.0133 -1.1014 -0.4837
   32MOL   H74426846   4.941   7.602   7.358 -0.0007  2.0229 -0.7345
   32MOL   H74526847   5.210   7.658   7.495  1.4583 -1.3185 -0.0060
   32MOL   H74626848   5.167   7.499   7.425  3.2373  0.6633 -1.9487
   32MOL   H74726849   5.157   7.615   7.207  0.8748 -2.2175  0.7918
   32MOL   H74826850   5.191   0.072   7.295 -0.5420 -0.2132  1.6764
   32MOL   H74926851   5.419   7.683   7.349 -1.1725  1.5380  0.4446
   32MOL   H75026852   5.380   7.518   7.286  0.9128  0.5598 -3.0426
   32MOL   H75126853   5.327   7.623   7.060 -1.0093 -0.7206  0.7192
   32MOL   H75226854   5.403   0.075   7.111 -0.7631 -0.1422  1.4176
   32MOL   H75326855   5.612   7.665   7.160  2.6154  0.4255 -2.0816
   32MOL   H75426856   5.573   7.669   6.999 -0.5776  0.5924 -0.9866
   32MOL   H75526857   5.491   7.408   7.055 -0.0306  0.4512 -2.9622
   32MOL   H75626858   5.611   7.438   7.170  0.1388 -1.3038 -1.4023
   32MOL   H75726859   5.654   7.461   6.999 -0.2189 -2.6717  0.2420
   32MOL   C75826860   5.282   7.364   0.230  0.1004  0.4899 -0.2232
   32MOL   C75926861   5.340   7.400   0.092  0.2430 -0.3112 -0.3497
   32MOL   C76026862   5.477   7.468   0.114  0.6256  0.2998  0.3272
   32MOL   C76126863   5.600   7.381   0.131 -0.2403 -0.1367  0.3540
   32MOL   C76226864   5.723   7.466   0.164  0.0588 -0.6447  0.2344
   32MOL   C76326865   5.852   7.391   0.160 -0.6867 -0.2209 -0.0246
   32MOL   C76426866   5.974   7.488   0.191 -0.0325  0.0180  0.2491
   32MOL   C76526867   6.108   7.435   0.137  0.0487  0.3009  0.0289
   32MOL   C76626868   6.227   7.532   0.134 -0.2935  0.0366  0.5040
   32MOL   C76726869   6.343   7.485   0.042  0.3607  0.3230  0.0288
   32MOL   C76826870   6.451   7.584   0.025 -0.1204  0.1566  0.3157
   32MOL   C76926871   6.557   7.598   0.132 -0.0306 -0.2514  0.2988
   32MOL   C77026872   6.650   0.021   0.088  0.6008  0.2301  0.0959
   32MOL   C77126873   6.728   0.067   0.203 -0.3183 -0.9421 -0.5861
   32MOL   H77226874   5.299   7.433   0.313  0.4784  1.0582 -0.7667
   32MOL   H77326875   5.320   7.266   0.257  0.6056  1.2144  1.8049
   32MOL   H77426876   5.280   7.479   0.046 -2.8039 -1.4506  1.4894
   32MOL   H77526877   5.489   7.531   0.025  2.9362 -1.5369 -0.7262
   32MOL   H77626878   5.466   7.543   0.193  0.4440 -0.2693  0.8422
   32MOL   H77726879   5.582   7.300   0.202  0.1553 -2.3271 -1.9443
   32MOL   H77826880   5.612   7.318   0.042 -0.6623 -0.7584  0.7357
   32MOL   H77926881   5.705   7.517   0.258 -1.0609  1.6890 -1.1908
   32MOL   H78026882   5.735   7.546   0.090 -2.1179 -0.6313 -0.1556
   32MOL   H78126883   5.859   7.335   0.067  1.0985 -1.6811  0.9512
   32MOL   H78226884   5.850   7.312   0.236 -0.4957 -1.3669 -1.1957
   32MOL   H78326885   5.967   7.590   0.153  2.9618 -0.0560 -0.6168
   32MOL   H78426886   5.981   7.496   0.299 -0.5747  0.0857  0.2843
   32MOL   H78526887   6.084   7.402   0.036  0.1800 -0.0170  0.0999
   32MOL   H78626888   6.133   7.343   0.191  1.7630 -0.1298 -1.4924
   32MOL   H78726889   6.249   7.542   0.240 -0.4964 -0.8029  0.6283
   32MOL   H78826890   6.194   7.633   0.105 -1.9430 -0.7177 -0.3582
   32MOL   H78926891   6.311   7.464   7.635 -0.6596  2.3153 -0.0749
   32MOL   H79026892   6.380   7.395   0.092 -2.2765 -0.3408  0.8404
   32MOL   H79126893   6.505   7.544   7.634 -0.5900 -2.8341  1.3566
   32MOL   H79226894   6.408   7.680   7.694 -0.2576 -0.4744 -1.8693
   32MOL   H79326895   6.497   7.622   0.221  0.8179 -1.8052  1.3096
   32MOL   H79426896   6.615   7.506   0.141 -0.0363 -0.2977 -0.1500
   32MOL   H79526897   6.707   7.691   7.694  2.8357 -0.2267  1.6169
   32MOL   H79626898   6.585   0.100   0.049 -1.1263 -1.0531  0.3157
   32MOL   H79726899   6.674   0.084   0.295 -0.2413  1.1878 -0.9078
   32MOL   H79826900   6.807   7.692   0.230  1.2398  0.9389 -0.0810
   32MOL   H79926901   6.769   0.165   0.177 -1.7284 -0.4723 -1.1083
   32MOL   C80026902   5.341   7.277   7.688 -0.0183  0.7136 -0.2373
   32MOL   C80126903   5.404   7.295   7.547  0.1083 -0.4350  0.5144
   32MOL   C80226904   5.418   7.164   7.462 -0.5108  0.0810 -0.1024
   32MOL   C80326905   5.559   7.162   7.385  0.5008 -0.0654  0.1878
   32MOL   C80426906   5.667   7.137   7.487 -0.4866  1.1029  0.3342
   32MOL   C80526907   5.803   7.112   7.427  0.1109 -0.5283  0.9274
   32MOL   C80626908   5.918   7.082   7.522 -0.0834 -0.2082 -0.4756
   32MOL   C80726909   6.056   7.048   7.448 -0.2635 -0.6931  0.3021
   32MOL   C80826910   6.181   7.034   7.548 -0.0256  0.2134  0.2621
   32MOL   C80926911   6.318   7.002   7.477 -0.1086 -0.3474 -0.0773
   32MOL   C81026912   6.405   7.131   7.453 -0.4513  0.2595 -0.3695
   32MOL   C81126913   6.551   7.100   7.422  0.0885  0.9064 -0.1501
   32MOL   C81226914   6.640   7.035   7.534 -0.6800  0.6423  0.0189
   32MOL   C81326915   6.633   7.098   7.672  0.0198  0.0716 -0.6915
   32MOL   H81426916   5.242   7.237   7.667  0.6344 -0.5805 -0.9374
   32MOL   H81526917   5.385   7.184   0.030 -2.0090 -0.5198 -0.8759
   32MOL   H81626918   5.498   7.350   7.551 -1.0493  1.5915  0.4167
   32MOL   H81726919   5.352   7.188   7.378  1.5375 -0.8196 -2.0340
   32MOL   H81826920   5.390   7.070   7.508 -1.5658  0.2310 -0.4248
   32MOL   H81926921   5.577   7.256   7.333  3.9614 -0.8638 -0.1277
   32MOL   H82026922   5.543   7.079   7.316  0.4768 -1.2470  1.6148
   32MOL   H82126923   5.676   7.212   7.566  2.5715  0.9518  0.1731
   32MOL   H82226924   5.626   7.052   7.541  0.3541  2.5429  3.3609
   32MOL   H82326925   5.823   7.206   7.376 -1.9763 -1.2860 -1.3692
   32MOL   H82426926   5.810   7.041   7.344 -1.1533 -0.2512  0.5717
   32MOL   H82526927   5.944   7.154   7.599  1.7619 -0.1200 -1.1573
   32MOL   H82626928   5.897   6.997   7.586 -0.4393 -0.8192 -1.4076
   32MOL   H82726929   6.039   6.956   7.392 -0.3415 -0.5569  0.1046
   32MOL   H82826930   6.069   7.128   7.375  0.8738  0.2419  1.4942
   32MOL   H82926931   6.189   7.128   7.604 -0.0150  0.7942 -0.7129
   32MOL   H83026932   6.155   6.959   7.622 -0.2310 -1.0299 -1.0681
   32MOL   H83126933   6.296   6.936   7.393 -0.3489 -1.4002  0.7918
   32MOL   H83226934   6.374   6.933   7.541  2.0027 -0.4577 -2.0057
   32MOL   H83326935   6.371   7.193   7.370  1.8414  0.4645 -1.1744
   32MOL   H83426936   6.401   7.189   7.545  0.2174  1.5878 -1.1701
   32MOL   H83526937   6.597   7.197   7.404  0.3847  0.7558 -0.2250
   32MOL   H83626938   6.561   7.031   7.338  3.8631  0.7039  0.3827
   32MOL   H83726939   6.638   6.926   7.531 -0.1966  0.6247  0.2855
   32MOL   H83826940   6.741   7.061   7.504 -0.5566 -0.7818 -0.8595
   32MOL   H83926941   6.699   7.047   0.048  0.6115 -1.8081 -2.5192
   32MOL   H84026942   6.658   7.203   7.665 -0.1352  0.2525  1.1538
   32MOL   H84126943   6.535   7.075   0.018  0.0691  0.9400 -0.0747
   32MOL   H84226944   5.338   7.368   7.500 -1.6555 -1.6605  1.0474
   33MOL     C126945   1.429   3.742   2.916 -0.3202 -0.0039  0.0943
   33MOL     C226946   1.435   3.862   3.018 -0.2135 -0.3706 -0.3856
   33MOL     C326947   1.546   3.963   2.972  0.2446 -0.1212  0.6065
   33MOL     C426948   1.592   4.063   3.082  0.0629  0.1013  0.1132
   33MOL     C526949   1.707   4.148   3.035  0.2404 -0.0049  0.0467
   33MOL     C626950   1.791   4.190   3.157 -0.4113  0.0236 -0.4028
   33MOL     C726951   1.905   4.285   3.124 -0.3193 -0.6675  0.1243
   33MOL     C826952   1.993   4.320   3.247  0.8091 -0.1606  0.6941
   33MOL     C926953   2.074   4.446   3.237  0.0795 -0.3541  0.2033
   33MOL    C1026954   2.167   4.451   3.364  0.3515  0.3005 -0.7609
   33MOL    C1126955   2.252   4.576   3.362  0.0753 -0.5917 -0.0621
   33MOL    C1226956   2.356   4.565   3.482  0.2458  0.4873  0.2830
   33MOL    C1326957   2.428   4.696   3.522 -0.2710 -0.3749 -0.6718
   33MOL    C1426958   2.558   4.656   3.595 -0.1013  0.6782  0.3383
   33MOL    H1526959   1.387   3.777   2.822 -1.7106  2.1561  1.4868
   33MOL    H1626960   1.379   3.654   2.956 -1.0574  1.0752  1.6011
   33MOL    H1726961   1.470   3.819   3.112  2.7656  1.1022 -0.7601
   33MOL    H1826962   1.635   3.904   2.951  0.2128 -0.2282  0.7612
   33MOL    H1926963   1.518   4.013   2.880 -1.2867  0.4974  1.3864
   33MOL    H2026964   1.624   3.998   3.165  1.4145 -0.0715 -0.5209
   33MOL    H2126965   1.519   4.132   3.122 -1.5886 -0.3044 -2.1241
   33MOL    H2226966   1.674   4.232   2.974 -0.2504 -0.2071  0.0310
   33MOL    H2326967   1.768   4.081   2.975 -0.7939  1.2449 -2.4882
   33MOL    H2426968   1.826   4.099   3.205 -0.4342  0.2539  0.0571
   33MOL    H2526969   1.721   4.240   3.224 -1.8499 -0.6160 -1.4147
   33MOL    H2626970   1.974   4.244   3.050  1.9616  0.0502  1.8015
   33MOL    H2726971   1.870   4.373   3.071  1.5370 -0.3310 -0.6086
   33MOL    H2826972   2.057   4.241   3.287 -0.6004 -1.1279  1.0725
   33MOL    H2926973   1.922   4.333   3.329 -1.9476 -1.3182 -1.4474
   33MOL    H3026974   2.143   4.453   3.153  1.1942  2.8891  1.3103
   33MOL    H3126975   1.999   4.525   3.234  0.7363  0.3387  1.7379
   33MOL    H3226976   2.114   4.450   3.460 -0.7396  0.9086 -1.3339
   33MOL    H3326977   2.232   4.365   3.374  2.2523  1.7848 -0.0011
   33MOL    H3426978   2.299   4.613   3.270  0.2221 -0.0947  0.2108
   33MOL    H3526979   2.182   4.654   3.393  0.9305  0.0899  0.1894
   33MOL    H3626980   2.420   4.489   3.436 -0.4073 -0.6932  1.2920
   33MOL    H3726981   2.309   4.522   3.570  1.7076  1.1565  1.4091
   33MOL    H3826982   2.454   4.747   3.429 -0.2337 -0.4511 -0.7030
   33MOL    H3926983   2.365   4.761   3.582  0.6777 -0.0980  0.0432
   33MOL    H4026984   2.608   4.579   3.537 -1.1405 -0.7140  1.2789
   33MOL    H4126985   2.632   4.736   3.586  2.0766 -1.4626 -1.5033
   33MOL    H4226986   2.544   4.620   3.697 -0.7403 -0.7022 -0.2291
   33MOL    H4326987   1.537   3.727   2.913 -0.0812  1.3603  1.3394
   33MOL    C4426988   1.297   3.924   3.029 -0.8005  0.3204 -0.2141
   33MOL    C4526989   1.178   3.831   3.066  0.1491 -0.3073  0.3663
   33MOL    C4626990   1.041   3.894   3.031  0.7253 -0.3544 -0.4964
   33MOL    C4726991   1.009   3.894   2.879  1.0424  0.4126  0.1568
   33MOL    C4826992   0.884   3.969   2.850 -0.3570 -0.3364  0.3933
   33MOL    C4926993   0.820   3.949   2.705 -0.3208 -0.6667  0.0156
   33MOL    C5026994   0.769   3.812   2.665 -0.1614  0.5092 -0.5785
   33MOL    C5126995   0.717   3.800   2.525 -0.2035 -0.3137 -0.4554
   33MOL    C5226996   0.678   3.658   2.480  0.3977  0.2028  0.0455
   33MOL    C5326997   0.751   3.614   2.352  0.3407  0.4304 -0.0559
   33MOL    C5426998   0.682   3.484   2.310 -0.0648  0.1145  0.8066
   33MOL    C5526999   0.719   3.439   2.166 -0.8719 -0.6253 -0.5821
   33MOL    C5627000   0.631   3.329   2.131  0.2106 -0.3882  0.3807
   33MOL    C5727001   0.685   3.256   2.009 -0.3996 -0.0043 -0.1010
   33MOL    H5827002   1.312   3.997   3.108 -0.0368 -1.5737  1.4104
   33MOL    H5927003   1.271   3.972   2.934 -1.4376  1.0840  0.3421
   33MOL    H6027004   1.184   3.741   3.004  0.7884 -0.3074  0.4261
   33MOL    H6127005   0.969   3.827   3.079  2.0460 -2.3426 -1.2402
   33MOL    H6227006   1.042   4.000   3.056  0.6671  0.1674 -2.5664
   33MOL    H6327007   1.006   3.789   2.849 -1.0266  0.2359  0.9106
   33MOL    H6427008   1.093   3.928   2.818  1.3893 -1.8728 -0.6823
   33MOL    H6527009   0.910   4.074   2.863  0.5469 -0.7833  2.4060
   33MOL    H6627010   0.803   3.943   2.919 -0.5577 -0.3162  0.1655
   33MOL    H6727011   0.736   4.017   2.695 -1.3193 -1.8878 -0.0256
   33MOL    H6827012   0.889   3.979   2.626  0.2835  0.1732  0.8611
   33MOL    H6927013   0.850   3.739   2.664 -1.9225 -1.5131  0.8486
   33MOL    H7027014   0.703   3.777   2.743  0.6349 -2.5027 -1.2077
   33MOL    H7127015   0.797   3.854   2.473  0.6317 -0.8344  0.2800
   33MOL    H7227016   0.631   3.863   2.502 -0.1809  0.8228  2.4743
   33MOL    H7327017   0.693   3.575   2.548  0.7359 -1.4563 -2.0145
   33MOL    H7427018   0.572   3.662   2.456  0.1577  2.4322  1.3230
   33MOL    H7527019   0.853   3.587   2.377  0.2421 -1.1299 -1.2558
   33MOL    H7627020   0.751   3.687   2.271  1.2005  1.2246  0.6624
   33MOL    H7727021   0.576   3.506   2.300 -0.1220 -0.9119 -1.1884
   33MOL    H7827022   0.702   3.411   2.389 -2.1194 -0.7262  0.5805
   33MOL    H7927023   0.689   3.522   2.100 -1.6451 -0.6656 -0.2871
   33MOL    H8027024   0.824   3.426   2.142 -0.9481  0.0867 -1.3470
   33MOL    H8127025   0.534   3.375   2.107  0.3447 -1.1801 -1.8307
   33MOL    H8227026   0.624   3.251   2.206  0.2509 -0.6571  0.1092
   33MOL    H8327027   0.654   3.317   1.924 -0.7522 -1.0808 -0.7506
   33MOL    H8427028   0.648   3.154   1.996  1.5367 -0.5724 -1.3272
   33MOL    H8527029   0.793   3.246   2.005 -0.5018 -0.7975 -0.9393
   33MOL    C8627030   1.185   3.806   3.220  0.4017  0.3214 -0.0254
   33MOL    C8727031   1.279   3.683   3.259 -0.5988  0.3347 -0.1348
   33MOL    C8827032   1.195   3.559   3.281  0.1270  0.4826 -0.4820
   33MOL    C8927033   1.272   3.428   3.243 -0.2518 -0.0017  0.3656
   33MOL    C9027034   1.195   3.302   3.301 -0.0168  0.0179  0.0719
   33MOL    C9127035   1.255   3.171   3.250 -0.2438 -0.1494  0.2265
   33MOL    C9227036   1.190   3.047   3.295  0.2811 -0.1749 -0.1694
   33MOL    C9327037   1.286   2.927   3.270  0.2302 -0.5616  0.0361
   33MOL    C9427038   1.247   2.798   3.330 -0.4276  0.2377 -0.0327
   33MOL    C9527039   1.110   2.743   3.285  0.2150 -0.5784  0.3177
   33MOL    C9627040   1.093   2.686   3.141  0.7533  0.5753 -0.3208
   33MOL    C9727041   1.022   2.792   3.048  0.1707 -0.3458  0.7171
   33MOL    C9827042   0.972   2.732   2.910  0.7280 -0.3433 -0.4100
   33MOL    C9927043   0.910   2.847   2.827  0.0078 -0.3042 -0.3365
   33MOL   H10027044   1.218   3.896   3.271  1.2104 -0.4340  0.8043
   33MOL   H10127045   1.084   3.791   3.258  0.4349  0.5828  0.1663
   33MOL   H10227046   1.350   3.660   3.181  0.9775  0.1805  1.3200
   33MOL   H10327047   1.147   3.568   3.379 -0.9596  0.0219 -0.9710
   33MOL   H10427048   1.113   3.569   3.210 -1.3623  0.3827  1.1960
   33MOL   H10527049   1.289   3.415   3.136  1.2780 -0.6057  0.6643
   33MOL   H10627050   1.374   3.433   3.281 -0.7230 -0.7474  1.7925
   33MOL   H10727051   1.092   3.311   3.267  0.9195  3.3723 -2.1826
   33MOL   H10827052   1.186   3.308   3.409 -0.2443 -0.9797  0.1164
   33MOL   H10927053   1.356   3.174   3.290 -0.0914  0.1704 -0.1775
   33MOL   H11027054   1.265   3.174   3.142 -1.0994 -2.1250  0.0762
   33MOL   H11127055   1.171   3.059   3.402  0.8952  2.4087 -0.3257
   33MOL   H11227056   1.090   3.031   3.254  0.2061 -0.1226 -0.0065
   33MOL   H11327057   1.390   2.951   3.293  0.2524  1.3881 -1.8878
   33MOL   H11427058   1.291   2.907   3.163  0.0665 -2.2421  0.3328
   33MOL   H11527059   1.330   2.728   3.322 -0.5288 -0.2315  2.3988
   33MOL   H11627060   1.244   2.809   3.439 -1.6097  0.4432 -0.0863
   33MOL   H11727061   1.031   2.809   3.320 -0.7768 -0.2734 -2.3801
   33MOL   H11827062   1.090   2.657   3.350 -1.6287 -1.9596 -2.0044
   33MOL   H11927063   1.184   2.656   3.089 -0.2893  1.0890 -2.5088
   33MOL   H12027064   1.032   2.597   3.152  0.4152  0.8495  0.0802
   33MOL   H12127065   0.950   2.863   3.090  0.5176  0.2455  0.3166
   33MOL   H12227066   1.096   2.864   3.015 -1.8081  1.3495 -0.1569
   33MOL   H12327067   0.901   2.654   2.937 -0.0035  0.6064  0.4524
   33MOL   H12427068   1.047   2.681   2.850  0.6947  0.3904 -1.0788
   33MOL   H12527069   0.968   2.938   2.838  1.8209 -1.3378 -1.0972
   33MOL   H12627070   0.910   2.825   2.720  1.9520  0.3285 -0.4838
   33MOL   H12727071   0.810   2.881   2.853  0.0722  0.9112 -1.6063
   33MOL   C12827072   1.351   3.738   3.382 -0.4647 -0.5575  0.4498
   33MOL   C12927073   1.460   3.655   3.449  0.1139  0.4020  0.2790
   33MOL   C13027074   1.574   3.605   3.356  0.6951  1.1458  0.5253
   33MOL   C13127075   1.674   3.717   3.332  0.7064  0.8438  0.2366
   33MOL   C13227076   1.759   3.689   3.213 -0.3312  0.3582  0.4223
   33MOL   C13327077   1.871   3.790   3.162 -0.1093 -0.0070 -0.4294
   33MOL   C13427078   1.970   3.735   3.063 -0.3988  0.0265 -0.2285
   33MOL   C13527079   2.084   3.659   3.137  0.2027  0.2310  0.2124
   33MOL   C13627080   2.185   3.611   3.033  0.3891 -0.5629 -0.2000
   33MOL   C13727081   2.310   3.538   3.085  0.0043  0.4386 -0.0911
   33MOL   C13827082   2.331   3.402   3.033 -0.6929  0.2973  0.3466
   33MOL   C13927083   2.461   3.333   3.070 -0.1692  0.6395  0.3218
   33MOL   C14027084   2.478   3.206   2.984 -0.1718 -0.1961  0.6328
   33MOL   C14127085   2.588   3.111   3.040  0.5062 -0.0306  0.0563
   33MOL   H14227086   1.387   3.840   3.367 -1.0143 -0.5351 -0.7725
   33MOL   H14327087   1.271   3.739   3.457  1.1385 -1.4754  2.2059
   33MOL   H14427088   1.413   3.559   3.469 -1.5511  0.7914 -1.6308
   33MOL   H14527089   1.629   3.525   3.407  1.6345  1.1444 -0.4850
   33MOL   H14627090   1.533   3.568   3.262 -0.0922  1.9411  0.5511
   33MOL   H14727091   1.616   3.806   3.307 -1.5722 -0.3913  0.9492
   33MOL   H14827092   1.727   3.743   3.424 -1.0885 -0.9789  1.8204
   33MOL   H14927093   1.818   3.597   3.219 -0.4230  0.1688 -1.3980
   33MOL   H15027094   1.696   3.669   3.126 -0.4123  1.9470  0.1134
   33MOL   H15127095   1.813   3.874   3.126 -0.7449 -0.2804 -0.0563
   33MOL   H15227096   1.914   3.847   3.244 -1.8059  0.8305 -0.0996
   33MOL   H15327097   1.914   3.675   2.991 -1.2638  0.9929 -0.3742
   33MOL   H15427098   2.009   3.818   3.004  0.2609 -1.4810 -1.9617
   33MOL   H15527099   2.122   3.733   3.206 -2.1917  2.3704 -0.6742
   33MOL   H15627100   2.049   3.576   3.198 -0.3878  0.0702 -0.3357
   33MOL   H15727101   2.133   3.554   2.956 -0.3623 -0.8131  0.4874
   33MOL   H15827102   2.220   3.694   2.972 -1.1104 -0.7034 -1.2687
   33MOL   H15927103   2.308   3.538   3.194 -0.3536 -0.8808 -0.0878
   33MOL   H16027104   2.390   3.606   3.056 -3.2675  3.6117 -2.1528
   33MOL   H16127105   2.247   3.354   3.083 -0.3536 -0.4537  0.2105
   33MOL   H16227106   2.315   3.385   2.926 -2.1426  2.3100  0.2184
   33MOL   H16327107   2.541   3.405   3.058 -1.9508  2.8619  1.3651
   33MOL   H16427108   2.453   3.299   3.173  0.2786 -2.2049 -0.5179
   33MOL   H16527109   2.380   3.158   2.988 -1.1700  1.7206 -0.1875
   33MOL   H16627110   2.506   3.238   2.884 -1.0620  0.6719  0.6547
   33MOL   H16727111   2.588   3.099   3.148 -3.0036 -0.6157  0.0611
   33MOL   H16827112   2.573   3.018   2.985 -2.4433  0.8287 -0.7250
   33MOL   H16927113   2.684   3.155   3.015  1.0301 -2.1635 -1.7991
   33MOL   C17027114   1.507   3.711   3.585  0.1797  0.4674  0.5904
   33MOL   C17127115   1.592   3.625   3.677 -0.3068 -0.2220 -0.9277
   33MOL   C17227116   1.670   3.704   3.777 -0.1611 -0.1119  0.2750
   33MOL   C17327117   1.799   3.777   3.734 -0.2292  0.2338 -0.5394
   33MOL   C17427118   1.893   3.818   3.844  0.4876 -0.3651 -0.5395
   33MOL   C17527119   1.830   3.901   3.953 -0.4142 -0.0388 -0.8090
   33MOL   C17627120   1.924   3.948   4.068  0.3862 -0.0217 -0.4819
   33MOL   C17727121   1.862   4.060   4.154 -0.5814 -0.4087 -0.2358
   33MOL   C17827122   1.939   4.083   4.288  0.1844  0.6301 -0.2436
   33MOL   C17927123   1.852   4.172   4.377  0.4505  0.6880 -0.0348
   33MOL   C18027124   1.932   4.226   4.496  0.0858 -0.1499  1.4286
   33MOL   C18127125   1.853   4.315   4.601 -0.1666 -0.1125  0.0190
   33MOL   C18227126   1.940   4.369   4.713 -0.4717 -0.5728  0.0995
   33MOL   C18327127   1.848   4.429   4.824  0.0681 -0.2263  0.1168
   33MOL   H18427128   1.417   3.729   3.644 -0.8319 -0.2841 -0.7001
   33MOL   H18527129   1.549   3.809   3.565 -1.6570  0.7794 -1.9423
   33MOL   H18627130   1.660   3.569   3.612 -2.0847 -1.3181 -1.9108
   33MOL   H18727131   1.605   3.782   3.816  1.0064 -0.2168  2.5180
   33MOL   H18827132   1.689   3.633   3.858 -1.7620  0.2449  0.9827
   33MOL   H18927133   1.853   3.701   3.677  0.2439  0.9489 -1.0376
   33MOL   H19027134   1.776   3.854   3.660 -0.4991  0.7401  0.0677
   33MOL   H19127135   1.922   3.727   3.896 -0.1361  0.2374  0.8875
   33MOL   H19227136   1.977   3.863   3.790  0.0944 -0.4265 -1.2079
   33MOL   H19327137   1.743   3.857   4.002  1.3915 -1.6581  1.0406
   33MOL   H19427138   1.797   3.998   3.915  0.9393  0.5353 -0.5495
   33MOL   H19527139   2.024   3.973   4.031  1.8228 -0.8396  2.6840
   33MOL   H19627140   1.948   3.863   4.132  2.6987  0.3626 -0.7705
   33MOL   H19727141   1.761   4.029   4.177 -0.4437 -1.3085 -0.8117
   33MOL   H19827142   1.866   4.152   4.096  1.2812 -1.1295 -1.3253
   33MOL   H19927143   2.038   4.123   4.263 -0.3976  1.0177 -1.9359
   33MOL   H20027144   1.952   3.987   4.339  2.5559  1.1369  0.1968
   33MOL   H20127145   1.760   4.127   4.415  0.4253 -0.7088 -1.6494
   33MOL   H20227146   1.824   4.256   4.313  0.5685 -0.3416 -1.4863
   33MOL   H20327147   2.017   4.286   4.464 -0.6426  0.3445  0.3885
   33MOL   H20427148   1.978   4.152   4.560  0.2142 -1.0699  0.2721
   33MOL   H20527149   1.807   4.394   4.542 -0.9099  2.3510  3.7963
   33MOL   H20627150   1.770   4.253   4.634  0.3624 -1.9588 -1.9415
   33MOL   H20727151   1.999   4.290   4.760 -0.2282 -1.4804 -1.7055
   33MOL   H20827152   2.011   4.444   4.678  1.5433 -1.3250  2.4364
   33MOL   H20927153   1.778   4.354   4.860  0.8518 -1.6084 -1.1863
   33MOL   H21027154   1.792   4.520   4.798 -0.8735 -0.8866 -0.1956
   33MOL   H21127155   1.917   4.460   4.902  1.1918  0.5513 -1.1539
   33MOL   C21227156   1.511   3.503   3.737  0.4228  0.5599  0.6201
   33MOL   C21327157   1.392   3.537   3.831  0.0185 -0.3071  0.1687
   33MOL   C21427158   1.267   3.517   3.747 -0.4484 -0.0563  0.6475
   33MOL   C21527159   1.135   3.569   3.812 -0.4960  0.6056 -0.7794
   33MOL   C21627160   1.017   3.600   3.721 -0.9751  0.4678  0.2226
   33MOL   C21727161   0.898   3.650   3.796  0.1521  0.1124 -0.8259
   33MOL   C21827162   0.781   3.699   3.711 -0.0286  0.6459  0.7712
   33MOL   C21927163   0.662   3.754   3.785  0.4935  0.0918  0.2738
   33MOL   C22027164   0.527   3.780   3.705  0.0734  0.1939 -0.3462
   33MOL   C22127165   0.537   3.905   3.617 -0.3704 -0.3752 -0.7481
   33MOL   C22227166   0.409   3.924   3.539  0.7441  0.7640 -0.4449
   33MOL   C22327167   0.415   4.050   3.459  0.7258 -0.0770 -0.4550
   33MOL   C22427168   0.277   4.083   3.401 -0.1209  0.2372 -0.2086
   33MOL   C22527169   0.259   4.195   3.297  0.2208 -0.1798  0.4916
   33MOL   H22627170   1.575   3.427   3.782  1.7746  0.8208 -0.8315
   33MOL   H22727171   1.480   3.449   3.647  1.7982  0.9545 -0.1041
   33MOL   H22827172   1.397   3.640   3.866  0.0821  0.0823 -0.9710
   33MOL   H22927173   1.277   3.584   3.661  0.3422 -0.2044  0.6161
   33MOL   H23027174   1.256   3.417   3.705 -1.9911  0.8114 -1.0835
   33MOL   H23127175   1.153   3.669   3.850 -0.7475  0.4782 -0.3249
   33MOL   H23227176   1.114   3.512   3.903  0.2505 -1.5788 -1.9263
   33MOL   H23327177   0.985   3.503   3.682  2.3479 -1.1214  1.2094
   33MOL   H23427178   1.047   3.667   3.641 -0.5775 -0.2127 -0.1969
   33MOL   H23527179   0.924   3.730   3.865  0.4358 -2.0134  1.6085
   33MOL   H23627180   0.856   3.577   3.866  0.3080  0.6250 -0.1963
   33MOL   H23727181   0.817   3.777   3.643  1.1985 -1.8435 -1.5088
   33MOL   H23827182   0.744   3.623   3.643 -0.2056 -0.2567  1.8631
   33MOL   H23927183   0.635   3.677   3.857 -0.0969  0.0180 -0.0264
   33MOL   H24027184   0.694   3.836   3.849  1.4873  0.5069 -0.7396
   33MOL   H24127185   0.460   3.797   3.789 -1.0753 -1.8407 -0.8059
   33MOL   H24227186   0.508   3.684   3.657 -2.3531 -0.4639  1.7904
   33MOL   H24327187   0.553   3.988   3.686  2.2959 -0.5567 -1.0780
   33MOL   H24427188   0.624   3.900   3.552 -0.3576  0.8048 -0.8307
   33MOL   H24527189   0.336   3.947   3.616  1.1966  1.3568 -0.1938
   33MOL   H24627190   0.379   3.840   3.476 -0.5879 -0.2794  1.5110
   33MOL   H24727191   0.497   4.047   3.387  2.7924 -1.0615  1.8441
   33MOL   H24827192   0.434   4.138   3.521 -1.1916 -1.9054  2.8904
   33MOL   H24927193   0.207   4.093   3.484  1.8789  1.7672  1.3440
   33MOL   H25027194   0.240   3.996   3.347  0.3881 -1.2786  1.8324
   33MOL   H25127195   0.278   4.288   3.350 -1.6903 -1.2615  3.2229
   33MOL   H25227196   0.328   4.178   3.215 -0.4527 -0.6299  0.0072
   33MOL   H25327197   0.162   4.199   3.247  1.1158 -0.3622 -1.3107
   33MOL   C25427198   1.381   3.443   3.953 -0.0952  0.1753 -0.1996
   33MOL   C25527199   1.486   3.460   4.068  0.5386 -0.0819 -0.4906
   33MOL   C25627200   1.473   3.601   4.130  0.3293 -0.1501  0.3067
   33MOL   C25727201   1.591   3.637   4.219  0.2356 -0.2766  0.0378
   33MOL   C25827202   1.568   3.776   4.280  0.1439  0.1355  0.0298
   33MOL   C25927203   1.664   3.831   4.387  1.4813 -0.5144  0.1342
   33MOL   C26027204   1.665   3.750   4.516  0.1184  0.1652 -0.2645
   33MOL   C26127205   1.761   3.793   4.621 -0.8070  0.2848 -0.1735
   33MOL   C26227206   1.900   3.726   4.618  0.2436  0.0562  0.3049
   33MOL   C26327207   1.996   3.759   4.732  0.6709  0.3852  0.2453
   33MOL   C26427208   2.041   3.902   4.745  0.1325  0.1980 -0.2456
   33MOL   C26527209   2.149   3.938   4.853  0.6713  0.9918  0.2800
   33MOL   C26627210   2.107   3.941   5.003  0.0894 -0.1317  0.0340
   33MOL   C26727211   2.004   4.039   5.033  0.3460 -0.1396 -0.2302
   33MOL   H26827212   1.382   3.339   3.919 -0.6740  0.0786  0.0646
   33MOL   H26927213   1.284   3.447   4.003 -0.4545 -2.0728 -0.6382
   33MOL   H27027214   1.586   3.457   4.023  1.0748  2.8431  0.3888
   33MOL   H27127215   1.377   3.621   4.176 -0.3795 -0.2098 -1.1041
   33MOL   H27227216   1.476   3.675   4.049  4.3719  0.0723  0.5406
   33MOL   H27327217   1.682   3.639   4.160 -1.0593 -1.7268 -2.0757
   33MOL   H27427218   1.596   3.558   4.294  0.7081 -0.0411  0.2564
   33MOL   H27527219   1.471   3.791   4.327  0.9994  2.0070  1.2882
   33MOL   H27627220   1.565   3.851   4.201  1.8088  2.1753  1.8558
   33MOL   H27727221   1.646   3.937   4.405  1.8326 -0.2092 -1.2445
   33MOL   H27827222   1.765   3.823   4.347  1.3209 -2.0306  0.0156
   33MOL   H27927223   1.568   3.764   4.564  0.8623 -1.4236  1.8116
   33MOL   H28027224   1.680   3.645   4.492  3.1509  0.4553  0.2142
   33MOL   H28127225   1.720   3.762   4.717  0.6756 -0.1711  0.3263
   33MOL   H28227226   1.774   3.901   4.632  0.2769  0.0948  0.4789
   33MOL   H28327227   1.902   3.618   4.600 -0.1827 -0.0031  0.6092
   33MOL   H28427228   1.935   3.754   4.519  1.1675 -0.1573  0.5587
   33MOL   H28527229   2.081   3.699   4.701  0.7174  0.2303  0.6704
   33MOL   H28627230   1.962   3.715   4.825 -0.3269  0.3756 -0.1172
   33MOL   H28727231   1.950   3.957   4.768 -0.2975 -0.6648  0.1260
   33MOL   H28827232   2.068   3.938   4.646  0.7527 -0.4434 -0.3102
   33MOL   H28927233   2.230   3.865   4.849  0.4954  0.8301 -0.5245
   33MOL   H29027234   2.188   4.037   4.829 -1.4977  1.6626 -0.5622
   33MOL   H29127235   2.062   3.848   5.036  0.2781 -0.5536 -0.8772
   33MOL   H29227236   2.197   3.959   5.063  0.2235  2.8133 -0.9652
   33MOL   H29327237   1.918   4.028   4.966 -0.0510 -0.6970  0.3621
   33MOL   H29427238   2.045   4.138   5.013  0.9958 -0.1954  0.7915
   33MOL   H29527239   1.968   4.035   5.136  1.4523  1.3411  0.2292
   33MOL   C29627240   1.470   3.351   4.178 -0.0817  0.1497 -0.3000
   33MOL   C29727241   1.473   3.202   4.134 -0.5270  0.1931  0.4449
   33MOL   C29827242   1.603   3.176   4.054  0.0613 -0.5948  0.2808
   33MOL   C29927243   1.613   3.033   4.005 -0.0122 -0.1825  0.9593
   33MOL   C30027244   1.754   2.972   3.968  0.5363 -0.3786 -0.9891
   33MOL   C30127245   1.759   2.816   3.968  0.2053  0.4810 -0.5569
   33MOL   C30227246   1.770   2.748   4.105  0.2127  0.0687  0.1194
   33MOL   C30327247   1.750   2.597   4.099  0.1499  0.3938  0.1959
   33MOL   C30427248   1.840   2.521   4.007 -0.5109  0.0977  0.6903
   33MOL   C30527249   1.984   2.542   4.051 -0.3051 -0.6166  0.4098
   33MOL   C30627250   2.099   2.512   3.952  0.0800  0.7560  0.5887
   33MOL   C30727251   2.242   2.548   4.008  0.1601 -0.5731 -0.2202
   33MOL   C30827252   2.345   2.583   3.896  0.3969  0.6722 -0.2640
   33MOL   C30927253   2.479   2.645   3.950  0.8724 -0.3011 -0.4246
   33MOL   H31027254   1.370   3.353   4.221 -0.5039  0.7270 -1.2879
   33MOL   H31127255   1.550   3.369   4.250  2.2133 -0.6240 -2.5743
   33MOL   H31227256   1.386   3.172   4.075  1.9844 -2.4022 -2.0816
   33MOL   H31327257   1.684   3.203   4.121  1.6590 -0.0808 -1.8148
   33MOL   H31427258   1.634   3.244   3.975  0.5413 -1.0273  0.1007
   33MOL   H31527259   1.549   3.021   3.917  0.9107  0.8606  0.1244
   33MOL   H31627260   1.577   2.967   4.084  0.2550 -2.8077 -1.0387
   33MOL   H31727261   1.789   3.016   3.874  3.7229  0.0739  0.3421
   33MOL   H31827262   1.833   3.007   4.034  0.5061 -0.4010 -0.9410
   33MOL   H31927263   1.850   2.792   3.913  0.5395  1.6629 -0.5378
   33MOL   H32027264   1.673   2.783   3.910 -0.9158 -2.1737  2.4932
   33MOL   H32127265   1.863   2.774   4.154 -0.2723  1.3801  0.3893
   33MOL   H32227266   1.705   2.793   4.180 -1.4427  0.6790 -1.6223
   33MOL   H32327267   1.646   2.579   4.070  0.3851 -1.5317  0.4455
   33MOL   H32427268   1.765   2.551   4.196  0.5896 -0.0711 -0.0856
   33MOL   H32527269   1.823   2.414   4.010  4.5647 -0.8741 -0.1505
   33MOL   H32627270   1.825   2.558   3.906 -2.5432  0.8816  1.2558
   33MOL   H32727271   2.001   2.485   4.143  1.9853  0.5631  0.7547
   33MOL   H32827272   1.998   2.645   4.082 -2.0258  0.2993 -1.7326
   33MOL   H32927273   2.082   2.578   3.867 -3.9746  1.3991  1.7804
   33MOL   H33027274   2.086   2.409   3.917 -3.0928  0.4997  2.2961
   33MOL   H33127275   2.280   2.469   4.072 -1.4970 -1.5284 -0.4052
   33MOL   H33227276   2.234   2.637   4.070 -4.1742 -1.3260  0.4259
   33MOL   H33327277   2.305   2.648   3.818  0.3635  0.7912 -0.1482
   33MOL   H33427278   2.365   2.498   3.830  0.6109 -0.3630  1.1048
   33MOL   H33527279   2.474   2.744   3.996  3.1829 -0.1708 -0.4250
   33MOL   H33627280   2.527   2.584   4.027 -0.3583 -0.5836  0.1296
   33MOL   H33727281   2.556   2.646   3.873 -0.8509  1.7546 -2.1874
   33MOL   C33827282   1.455   3.119   4.264  0.6029  0.1999 -0.4560
   33MOL   C33927283   1.351   3.002   4.254  0.1193  0.0178  0.3924
   33MOL   C34027284   1.400   2.882   4.342  0.2089 -0.3713  0.3721
   33MOL   C34127285   1.353   2.746   4.288  0.6561 -0.5413 -0.4122
   33MOL   C34227286   1.411   2.612   4.344  0.1016 -0.9647 -0.3438
   33MOL   C34327287   1.370   2.483   4.269 -1.0501 -1.0409  0.2136
   33MOL   C34427288   1.400   2.356   4.346  0.1667 -0.1235  0.3159
   33MOL   C34527289   1.329   2.227   4.293 -0.4496 -0.5381 -0.2681
   33MOL   C34627290   1.352   2.184   4.152  0.2202  0.0528  0.1243
   33MOL   C34727291   1.279   2.052   4.128  0.5629  0.3274  0.6228
   33MOL   C34827292   1.286   2.002   3.984 -0.5222 -0.0194 -0.4106
   33MOL   C34927293   1.235   1.851   3.965  0.3016  0.8213  0.9750
   33MOL   C35027294   1.239   1.810   3.818 -0.0090  0.2435  0.1112
   33MOL   C35127295   1.176   1.672   3.787  0.4162  0.4870  0.4056
   33MOL   H35227296   1.553   3.085   4.296 -0.2506 -0.8831  1.0655
   33MOL   H35327297   1.441   3.177   4.355  1.2557 -3.0130  1.7452
   33MOL   H35427298   1.340   2.969   4.151  1.7777  2.1670 -0.5118
   33MOL   H35527299   1.507   2.864   4.344  0.5136  1.3895  0.4529
   33MOL   H35627300   1.369   2.884   4.447 -1.0907  2.4389 -0.0336
   33MOL   H35727301   1.378   2.748   4.182 -0.9982 -2.8934 -0.8893
   33MOL   H35827302   1.244   2.740   4.287  0.4716  2.2495  0.6435
   33MOL   H35927303   1.380   2.611   4.448 -0.3708 -1.2331 -0.4824
   33MOL   H36027304   1.518   2.629   4.357  0.1431 -1.6236  0.2098
   33MOL   H36127305   1.267   2.493   4.236 -1.0178  1.4370  0.7502
   33MOL   H36227306   1.421   2.483   4.172  0.1949  0.2716  0.8306
   33MOL   H36327307   1.509   2.344   4.351 -0.0892 -2.8956  0.2114
   33MOL   H36427308   1.382   2.383   4.450  1.5707 -2.8893  1.3369
   33MOL   H36527309   1.358   2.143   4.356  0.9319  1.0698  1.3055
   33MOL   H36627310   1.221   2.235   4.309 -0.0293  1.5438  1.7654
   33MOL   H36727311   1.313   2.259   4.083 -2.3801 -1.1648  0.1982
   33MOL   H36827312   1.460   2.178   4.134  0.3572  1.6833  0.3314
   33MOL   H36927313   1.310   1.979   4.202  0.9343 -1.3658 -1.1447
   33MOL   H37027314   1.176   2.074   4.157  0.1540 -0.2382 -0.3441
   33MOL   H37127315   1.394   2.004   3.967 -0.4340 -0.9739 -0.0357
   33MOL   H37227316   1.232   2.068   3.917 -0.7851 -0.9230 -1.1003
   33MOL   H37327317   1.132   1.837   3.997 -0.9960  1.8316 -2.5084
   33MOL   H37427318   1.311   1.791   4.013 -0.1059  1.6920  2.7508
   33MOL   H37527319   1.187   1.888   3.762  2.3130  3.3451  2.0960
   33MOL   H37627320   1.343   1.805   3.785 -0.2399 -3.5739 -0.2833
   33MOL   H37727321   1.249   1.598   3.819 -0.4193 -0.1536  0.8568
   33MOL   H37827322   1.088   1.657   3.849  2.2583 -1.3913  2.6679
   33MOL   H37927323   1.161   1.662   3.680  0.6701  0.4408  0.3735
   33MOL   C38027324   1.215   3.050   4.303 -0.8420 -0.4855  0.1672
   33MOL   C38127325   1.130   3.148   4.217 -0.6090  0.3772  0.6100
   33MOL   C38227326   1.080   3.087   4.081 -0.3823 -0.3524  0.3595
   33MOL   C38327327   1.022   3.191   3.990  0.2506 -0.3453 -0.2968
   33MOL   C38427328   1.026   3.156   3.840 -0.4285 -0.0688  0.1619
   33MOL   C38527329   0.940   3.037   3.793  0.6545 -0.3566  0.2064
   33MOL   C38627330   0.968   3.007   3.642  0.1152  0.4648  0.3820
   33MOL   C38727331   0.863   2.909   3.583  0.1720 -1.1982 -0.2937
   33MOL   C38827332   0.861   2.762   3.639  0.3477 -0.2661 -0.8535
   33MOL   C38927333   0.802   2.657   3.546  0.4757  0.2162 -1.0807
   33MOL   C39027334   0.797   2.513   3.611 -0.5665 -0.4507  0.5592
   33MOL   C39127335   0.939   2.470   3.645  0.3654  0.5406  0.4357
   33MOL   C39227336   0.935   2.313   3.685 -0.5736 -0.9541 -0.1720
   33MOL   C39327337   1.064   2.273   3.757 -0.0686  0.4216 -0.4254
   33MOL   H39427338   1.216   3.073   4.410  0.1875  0.5095 -0.0492
   33MOL   H39527339   1.155   2.959   4.305  0.5327 -1.6960 -5.2508
   33MOL   H39627340   1.180   3.243   4.195  2.1676 -1.0943  0.2606
   33MOL   H39727341   0.999   3.019   4.108 -2.7572  1.4197 -2.0234
   33MOL   H39827342   1.160   3.032   4.033  0.4683  0.6213  0.6382
   33MOL   H39927343   1.065   3.289   4.006  0.3354 -0.2472 -1.0871
   33MOL   H40027344   0.917   3.217   3.999 -0.0219 -1.9480  1.4669
   33MOL   H40127345   1.123   3.138   3.795 -0.3353  0.2249  0.2400
   33MOL   H40227346   0.994   3.244   3.783 -0.2775 -1.4174 -2.0351
   33MOL   H40327347   0.836   3.059   3.814  0.5212  0.3304 -1.0992
   33MOL   H40427348   0.959   2.953   3.860  0.2269 -0.1531  0.5845
   33MOL   H40527349   0.955   3.097   3.582 -0.2144 -0.8772 -1.6019
   33MOL   H40627350   1.066   2.962   3.631  0.0392  0.9912 -3.2190
   33MOL   H40727351   0.765   2.955   3.595  1.3924  0.8370  2.4852
   33MOL   H40827352   0.884   2.908   3.476  1.7979 -0.3790  0.0064
   33MOL   H40927353   0.962   2.731   3.664 -0.7493 -2.0615  1.4541
   33MOL   H41027354   0.805   2.765   3.732  1.1339  1.5920 -0.4118
   33MOL   H41127355   0.860   2.655   3.454  1.1062 -0.9762 -0.6735
   33MOL   H41227356   0.706   2.691   3.507 -0.2844 -0.5774  0.0598
   33MOL   H41327357   0.740   2.502   3.703 -1.3325 -2.4342 -0.1344
   33MOL   H41427358   0.744   2.448   3.541 -0.3138  0.8395 -0.8649
   33MOL   H41527359   0.976   2.519   3.735  0.0447 -0.0626  0.8994
   33MOL   H41627360   1.014   2.487   3.568  1.6607 -0.7360  1.3846
   33MOL   H41727361   0.844   2.262   3.716 -0.5766  0.5159  2.2786
   33MOL   H41827362   0.943   2.264   3.587  2.2452  0.0630 -0.4874
   33MOL   H41927363   1.067   2.165   3.770  1.2172  0.2615 -1.8577
   33MOL   H42027364   1.052   2.311   3.859  1.6324  0.6918 -0.3097
   33MOL   H42127365   1.154   2.312   3.710 -0.9020  2.8343 -0.1074
   33MOL   C42227366   1.014   3.208   4.296  0.5756 -0.4264 -0.8320
   33MOL   C42327367   1.037   3.307   4.407  0.1404  0.0517 -0.3399
   33MOL   C42427368   1.103   3.439   4.357  0.3748 -0.1876 -0.6061
   33MOL   C42527369   1.022   3.520   4.259  0.0056 -0.2141  0.0834
   33MOL   C42627370   1.086   3.651   4.201 -0.7028  0.0569  0.2205
   33MOL   C42727371   0.979   3.759   4.180  0.6990 -0.7814 -0.1193
   33MOL   C42827372   1.017   3.882   4.096  0.6738  0.5512 -0.6703
   33MOL   C42927373   0.901   3.978   4.058  0.1246 -0.4757  0.8350
   33MOL   C43027374   0.926   4.127   4.049  0.9327 -0.0812 -0.8863
   33MOL   C43127375   1.015   4.197   4.156 -0.7478 -0.7064 -0.4545
   33MOL   C43227376   0.945   4.222   4.288  0.0904 -0.7708  0.3121
   33MOL   C43327377   1.037   4.310   4.380 -0.4580  0.2490 -0.4388
   33MOL   C43427378   0.967   4.348   4.510 -0.4032  0.2257 -0.7636
   33MOL   C43527379   1.062   4.429   4.610  0.5590 -0.3074 -0.4002
   33MOL   H43627380   0.971   3.114   4.332 -0.1495  0.0772 -0.3600
   33MOL   H43727381   0.935   3.244   4.229  0.7885 -0.0165 -0.8591
   33MOL   H43827382   1.122   3.271   4.464 -0.4032 -0.9062 -0.1211
   33MOL   H43927383   1.196   3.431   4.300  0.4709 -0.1855 -0.4491
   33MOL   H44027384   1.130   3.493   4.448  0.0531 -0.6672 -0.2243
   33MOL   H44127385   0.997   3.462   4.170 -1.4279  0.0685  0.2896
   33MOL   H44227386   0.925   3.543   4.304 -0.5778  1.4389 -1.9450
   33MOL   H44327387   1.124   3.624   4.103 -2.3138 -0.1602 -0.3605
   33MOL   H44427388   1.169   3.691   4.260 -2.1036  0.9172  1.6577
   33MOL   H44527389   0.952   3.796   4.279 -1.4782  0.7970 -1.2703
   33MOL   H44627390   0.890   3.710   4.143  0.4515  0.2167 -0.8594
   33MOL   H44727391   1.098   3.937   4.142  1.2386  0.9295 -2.1124
   33MOL   H44827392   1.062   3.843   4.005  0.1733 -1.5048 -0.0720
   33MOL   H44927393   0.844   3.945   3.971  0.7401 -1.3959  0.7675
   33MOL   H45027394   0.830   3.968   4.140 -1.7927  0.4054 -0.7059
   33MOL   H45127395   0.977   4.129   3.953  1.2495 -1.0404 -0.7374
   33MOL   H45227396   0.833   4.181   4.029  1.2654  0.6714 -0.4513
   33MOL   H45327397   1.112   4.149   4.174 -0.1253  0.1759 -1.3583
   33MOL   H45427398   1.039   4.297   4.119  1.7409 -1.2611 -0.4460
   33MOL   H45527399   0.857   4.281   4.263 -1.7503 -2.3363  2.8496
   33MOL   H45627400   0.910   4.135   4.344 -1.6846 -0.0414  0.3891
   33MOL   H45727401   1.047   4.407   4.331 -0.5369  0.4249 -0.1023
   33MOL   H45827402   1.133   4.261   4.399 -0.3024  1.2406  1.4115
   33MOL   H45927403   0.866   4.383   4.490 -0.7404 -0.0761  0.3849
   33MOL   H46027404   0.948   4.260   4.572 -1.9470  1.3274  0.3648
   33MOL   H46127405   1.089   4.526   4.568  0.4162 -1.0786 -2.3579
   33MOL   H46227406   1.153   4.369   4.614  0.6254 -0.4273 -2.8289
   33MOL   H46327407   1.023   4.446   4.710 -0.3724 -2.0199 -0.4341
   33MOL   C46427408   0.913   3.330   4.502 -1.0407  0.1296 -0.1459
   33MOL   C46527409   0.846   3.202   4.568  0.0844 -0.4181  0.1517
   33MOL   C46627410   0.959   3.103   4.622 -0.0406 -0.0013  0.4816
   33MOL   C46727411   1.015   3.135   4.763 -0.1278  0.3751 -0.1892
   33MOL   C46827412   1.119   3.030   4.806  0.2959 -0.7026 -0.4255
   33MOL   C46927413   1.262   3.051   4.752  0.2426 -0.0652 -0.1621
   33MOL   C47027414   1.379   3.009   4.848  0.7437 -0.0177 -0.6064
   33MOL   C47127415   1.377   3.085   4.982  1.0148 -0.5847 -0.0564
   33MOL   C47227416   1.502   3.060   5.063  0.3524  0.3529 -0.5553
   33MOL   C47327417   1.485   3.134   5.197 -1.3018  0.2514  0.4185
   33MOL   C47427418   1.609   3.106   5.287 -0.3487 -0.5309 -0.1891
   33MOL   C47527419   1.736   3.171   5.228  0.2767 -0.3162 -0.7043
   33MOL   C47627420   1.849   3.169   5.328 -0.1719 -0.8715 -0.2018
   33MOL   C47727421   1.985   3.224   5.287 -0.0829 -0.0816 -0.4958
   33MOL   H47827422   0.836   3.369   4.437  0.2585  2.5119 -0.3032
   33MOL   H47927423   0.943   3.413   4.566 -0.6386  0.1210 -0.3186
   33MOL   H48027424   0.790   3.145   4.494 -0.5514  0.4354 -0.0320
   33MOL   H48127425   0.904   3.010   4.639 -0.5230  0.0081 -0.9135
   33MOL   H48227426   1.031   3.074   4.546 -0.1334  0.1107  0.3494
   33MOL   H48327427   0.935   3.122   4.836  0.1404 -0.0202  0.0364
   33MOL   H48427428   1.036   3.241   4.776  1.6846  0.0750 -0.4397
   33MOL   H48527429   1.080   2.929   4.794 -0.1453 -0.5184 -0.5635
   33MOL   H48627430   1.116   3.034   4.915  1.5113 -0.4668 -0.3959
   33MOL   H48727431   1.270   2.989   4.663  0.5619 -1.2351  0.6691
   33MOL   H48827432   1.281   3.157   4.732  0.9532 -0.1476  0.0374
   33MOL   H48927433   1.390   2.901   4.854  0.0008 -0.1618 -1.7340
   33MOL   H49027434   1.467   3.052   4.800  1.4173 -1.1792 -0.4200
   33MOL   H49127435   1.379   3.190   4.954  0.5220 -0.4095  0.5715
   33MOL   H49227436   1.287   3.071   5.041  0.5952  2.9283  0.2039
   33MOL   H49327437   1.520   2.954   5.078 -1.4686  0.0134 -0.6203
   33MOL   H49427438   1.586   3.098   5.004  1.6235 -1.4559  0.0603
   33MOL   H49527439   1.477   3.242   5.188  2.3752  0.4315 -1.2686
   33MOL   H49627440   1.404   3.083   5.250  0.0725 -0.6239  1.7287
   33MOL   H49727441   1.589   3.159   5.380  0.0682 -0.9436  0.1427
   33MOL   H49827442   1.617   2.998   5.306 -0.5436 -0.3190  1.1759
   33MOL   H49927443   1.728   3.270   5.184 -0.8227 -0.6347 -1.2420
   33MOL   H50027444   1.768   3.109   5.145 -1.5127 -1.0578 -0.8794
   33MOL   H50127445   1.822   3.213   5.425  2.0958  0.3405 -0.0968
   33MOL   H50227446   1.859   3.063   5.352  0.6587 -0.2783  2.2097
   33MOL   H50327447   1.977   3.327   5.254 -1.1430 -0.2424 -0.7424
   33MOL   H50427448   2.056   3.214   5.370 -0.0072 -1.4366 -0.7076
   33MOL   H50527449   2.027   3.166   5.204  2.7433 -0.7171  1.3051
   33MOL   C50627450   0.736   3.241   4.675 -0.4059  0.6197  0.2488
   33MOL   C50727451   0.634   3.352   4.644 -0.7540 -0.1263 -0.3083
   33MOL   C50827452   0.562   3.330   4.505  0.6902 -0.1530 -0.3682
   33MOL   C50927453   0.493   3.463   4.449 -0.6187  1.0282  0.4347
   33MOL   C51027454   0.595   3.565   4.398 -0.7527  0.1956  0.1759
   33MOL   C51127455   0.524   3.691   4.366 -1.1017 -0.8480 -0.7509
   33MOL   C51227456   0.619   3.793   4.311  0.5403  0.2916 -0.8721
   33MOL   C51327457   0.590   3.932   4.359 -0.2170  0.9556  0.2190
   33MOL   C51427458   0.624   3.964   4.503 -0.2473 -0.1232  0.6276
   33MOL   C51527459   0.605   4.111   4.551 -0.2118 -0.7095 -0.1263
   33MOL   C51627460   0.687   4.139   4.674 -0.6975  0.1371  0.4857
   33MOL   C51727461   0.659   4.281   4.733  0.1375 -0.1260  0.9732
   33MOL   C51827462   0.728   4.313   4.866  0.3594  0.8412  0.5460
   33MOL   C51927463   0.693   4.443   4.921 -0.1495 -0.0592  0.1990
   33MOL   H52027464   0.790   3.273   4.764  0.1611  0.4463 -0.0379
   33MOL   H52127465   0.675   3.155   4.704  0.7374  0.5088  2.4140
   33MOL   H52227466   0.684   3.449   4.646 -0.8996 -0.0565  0.0668
   33MOL   H52327467   0.622   3.273   4.433 -1.7722 -0.1148 -2.5295
   33MOL   H52427468   0.489   3.256   4.538  0.4888  0.0943 -0.2570
   33MOL   H52527469   0.411   3.450   4.379  0.9997 -0.6532 -1.1908
   33MOL   H52627470   0.442   3.507   4.535 -1.5616  0.1106  0.3548
   33MOL   H52727471   0.641   3.512   4.315 -0.3317 -1.0413  1.1738
   33MOL   H52827472   0.675   3.579   4.470  0.4415  1.1195 -1.3065
   33MOL   H52927473   0.496   3.731   4.464 -1.0879 -0.0003 -1.0827
   33MOL   H53027474   0.428   3.676   4.317 -1.8052  0.9341  0.0190
   33MOL   H53127475   0.720   3.764   4.340 -0.8322 -2.4014  1.4678
   33MOL   H53227476   0.614   3.794   4.202  0.4307  0.7413 -0.8653
   33MOL   H53327477   0.484   3.960   4.354 -0.8767 -1.0961  2.2835
   33MOL   H53427478   0.640   4.004   4.294  1.4691  0.7470  1.2627
   33MOL   H53527479   0.728   3.945   4.529 -0.7740 -0.6883  2.4267
   33MOL   H53627480   0.570   3.905   4.578  2.7219 -0.4094  2.6288
   33MOL   H53727481   0.655   4.168   4.472 -1.5271 -2.8901 -2.6174
   33MOL   H53827482   0.498   4.132   4.559 -0.0026  0.6248 -0.6137
   33MOL   H53927483   0.650   4.072   4.751  1.8243 -0.8548  0.8822
   33MOL   H54027484   0.795   4.127   4.664 -0.0442  4.3369  1.7006
   33MOL   H54127485   0.552   4.303   4.741  0.2377  0.7224  0.0052
   33MOL   H54227486   0.693   4.357   4.663 -2.9176  0.2069 -0.2167
   33MOL   H54327487   0.837   4.312   4.856  0.3516  3.9714 -0.2568
   33MOL   H54427488   0.715   4.240   4.945 -1.3624 -1.9099 -2.1397
   33MOL   H54527489   0.732   4.462   5.022  1.1948  1.0495 -0.4989
   33MOL   H54627490   0.734   4.522   4.857 -1.4018  0.2678 -0.2005
   33MOL   H54727491   0.587   4.468   4.919 -0.1211  0.1408  0.8957
   33MOL   C54827492   0.522   3.354   4.757 -0.4100 -0.1617 -0.8218
   33MOL   C54927493   0.578   3.416   4.883 -0.2022  0.6622  0.2057
   33MOL   C55027494   0.587   3.569   4.872  0.0244 -0.3632 -0.3178
   33MOL   C55127495   0.730   3.623   4.912 -0.2052  0.1163 -0.0449
   33MOL   C55227496   0.740   3.779   4.930 -0.4588  0.8075  0.2282
   33MOL   C55327497   0.874   3.822   4.986  0.0537 -0.3833  0.4950
   33MOL   C55427498   0.893   3.974   5.006  0.4878  0.0050 -0.2495
   33MOL   C55527499   1.022   4.011   5.069 -0.4993  0.7446  0.2621
   33MOL   C55627500   1.041   4.159   5.078 -0.1449 -0.2446 -0.0775
   33MOL   C55727501   1.158   4.194   5.166 -1.3442  0.4089 -0.6747
   33MOL   C55827502   1.287   4.113   5.131  0.4042 -0.2321 -0.4115
   33MOL   C55927503   1.406   4.144   5.232  0.1338  0.6092 -0.2951
   33MOL   C56027504   1.532   4.056   5.226  0.1319  0.2089 -0.4105
   33MOL   C56127505   1.607   4.078   5.092 -0.1437 -0.0437  0.6774
   33MOL   H56227506   0.435   3.413   4.730  1.7865  3.4933 -0.3435
   33MOL   H56327507   0.488   3.253   4.778 -0.6957  0.2100  0.5542
   33MOL   H56427508   0.683   3.387   4.893  0.7203  3.1616 -1.7350
   33MOL   H56527509   0.548   3.599   4.774  0.1496 -0.7125 -0.4744
   33MOL   H56627510   0.527   3.625   4.944 -1.7843 -0.4071 -1.7521
   33MOL   H56727511   0.803   3.592   4.836 -0.2349 -0.8770  0.3308
   33MOL   H56827512   0.755   3.567   5.001  1.4325  0.6859 -0.1239
   33MOL   H56927513   0.719   3.826   4.834 -0.2981 -0.1620 -0.2852
   33MOL   H57027514   0.662   3.804   5.002 -0.2070 -1.0416  1.1744
   33MOL   H57127515   0.955   3.786   4.923 -0.3298 -0.5138  0.0693
   33MOL   H57227516   0.897   3.758   5.072  0.0879 -0.4889  0.4067
   33MOL   H57327517   0.891   4.024   4.909 -0.1163 -0.2234 -0.3568
   33MOL   H57427518   0.808   4.019   5.057 -0.1084 -0.0266 -1.1990
   33MOL   H57527519   1.093   3.962   5.003 -2.4707 -2.0922  0.1861
   33MOL   H57627520   1.028   3.962   5.166  2.2366 -0.7965 -0.6304
   33MOL   H57727521   0.956   4.212   5.120 -0.3337 -1.9052  1.6889
   33MOL   H57827522   1.061   4.197   4.977 -0.1608  0.0557  0.0319
   33MOL   H57927523   1.181   4.301   5.164  1.5311 -0.1248  0.8081
   33MOL   H58027524   1.142   4.173   5.272  1.0588 -1.1010 -0.5878
   33MOL   H58127525   1.318   4.142   5.031  0.6882 -0.2853 -0.3401
   33MOL   H58227526   1.277   4.005   5.141  1.7408 -0.2346  1.2875
   33MOL   H58327527   1.442   4.247   5.225  0.0476  0.6722  0.2096
   33MOL   H58427528   1.358   4.143   5.330 -0.1493  2.4045 -0.3838
   33MOL   H58527529   1.600   4.071   5.310  2.0754 -2.8418 -1.3828
   33MOL   H58627530   1.495   3.956   5.246  0.3889 -0.3739 -2.6927
   33MOL   H58727531   1.636   4.179   5.065  2.3026 -1.0284 -0.5279
   33MOL   H58827532   1.686   4.003   5.086 -0.6510 -0.8070  2.9940
   33MOL   H58927533   1.548   4.040   5.009 -0.1618  1.3471  0.0430
   33MOL   C59027534   0.503   3.379   5.014  0.3943  0.2971 -0.1154
   33MOL   C59127535   0.530   3.240   5.054 -0.0949  0.0378 -0.2176
   33MOL   C59227536   0.668   3.221   5.117  0.4589  0.5999 -0.1112
   33MOL   C59327537   0.722   3.075   5.103  0.1153  0.0412 -0.2541
   33MOL   C59427538   0.878   3.059   5.127 -0.0027  0.2408 -0.3910
   33MOL   C59527539   0.908   3.075   5.276 -0.2538 -0.7495  0.4075
   33MOL   C59627540   1.045   3.028   5.326 -0.2167  0.4434  0.4310
   33MOL   C59727541   1.069   3.053   5.479 -0.1774  0.1661 -0.8979
   33MOL   C59827542   1.203   2.987   5.526  0.5946  0.1304  0.2409
   33MOL   C59927543   1.220   3.009   5.683  0.3172 -0.3284 -0.2633
   33MOL   C60027544   1.342   2.943   5.749 -0.8015  0.0036 -0.4924
   33MOL   C60127545   1.342   2.960   5.902  0.0621 -0.6214 -0.2814
   33MOL   C60227546   1.474   2.932   5.979 -0.2096 -0.3935 -0.1280
   33MOL   C60327547   1.463   2.941   6.132 -1.1221  0.6700 -0.2350
   33MOL   H60427548   0.396   3.390   4.996 -0.0389 -4.1151 -0.8034
   33MOL   H60527549   0.522   3.455   5.090  0.4893  1.0885 -0.9224
   33MOL   H60627550   0.526   3.176   4.966  1.8358 -1.2983  0.6338
   33MOL   H60727551   0.646   3.237   5.223 -3.2342 -0.6149 -0.6418
   33MOL   H60827552   0.740   3.296   5.085 -0.1694  1.0623 -0.4385
   33MOL   H60927553   0.705   3.044   4.999  0.7302  0.3518 -0.4539
   33MOL   H61027554   0.665   3.010   5.169 -5.0867  2.0747 -2.4620
   33MOL   H61127555   0.934   3.139   5.078 -1.1790  2.0328  1.1390
   33MOL   H61227556   0.906   2.960   5.091  0.8777  0.0236  0.8566
   33MOL   H61327557   0.828   3.038   5.341 -1.5302 -1.3433 -1.4710
   33MOL   H61427558   0.901   3.182   5.296  1.2100 -0.6920  0.6628
   33MOL   H61527559   1.053   2.921   5.306  0.6236  0.4036  0.9587
   33MOL   H61627560   1.124   3.080   5.272 -0.0393 -0.3501 -0.0808
   33MOL   H61727561   1.064   3.162   5.480 -0.5968  0.1445 -0.2359
   33MOL   H61827562   0.984   3.022   5.540 -0.8421  1.7284 -1.0268
   33MOL   H61927563   1.193   2.880   5.505  0.4328 -0.5735  3.6108
   33MOL   H62027564   1.283   3.022   5.461 -0.0545  3.3489  1.0902
   33MOL   H62127565   1.223   3.117   5.700  0.6111 -0.6393  1.7766
   33MOL   H62227566   1.128   2.974   5.728  0.7316 -0.5435  0.4286
   33MOL   H62327567   1.424   2.995   5.699 -1.7498  2.3400  0.3230
   33MOL   H62427568   1.333   2.838   5.720 -0.3925 -0.0650 -0.3853
   33MOL   H62527569   1.263   2.897   5.943 -0.9198 -0.2835 -1.6369
   33MOL   H62627570   1.309   3.060   5.927  1.0140 -0.4800  0.4415
   33MOL   H62727571   1.511   2.834   5.948 -1.4616 -1.0925  0.5432
   33MOL   H62827572   1.558   2.992   5.943 -0.7956 -0.6271 -1.9431
   33MOL   H62927573   1.403   2.857   6.169 -0.0275 -0.1950 -0.3820
   33MOL   H63027574   1.438   3.039   6.171 -0.8460  0.4004  0.6264
   33MOL   H63127575   1.562   2.918   6.172 -1.3406 -0.8036 -0.4840
   33MOL   C63227576   0.414   3.188   5.141  0.1559  0.2021 -0.1520
   33MOL   C63327577   0.288   3.123   5.065 -0.3460 -0.7380 -0.1624
   33MOL   C63427578   0.325   2.973   5.031 -0.3117 -0.5229 -0.0398
   33MOL   C63527579   0.273   2.943   4.890  0.4752  0.2437  1.3400
   33MOL   C63627580   0.267   2.787   4.863 -0.2870  0.0193  0.5176
   33MOL   C63727581   0.164   2.708   4.949 -0.2670 -0.9818 -0.2982
   33MOL   C63827582   0.167   2.556   4.961  0.1091  0.6284 -0.1006
   33MOL   C63927583   0.060   2.479   5.044  0.6655 -0.1723  0.8740
   33MOL   C64027584   0.059   2.523   5.186  0.8728  0.7063 -0.4254
   33MOL   C64127585   7.654   2.464   5.278  0.1670 -0.4414 -0.2273
   33MOL   C64227586   7.685   2.326   5.327  0.2545  0.2004  1.2093
   33MOL   C64327587   7.575   2.288   5.437  0.1904  0.5550 -0.0239
   33MOL   C64427588   7.443   2.237   5.378 -0.1277  0.1429  0.6380
   33MOL   C64527589   7.357   2.175   5.484  0.3128  0.3160 -0.2242
   33MOL   H64627590   0.383   3.270   5.207 -1.5049  1.1027 -1.9973
   33MOL   H64727591   0.456   3.126   5.220  0.8568  0.7172 -0.1166
   33MOL   H64827592   0.276   3.185   4.976  2.5152  1.7859  1.1352
   33MOL   H64927593   0.433   2.966   5.022 -0.1928  0.6421  0.3519
   33MOL   H65027594   0.298   2.903   5.110 -0.8975 -0.3172 -0.0538
   33MOL   H65127595   0.340   2.999   4.824 -1.5269  1.1595  0.0634
   33MOL   H65227596   0.180   2.996   4.873  1.8352  2.8480  1.6633
   33MOL   H65327597   0.371   2.758   4.877 -0.6427 -0.5017  2.1284
   33MOL   H65427598   0.254   2.756   4.759 -0.2361  0.4937  0.3680
   33MOL   H65527599   0.186   2.752   5.046 -1.1383  1.3277 -1.1027
   33MOL   H65627600   0.068   2.746   4.915 -0.3828  1.6037  2.7221
   33MOL   H65727601   0.147   2.526   4.858  1.2132 -0.7928  0.0768
   33MOL   H65827602   0.272   2.532   4.977 -0.3051 -0.5781  0.9056
   33MOL   H65927603   0.064   2.371   5.027  0.4756 -0.0895  0.2768
   33MOL   H66027604   7.659   2.504   4.998 -0.1497 -2.9064  1.0060
   33MOL   H66127605   0.052   2.632   5.183  0.3588  0.6311 -3.8106
   33MOL   H66227606   0.155   2.492   5.229  0.6942 -1.4627 -1.5544
   33MOL   H66327607   7.647   2.534   5.361 -1.4911 -0.4973 -0.3002
   33MOL   H66427608   7.557   2.467   5.228 -0.9310  3.0554  1.9377
   33MOL   H66527609   7.680   2.259   5.241  1.3013 -1.6362  2.5436
   33MOL   H66627610   0.088   2.324   5.374  2.4007  2.1244 -2.8827
   33MOL   H66727611   7.557   2.368   5.509 -1.4356 -0.5018  0.7735
   33MOL   H66827612   7.623   2.205   5.489  4.6264  1.9541 -1.5935
   33MOL   H66927613   7.454   2.163   5.299 -0.7324 -0.7499  1.3845
   33MOL   H67027614   7.388   2.313   5.323  0.6549 -1.4728 -2.4530
   33MOL   H67127615   7.406   2.081   5.512 -0.0484  0.1431 -0.1608
   33MOL   H67227616   7.346   2.244   5.568  0.9946  0.9836 -0.6802
   33MOL   H67327617   7.254   2.153   5.456  0.5704 -1.4773  0.1596
   33MOL   C67427618   0.169   3.144   5.157 -0.0204  0.4185 -0.1018
   33MOL   C67527619   0.029   3.083   5.117 -0.3372 -0.4639  0.5000
   33MOL   C67627620   7.640   3.066   5.240  0.1258 -0.3103 -0.5241
   33MOL   C67727621   7.601   3.186   5.310 -0.6469 -0.4249  0.0119
   33MOL   C67827622   7.528   3.171   5.444  0.4172 -0.2018  0.1293
   33MOL   C67927623   7.450   3.309   5.476  0.0685 -0.2708 -0.3108
   33MOL   C68027624   7.537   3.398   5.561 -0.0419 -0.1608 -0.0285
   33MOL   C68127625   7.477   3.546   5.582  0.5520 -0.2480  0.2168
   33MOL   C68227626   7.583   3.650   5.620 -0.0739 -0.3643  0.3843
   33MOL   C68327627   7.526   3.786   5.665  0.4254  0.0225  1.1626
   33MOL   C68427628   7.639   3.891   5.666  0.0333 -0.5349  0.1835
   33MOL   C68527629   7.611   4.035   5.731  0.3161  0.7859  0.3580
   33MOL   C68627630   0.024   4.141   5.723  0.3973  0.1703 -1.0158
   33MOL   C68727631   7.668   4.269   5.779 -0.8186  0.2235  0.1544
   33MOL   H68827632   0.161   3.247   5.191 -0.7265  0.1616  0.5313
   33MOL   H68927633   0.192   3.101   5.254  1.5099  3.0264  0.7370
   33MOL   H69027634   0.041   2.980   5.082  0.4286  0.2200 -1.2945
   33MOL   H69127635   7.553   3.002   5.222 -0.2181 -0.4680  1.4973
   33MOL   H69227636   7.693   3.000   5.309 -1.2605  1.3163  2.2063
   33MOL   H69327637   7.692   3.240   5.336 -1.0580  0.1574  0.2591
   33MOL   H69427638   7.541   3.250   5.246 -0.7985  0.5034  1.0684
   33MOL   H69527639   7.452   3.095   5.424  1.7387 -2.0497  1.9786
   33MOL   H69627640   7.582   3.140   5.533 -1.0382  2.7563  2.1495
   33MOL   H69727641   7.427   3.363   5.385  0.9446 -0.2789 -0.5426
   33MOL   H69827642   7.359   3.285   5.531  0.5025  2.2638  1.6288
   33MOL   H69927643   7.548   3.357   5.661  0.2309  0.6327  0.2780
   33MOL   H70027644   7.640   3.394   5.527  0.1961  0.6817  0.5776
   33MOL   H70127645   7.424   3.584   5.495  0.2838 -2.7818 -0.7676
   33MOL   H70227646   7.403   3.558   5.661 -2.0221  0.6993 -2.2956
   33MOL   H70327647   7.660   3.628   5.694 -0.0913  0.5694  0.6886
   33MOL   H70427648   7.647   3.665   5.533  1.8452  1.3827  2.0469
   33MOL   H70527649   7.480   3.781   5.763 -2.1712  2.4442  0.1539
   33MOL   H70627650   7.449   3.833   5.603  2.0377  2.4253  0.9031
   33MOL   H70727651   7.667   3.900   5.561 -0.5456 -0.1178  0.0598
   33MOL   H70827652   0.030   3.855   5.721  0.9284  1.2290 -0.0390
   33MOL   H70927653   7.572   4.022   5.832 -2.9113  0.0364 -0.9050
   33MOL   H71027654   7.525   4.068   5.674 -1.1150 -0.9183  1.4699
   33MOL   H71127655   0.120   4.111   5.765  0.4422 -1.8734 -2.5304
   33MOL   H71227656   0.057   4.147   5.620  2.4769  0.4741 -0.3687
   33MOL   H71327657   7.584   4.319   5.731 -0.1806  0.8372 -0.3312
   33MOL   H71427658   7.647   4.255   5.885  1.7983 -2.1076  0.4600
   33MOL   H71527659   0.052   4.342   5.789 -2.5094  1.8259  2.0927
   33MOL   C71627660   7.655   3.163   5.001  0.3669  0.0433 -0.5619
   33MOL   C71727661   7.536   3.099   4.942  0.3806 -0.8295 -0.1393
   33MOL   C71827662   7.450   3.214   4.876  0.4003  0.7642  0.4554
   33MOL   C71927663   7.379   3.317   4.976  0.0515  1.1094  0.0471
   33MOL   C72027664   7.438   3.457   4.982  0.2830 -0.8252 -0.8040
   33MOL   C72127665   7.354   3.552   5.072  0.4642 -0.9120  0.2793
   33MOL   C72227666   7.423   3.684   5.107 -0.3347 -0.1401 -0.2046
   33MOL   C72327667   7.344   3.770   5.200  0.4942  0.5055  0.4291
   33MOL   C72427668   7.420   3.901   5.256 -0.0767 -0.0879  0.5746
   33MOL   C72527669   7.431   4.013   5.152  0.0725 -0.3005 -0.0777
   33MOL   C72627670   7.555   4.096   5.168 -0.3727 -0.5996  0.4991
   33MOL   C72727671   7.557   4.159   5.313  0.1786 -0.1482  1.0034
   33MOL   C72827672   7.664   4.262   5.340  0.3767  0.1499 -0.5904
   33MOL   C72927673   0.103   4.210   5.306  0.6516 -0.3570 -0.1586
   33MOL   H73027674   7.630   3.260   5.045 -2.0265 -0.9590  0.3470
   33MOL   H73127675   0.026   3.191   4.919 -1.0154 -3.3502 -2.9615
   33MOL   H73227676   7.472   3.050   5.015 -0.1054  0.0890  0.0599
   33MOL   H73327677   7.384   3.171   4.801  1.0304  0.4437  0.0857
   33MOL   H73427678   7.507   3.275   4.805  0.4736  3.2958  2.6156
   33MOL   H73527679   7.278   3.331   4.937  1.2184  2.1639 -2.7381
   33MOL   H73627680   7.370   3.273   5.075 -0.3914  2.3413  0.5692
   33MOL   H73727681   7.537   3.442   5.026 -0.8029 -1.9152  1.3560
   33MOL   H73827682   7.455   3.498   4.883  0.9738  0.8135 -0.0310
   33MOL   H73927683   7.262   3.573   5.018  0.2111  0.6253  1.2812
   33MOL   H74027684   7.325   3.509   5.168  0.3677 -2.4684 -0.4408
   33MOL   H74127685   7.521   3.667   5.152 -0.4531 -1.0950 -0.2934
   33MOL   H74227686   7.439   3.734   5.011 -0.0668 -1.1911 -0.7193
   33MOL   H74327687   7.315   3.712   5.288  0.0202  0.0466 -0.0269
   33MOL   H74427688   7.248   3.798   5.157  1.9015  1.5253 -2.1122
   33MOL   H74527689   7.363   3.937   5.343 -1.9347 -2.6506  0.4883
   33MOL   H74627690   7.522   3.877   5.286  0.8135  1.3389 -1.2534
   33MOL   H74727691   7.425   3.972   5.052 -1.9466  0.8200 -0.4504
   33MOL   H74827692   7.339   4.071   5.160 -0.6499 -1.6389  1.5617
   33MOL   H74927693   7.645   4.039   5.145  0.0606 -0.0078  0.7312
   33MOL   H75027694   7.555   4.172   5.090  1.3023 -1.3441 -0.2507
   33MOL   H75127695   7.461   4.209   5.327  0.7699  1.7834 -1.4393
   33MOL   H75227696   7.564   4.078   5.386 -1.4278 -0.1887  1.1301
   33MOL   H75327697   7.651   4.298   5.443 -0.2643 -3.1003  0.5209
   33MOL   H75427698   7.652   4.349   5.276  0.3240  0.0840 -0.6693
   33MOL   H75527699   0.186   4.278   5.328  0.3422  0.0099 -0.1240
   33MOL   H75627700   0.114   4.190   5.200  2.5155 -2.5103  0.4052
   33MOL   H75727701   0.120   4.111   5.348 -1.5184 -1.1604 -1.1366
   33MOL   C75827702   7.579   2.994   4.838  0.1841 -0.4486 -0.4282
   33MOL   C75927703   7.471   2.893   4.800 -0.0027  0.2355  0.2799
   33MOL   C76027704   7.478   2.872   4.648 -0.5824  0.1395 -0.0997
   33MOL   C76127705   7.613   2.828   4.600 -0.4169 -1.0890  0.6833
   33MOL   C76227706   7.619   2.812   4.447 -1.1982  0.4733  0.2254
   33MOL   C76327707   0.050   2.738   4.396  0.1411  0.5418  0.4467
   33MOL   C76427708   0.060   2.699   4.247  0.4824  0.5452  0.0362
   33MOL   C76527709   0.188   2.625   4.208  0.7632 -0.3845 -0.4974
   33MOL   C76627710   0.222   2.606   4.061  0.8330 -1.0019  0.0800
   33MOL   C76727711   0.354   2.536   4.051 -0.3635 -0.2498 -0.0726
   33MOL   C76827712   0.384   2.517   3.905  0.1261  0.8051  0.1112
   33MOL   C76927713   0.505   2.433   3.868  0.0286 -0.4102 -0.2289
   33MOL   C77027714   0.494   2.275   3.888 -0.7029  0.0773 -0.1951
   33MOL   C77127715   0.427   2.211   3.765 -0.0253 -0.2949  0.4589
   33MOL   H77227716   7.601   3.057   4.751  2.2482 -0.6506 -0.0912
   33MOL   H77327717   7.666   2.930   4.852  0.9600  0.2810 -1.7383
   33MOL   H77427718   7.376   2.945   4.809  0.0556  0.3976 -0.0248
   33MOL   H77527719   7.402   2.802   4.614  0.0912  0.0640 -1.4618
   33MOL   H77627720   7.451   2.964   4.596  0.0017 -0.3118 -1.2100
   33MOL   H77727721   7.687   2.906   4.620 -1.8695  0.3312  0.5611
   33MOL   H77827722   7.645   2.738   4.653  2.3878 -1.0433 -0.8368
   33MOL   H77927723   7.611   2.913   4.406 -2.0406  0.7736  1.0905
   33MOL   H78027724   7.533   2.752   4.416 -1.0501  0.0322  0.6716
   33MOL   H78127725   0.051   2.653   4.464 -0.4383  0.4071  0.2870
   33MOL   H78227726   0.137   2.792   4.435  0.7036 -0.4533  0.5779
   33MOL   H78327727   7.668   2.640   4.222 -0.6239  1.9236  0.5840
   33MOL   H78427728   0.051   2.799   4.205  1.5806  1.0079  0.8606
   33MOL   H78527729   0.179   2.532   4.264 -1.7117  0.1307  0.0113
   33MOL   H78627730   0.270   2.668   4.265 -0.0265 -1.0072  1.1364
   33MOL   H78727731   0.235   2.709   4.030 -0.2066 -1.4127 -1.7801
   33MOL   H78827732   0.142   2.566   3.999  0.2061 -0.0082  0.2400
   33MOL   H78927733   0.348   2.439   4.101  1.1273 -0.4185 -0.1960
   33MOL   H79027734   0.432   2.594   4.100 -0.0901 -0.4496 -0.2727
   33MOL   H79127735   0.296   2.476   3.856  0.2508  0.5403  0.1101
   33MOL   H79227736   0.410   2.615   3.865  1.7877 -1.2378 -4.0752
   33MOL   H79327737   0.541   2.449   3.766  1.1140 -0.2088  0.1835
   33MOL   H79427738   0.584   2.458   3.939 -1.2426 -1.8423  1.7282
   33MOL   H79527739   0.597   2.243   3.904  0.5969  3.5005 -1.1662
   33MOL   H79627740   0.434   2.243   3.973 -1.7105  1.3838 -0.4030
   33MOL   H79727741   0.335   2.263   3.737 -0.3926 -0.0357  2.0822
   33MOL   H79827742   0.486   2.225   3.675 -1.4183  2.5931 -0.0527
   33MOL   H79927743   0.404   2.106   3.782  0.2440  0.1116  3.7310
   33MOL   C80027744   7.456   2.768   4.885  0.2779  0.9891 -0.4499
   33MOL   C80127745   7.320   2.705   4.879  0.3442 -0.3647  0.6572
   33MOL   C80227746   7.287   2.596   4.984  0.3948  0.3687  0.0661
   33MOL   C80327747   7.258   2.651   5.125  0.6568  0.7712 -1.0552
   33MOL   C80427748   7.210   2.540   5.223 -0.0434  0.3682 -0.0817
   33MOL   C80527749   7.217   2.591   5.373 -0.2368  0.8253  0.3834
   33MOL   C80627750   7.130   2.498   5.463  0.6400  0.2565 -0.1884
   33MOL   C80727751   6.980   2.506   5.444 -0.7247  0.2233 -0.2727
   33MOL   C80827752   6.910   2.606   5.538 -0.5572  0.0719 -0.3309
   33MOL   C80927753   6.887   2.749   5.477  0.3278  0.8444 -1.1611
   33MOL   C81027754   6.863   2.856   5.593  0.2718  0.6068  0.1294
   33MOL   C81127755   6.827   2.993   5.538 -0.1444  0.3787  0.2389
   33MOL   C81227756   6.774   3.091   5.644 -0.2669 -0.7817 -0.6103
   33MOL   C81327757   6.707   3.217   5.582  0.3899 -0.3713 -0.0656
   33MOL   H81427758   7.480   2.801   4.986  3.1082 -3.5148  0.4900
   33MOL   H81527759   7.524   2.692   4.847  0.9064  0.4895  1.6166
   33MOL   H81627760   7.318   2.665   4.778 -0.8011 -0.3658  0.6770
   33MOL   H81727761   7.367   2.522   4.992 -1.2201 -1.2370  2.0370
   33MOL   H81827762   7.203   2.535   4.951  1.2714 -0.0846 -1.3206
   33MOL   H81927763   7.179   2.726   5.124 -0.1833 -0.0966 -0.9804
   33MOL   H82027764   7.346   2.699   5.167  1.2311 -1.9468  1.0202
   33MOL   H82127765   7.112   2.504   5.190 -0.3404  0.8535  0.2605
   33MOL   H82227766   7.279   2.456   5.216  1.0717  1.3230 -0.5536
   33MOL   H82327767   7.172   2.691   5.377 -1.7936  0.2848 -2.3652
   33MOL   H82427768   7.318   2.589   5.413  0.3071  0.2125 -1.0183
   33MOL   H82527769   7.156   2.397   5.431  1.6728  0.1997  0.7898
   33MOL   H82627770   7.162   2.509   5.567  2.5076  2.2669 -0.9368
   33MOL   H82727771   6.957   2.510   5.338 -0.3692  1.4108 -0.3090
   33MOL   H82827772   6.952   2.404   5.472 -0.1980  0.1979  0.1794
   33MOL   H82927773   6.815   2.565   5.573 -0.9587  0.5746 -0.8387
   33MOL   H83027774   6.969   2.619   5.629 -2.2077  0.1849  0.7454
   33MOL   H83127775   6.809   2.751   5.401 -1.9960  1.1474  1.1374
   33MOL   H83227776   6.977   2.775   5.422  0.4482 -0.6356 -1.6794
   33MOL   H83327777   6.775   2.822   5.647 -0.4944  1.6979 -0.4358
   33MOL   H83427778   6.946   2.860   5.664  1.0094 -1.3433 -0.5677
   33MOL   H83527779   6.738   2.980   5.476 -0.0735 -1.6645  0.5306
   33MOL   H83627780   6.902   3.036   5.472  0.7886 -1.1649  0.2748
   33MOL   H83727781   6.697   3.036   5.698 -1.4274 -0.7017 -2.1592
   33MOL   H83827782   6.850   3.125   5.714  1.4464  0.3634 -2.9306
   33MOL   H83927783   6.782   3.260   5.516  0.0439 -1.0014 -0.8812
   33MOL   H84027784   6.622   3.183   5.523 -0.0694  3.2436 -1.6267
   33MOL   H84127785   6.675   3.298   5.648  0.2730 -0.5706  0.1249
   33MOL   H84227786   7.250   2.789   4.880  0.6495 -0.0938 -0.2972
   34MOL     C127787   3.867   1.186   1.215  0.4803  0.1849  0.5297
   34MOL     C227788   3.744   1.233   1.126  1.0402  0.0775  0.0598
   34MOL     C327789   3.799   1.322   1.007  0.2136  0.0947 -0.6622
   34MOL     C427790   3.688   1.383   0.918  0.1400 -0.2794 -0.6177
   34MOL     C527791   3.738   1.484   0.811  0.4451  0.2998 -0.3516
   34MOL     C627792   3.617   1.565   0.753  0.0941 -0.3455 -0.3995
   34MOL     C727793   3.673   1.679   0.660  0.0092  0.8048 -0.7749
   34MOL     C827794   3.572   1.791   0.645  0.1802 -0.2964  0.1465
   34MOL     C927795   3.612   1.887   0.533 -0.4174 -0.0047 -0.1307
   34MOL    C1027796   3.488   1.973   0.491 -0.5381 -0.4710 -0.1802
   34MOL    C1127797   3.541   2.058   0.374 -0.8280  0.0700  0.7250
   34MOL    C1227798   3.430   2.138   0.305  0.1616 -0.1642  0.7173
   34MOL    C1327799   3.406   2.276   0.370 -0.0678 -0.2445 -0.0391
   34MOL    C1427800   3.289   2.362   0.318 -0.0069  0.2761 -0.4936
   34MOL    H1527801   3.903   1.261   1.285 -0.4824  1.4302 -0.2770
   34MOL    H1627802   3.956   1.169   1.154  0.9821  1.9173  0.7698
   34MOL    H1727803   3.689   1.302   1.190  1.1587 -0.8897  1.2138
   34MOL    H1827804   3.864   1.399   1.049 -1.2680  1.2485 -0.4500
   34MOL    H1927805   3.862   1.271   0.934 -1.2726 -1.4720 -0.8899
   34MOL    H2027806   3.612   1.425   0.984 -0.0571 -0.8403 -0.4789
   34MOL    H2127807   3.638   1.300   0.867 -2.1303  1.2038 -0.8886
   34MOL    H2227808   3.781   1.425   0.730 -2.4122 -0.4970 -1.3523
   34MOL    H2327809   3.810   1.559   0.843  1.7628 -1.9318  2.1824
   34MOL    H2427810   3.566   1.615   0.834  0.8854 -0.8247  0.4075
   34MOL    H2527811   3.553   1.494   0.700  0.1542  0.1240 -1.1081
   34MOL    H2627812   3.766   1.717   0.701 -0.7436  1.9966 -0.1374
   34MOL    H2727813   3.697   1.645   0.560 -0.5053 -1.0794 -0.2916
   34MOL    H2827814   3.570   1.852   0.735 -0.6828  0.3643 -0.3193
   34MOL    H2927815   3.473   1.756   0.617  0.7094 -1.8070  0.0805
   34MOL    H3027816   3.697   1.945   0.567  1.1622 -2.0431 -0.5425
   34MOL    H3127817   3.661   1.828   0.455  0.2330 -0.7833  0.8562
   34MOL    H3227818   3.409   1.908   0.453  0.4769 -2.0440  0.3281
   34MOL    H3327819   3.449   2.031   0.575  0.9399 -0.0071  0.1943
   34MOL    H3427820   3.622   2.120   0.412 -2.2127  1.5154  1.4073
   34MOL    H3527821   3.586   1.991   0.301 -3.2822  0.3723 -1.1350
   34MOL    H3627822   3.340   2.078   0.286  0.7713 -1.0894  0.7241
   34MOL    H3727823   3.471   2.154   0.205 -0.5598 -0.5087  0.3515
   34MOL    H3827824   3.399   2.254   0.477 -0.2158  4.1560  0.9626
   34MOL    H3927825   3.497   2.336   0.363  0.4788 -1.2522 -1.7382
   34MOL    H4027826   3.201   2.299   0.303 -1.4966  1.7755  1.6537
   34MOL    H4127827   3.259   2.440   0.387  0.3737 -0.0736  0.0688
   34MOL    H4227828   3.320   2.406   0.223  0.6657  2.1093  0.5388
   34MOL    H4327829   3.859   1.090   1.266  1.8110  0.2520  0.8738
   34MOL    C4427830   3.649   1.117   1.090 -0.5390  0.0583  0.4353
   34MOL    C4527831   3.545   1.109   1.204 -0.4138 -0.3677 -0.1203
   34MOL    C4627832   3.475   0.971   1.208  0.5036 -0.3236  0.1852
   34MOL    C4727833   3.554   0.845   1.249 -0.7859 -0.4030 -0.1176
   34MOL    C4827834   3.463   0.721   1.279 -0.7790 -0.0025  0.2674
   34MOL    C4927835   3.549   0.598   1.306  0.0547 -0.1044  0.0836
   34MOL    C5027836   3.474   0.477   1.357 -0.0200 -0.2675  0.7011
   34MOL    C5127837   3.584   0.385   1.423 -0.0182  0.1726 -0.0476
   34MOL    C5227838   3.541   0.237   1.447 -0.0302  0.5045 -0.8399
   34MOL    C5327839   3.648   0.135   1.498 -0.4986  0.7641 -0.7344
   34MOL    C5427840   3.579   7.693   1.533  0.2341 -0.6991 -0.1028
   34MOL    C5527841   3.682   7.597   1.592  0.2686  0.6093 -0.0087
   34MOL    C5627842   3.643   7.446   1.593 -0.3868 -0.2499  0.5375
   34MOL    C5727843   3.547   7.403   1.702 -0.0036  0.5731 -0.9620
   34MOL    H5827844   3.596   1.140   0.998  1.3807  1.1759 -0.4235
   34MOL    H5927845   3.703   1.025   1.067 -0.4486 -0.0788  1.1808
   34MOL    H6027846   3.605   1.116   1.296  0.0649  0.7643 -0.5038
   34MOL    H6127847   3.402   0.985   1.288  1.5085  0.9442  0.8936
   34MOL    H6227848   3.422   0.958   1.113 -0.0575 -0.6815  0.5415
   34MOL    H6327849   3.612   0.874   1.336 -0.5065 -1.9975  0.2370
   34MOL    H6427850   3.614   0.820   1.161  0.1762 -1.1428  0.7469
   34MOL    H6527851   3.390   0.705   1.200  0.8961  0.4889 -1.4158
   34MOL    H6627852   3.396   0.746   1.362 -0.6289 -0.0024  0.3881
   34MOL    H6727853   3.586   0.560   1.211 -2.3556 -0.2374 -0.8403
   34MOL    H6827854   3.640   0.614   1.364  0.7896  0.4607 -1.2098
   34MOL    H6927855   3.395   0.507   1.425 -1.0120 -0.3380 -0.4149
   34MOL    H7027856   3.413   0.435   1.277 -0.5141  3.5383 -1.0497
   34MOL    H7127857   3.610   0.432   1.518 -1.6086  0.7222  0.1301
   34MOL    H7227858   3.672   0.389   1.360  0.0274  2.4199  0.1399
   34MOL    H7327859   3.449   0.240   1.506  1.4449 -0.8877  1.6443
   34MOL    H7427860   3.511   0.206   1.347 -0.8867  0.2776 -0.5186
   34MOL    H7527861   3.688   0.173   1.592  0.2383 -2.2043  0.1949
   34MOL    H7627862   3.728   0.125   1.424  0.6060  1.7334  0.3111
   34MOL    H7727863   3.530   7.653   1.444 -1.8119  1.5219 -0.0314
   34MOL    H7827864   3.498   0.017   1.604  0.0492 -0.7060 -0.3126
   34MOL    H7927865   3.774   7.596   1.533 -0.0975 -0.7200 -0.5618
   34MOL    H8027866   3.711   7.629   1.692  0.5342 -0.6780  0.3287
   34MOL    H8127867   3.728   7.384   1.622 -0.5170  0.1983  1.9038
   34MOL    H8227868   3.614   7.407   1.495 -1.4656 -1.7238  1.4178
   34MOL    H8327869   3.603   7.402   1.795 -1.4448  0.2492 -0.0976
   34MOL    H8427870   3.505   7.303   1.694  1.1897 -0.1466  1.3428
   34MOL    H8527871   3.453   7.458   1.698  0.4249  1.2565 -1.9788
   34MOL    C8627872   3.440   1.218   1.196 -0.7507  0.8274  0.1159
   34MOL    C8727873   3.344   1.240   1.313 -1.0486 -0.0070  0.1906
   34MOL    C8827874   3.258   1.363   1.304  0.1446 -1.2330 -0.4656
   34MOL    C8927875   3.174   1.380   1.177 -0.3413 -0.0911 -0.2399
   34MOL    C9027876   3.058   1.478   1.200 -0.3771  0.3303 -0.6483
   34MOL    C9127877   2.974   1.510   1.080  0.2360  1.0115  0.5757
   34MOL    C9227878   2.859   1.610   1.116  1.2970  0.1586  0.3374
   34MOL    C9327879   2.778   1.557   1.227 -0.0558  0.6515  0.2504
   34MOL    C9427880   2.634   1.621   1.228 -0.4582 -0.4454  0.1648
   34MOL    C9527881   2.548   1.573   1.345  0.2470  1.0071 -0.1881
   34MOL    C9627882   2.422   1.660   1.359 -0.4778  0.4439 -0.3119
   34MOL    C9727883   2.301   1.586   1.413 -1.4685 -0.1765  0.0020
   34MOL    C9827884   2.175   1.664   1.388 -0.0969  0.0078 -0.1104
   34MOL    C9927885   2.042   1.583   1.403 -0.6459  0.2418 -0.2036
   34MOL   H10027886   3.487   1.315   1.179 -0.7822  1.0853  1.4597
   34MOL   H10127887   3.391   1.190   1.103  0.1063  0.9054 -0.3678
   34MOL   H10227888   3.271   1.159   1.301 -0.5471 -0.3164 -0.8076
   34MOL   H10327889   3.196   1.368   1.394  0.8446 -1.5114  0.0420
   34MOL   H10427890   3.325   1.449   1.295  0.6642 -1.8863 -3.0991
   34MOL   H10527891   3.240   1.397   1.091 -1.2874  2.5541 -0.5021
   34MOL   H10627892   3.128   1.283   1.159  1.5996 -0.7435 -1.9884
   34MOL   H10727893   3.111   1.567   1.233 -0.1554 -0.5394  1.3780
   34MOL   H10827894   3.009   1.450   1.293 -0.4801  0.5034 -0.6515
   34MOL   H10927895   2.928   1.417   1.046 -0.3088  1.2429  0.6752
   34MOL   H11027896   3.036   1.550   0.999  1.7943  1.2622  1.8562
   34MOL   H11127897   2.896   1.703   1.158 -2.0467  2.5389 -1.7571
   34MOL   H11227898   2.806   1.650   1.030  0.7912  0.7934  0.9318
   34MOL   H11327899   2.831   1.562   1.323  2.5263 -3.6135 -0.7871
   34MOL   H11427900   2.767   1.451   1.204  1.0495  0.3859  0.9019
   34MOL   H11527901   2.654   1.728   1.234 -0.0193 -0.5198  0.0425
   34MOL   H11627902   2.591   1.597   1.131  0.6161 -0.8525 -0.2174
   34MOL   H11727903   2.601   1.585   1.440  0.2052  0.1120 -0.0441
   34MOL   H11827904   2.516   1.469   1.342  0.3480  0.9319  1.0919
   34MOL   H11927905   2.451   1.742   1.425  1.3902 -0.4804  0.0553
   34MOL   H12027906   2.399   1.712   1.266  0.2712  3.0333  0.9210
   34MOL   H12127907   2.277   1.491   1.365 -3.3965  0.2946 -0.0114
   34MOL   H12227908   2.300   1.542   1.512 -0.6191 -0.0353  0.0819
   34MOL   H12327909   2.179   1.713   1.291  0.7618 -0.5211 -0.3558
   34MOL   H12427910   2.185   1.743   1.461 -2.3214 -1.0566  1.3893
   34MOL   H12527911   2.032   1.549   1.507  4.0890 -1.1483 -0.0591
   34MOL   H12627912   1.963   1.650   1.368  0.7625  0.8307 -2.3459
   34MOL   H12727913   2.036   1.500   1.333  1.7749 -0.2893  0.1576
   34MOL   C12827914   3.397   1.227   1.454 -0.3412 -0.6582 -0.0787
   34MOL   C12927915   3.481   1.340   1.506 -0.1679  0.1726 -0.2192
   34MOL   C13027916   3.415   1.443   1.600  0.2484  0.4825 -0.0630
   34MOL   C13127917   3.333   1.384   1.711  0.2616  0.5187 -0.2774
   34MOL   C13227918   3.306   1.496   1.811  0.2519  0.3452 -0.0774
   34MOL   C13327919   3.219   1.469   1.932  0.1031 -0.1206 -0.5907
   34MOL   C13427920   3.173   1.582   2.022  0.4950 -0.1822 -0.0888
   34MOL   C13527921   3.102   1.538   2.152 -0.7811 -0.0420 -0.3765
   34MOL   C13627922   3.033   1.648   2.230 -0.6692  0.2968 -0.1906
   34MOL   C13727923   3.125   1.758   2.283 -0.6084 -0.5294  0.5434
   34MOL   C13827924   3.050   1.847   2.385 -0.1231  0.1932 -0.1463
   34MOL   C13927925   3.128   1.972   2.432 -0.5886  0.3257  0.4175
   34MOL   C14027926   3.060   2.047   2.544 -0.4489  0.6256 -0.3029
   34MOL   C14127927   3.141   2.158   2.608  0.1005 -0.8304  0.1151
   34MOL   H14227928   3.315   1.211   1.524 -0.2575 -0.7991 -0.0122
   34MOL   H14327929   3.451   1.133   1.453  2.8227  1.0851  0.8627
   34MOL   H14427930   3.516   1.378   1.411  1.9545 -0.3700  0.3173
   34MOL   H14527931   3.486   1.515   1.640  0.8968  0.0079 -0.3463
   34MOL   H14627932   3.356   1.505   1.532 -1.8162 -1.6041 -0.2260
   34MOL   H14727933   3.236   1.346   1.679  1.4002 -1.8734 -1.0369
   34MOL   H14827934   3.379   1.296   1.756  1.3599  0.4733 -1.4553
   34MOL   H14927935   3.395   1.546   1.850  0.0907 -0.2288  1.0519
   34MOL   H15027936   3.268   1.574   1.744 -1.5722  0.8278  1.4910
   34MOL   H15127937   3.133   1.406   1.910  1.3390 -1.5671 -1.3345
   34MOL   H15227938   3.283   1.408   1.996  0.5037  0.2100 -0.6734
   34MOL   H15327939   3.264   1.634   2.051  1.4972 -2.1480  0.3892
   34MOL   H15427940   3.118   1.650   1.957 -0.6170 -0.3877  0.6238
   34MOL   H15527941   3.028   1.462   2.128 -1.1529  0.3396 -0.4385
   34MOL   H15627942   3.180   1.491   2.213 -1.1721 -2.4466 -1.6979
   34MOL   H15727943   2.948   1.686   2.174 -0.0940  0.3295 -1.0531
   34MOL   H15827944   2.981   1.606   2.316  0.7117  1.3882  1.1941
   34MOL   H15927945   3.155   1.811   2.192 -0.5205  1.5609  1.7380
   34MOL   H16027946   3.217   1.715   2.323 -0.4187 -0.3983  0.2467
   34MOL   H16127947   2.956   1.878   2.338  1.5371  2.7937 -1.8798
   34MOL   H16227948   3.029   1.788   2.474  3.5557 -2.4360 -0.8971
   34MOL   H16327949   3.226   1.933   2.456 -0.5888 -0.5287 -0.8754
   34MOL   H16427950   3.140   2.039   2.347 -0.1452  0.1004  0.3018
   34MOL   H16527951   2.967   2.088   2.505 -1.3827 -0.2360  1.0031
   34MOL   H16627952   3.027   1.979   2.622  0.1632  1.5485  0.7766
   34MOL   H16727953   3.073   2.204   2.680  1.1610 -1.5577  1.6217
   34MOL   H16827954   3.228   2.114   2.657  0.5436  0.5296  0.5596
   34MOL   H16927955   3.174   2.232   2.536 -0.4086  0.6724  1.3900
   34MOL   C17027956   3.603   1.287   1.581  0.3448  0.0646 -0.7900
   34MOL   C17127957   3.725   1.385   1.614  0.6129  0.6948  0.0242
   34MOL   C17227958   3.832   1.322   1.699  0.0249  0.3836 -0.0980
   34MOL   C17327959   3.790   1.262   1.833 -0.3656 -0.7936  0.2083
   34MOL   C17427960   3.904   1.169   1.895  0.3213 -0.3138 -0.5392
   34MOL   C17527961   4.004   1.259   1.966 -0.2824  0.0229 -0.7944
   34MOL   C17627962   4.119   1.178   2.034  0.6425  1.1006 -0.0832
   34MOL   C17727963   4.241   1.265   2.081 -0.6515 -0.4355  0.1133
   34MOL   C17827964   4.322   1.195   2.196  0.4251 -0.2453  0.0054
   34MOL   C17927965   4.419   1.284   2.280 -0.1592  0.8312 -0.0547
   34MOL   C18027966   4.518   1.376   2.210 -0.1946  0.1975  0.1388
   34MOL   C18127967   4.641   1.290   2.168  0.2637 -0.3761  0.1531
   34MOL   C18227968   4.734   1.360   2.070 -0.7765 -0.7029  0.0924
   34MOL   C18327969   4.876   1.300   2.078  0.5511  0.0984  0.2577
   34MOL   H18427970   3.642   1.203   1.524 -0.7500 -0.3159 -1.0049
   34MOL   H18527971   3.562   1.238   1.669  1.0657  3.3200  1.4419
   34MOL   H18627972   3.680   1.469   1.668 -1.9270 -1.7637  1.9143
   34MOL   H18727973   3.880   1.245   1.639 -0.2164 -1.0937  1.5294
   34MOL   H18827974   3.898   1.408   1.707  0.5088  0.0245 -0.2489
   34MOL   H18927975   3.761   1.336   1.908  0.5530  1.5379 -1.6702
   34MOL   H19027976   3.698   1.206   1.816 -2.3079  2.1240  0.7723
   34MOL   H19127977   3.867   1.092   1.963 -2.1739  2.5907  1.5030
   34MOL   H19227978   3.943   1.107   1.814  0.6993 -0.9144  0.0997
   34MOL   H19327979   3.958   1.328   2.036  1.9377 -0.4710  1.2379
   34MOL   H19427980   4.043   1.327   1.890 -0.5319  0.6039 -0.3993
   34MOL   H19527981   4.153   1.110   1.955 -3.0118  0.3171 -1.0821
   34MOL   H19627982   4.074   1.137   2.124 -1.9827  2.3125 -0.7775
   34MOL   H19727983   4.215   1.368   2.106 -1.8745 -1.1052  1.5842
   34MOL   H19827984   4.314   1.276   2.000  0.0061  3.4359  1.1386
   34MOL   H19927985   4.382   1.110   2.165  0.9332 -0.4468  1.4954
   34MOL   H20027986   4.250   1.158   2.270  0.4687  2.0410  1.2341
   34MOL   H20127987   4.472   1.213   2.343 -0.2929 -2.4185 -3.4399
   34MOL   H20227988   4.369   1.355   2.346 -3.5059 -1.7903  0.3799
   34MOL   H20327989   4.556   1.452   2.278  0.5582  1.1726 -1.3576
   34MOL   H20427990   4.473   1.437   2.132  1.2865  0.5009 -0.4881
   34MOL   H20527991   4.693   1.268   2.261  1.5422 -2.0190 -0.9116
   34MOL   H20627992   4.609   1.195   2.124 -0.3422  1.6678 -4.0806
   34MOL   H20727993   4.697   1.353   1.967  0.4333 -2.7116 -0.2434
   34MOL   H20827994   4.744   1.466   2.094 -0.0270 -0.6155 -0.5681
   34MOL   H20927995   4.913   1.322   2.177 -0.0121 -0.5002  0.6069
   34MOL   H21027996   4.941   1.358   2.012  1.3541 -0.6531  0.3756
   34MOL   H21127997   4.871   1.192   2.062  1.6474  0.3529 -2.0577
   34MOL   C21227998   3.777   1.443   1.479  1.0218  0.5968  0.0955
   34MOL   C21327999   3.740   1.593   1.443 -0.2818  0.3004 -0.4447
   34MOL   C21428000   3.792   1.705   1.534  0.7341 -0.3309 -0.3139
   34MOL   C21528001   3.945   1.717   1.569 -0.6615  0.4419 -0.5455
   34MOL   C21628002   3.989   1.831   1.662  0.2692  0.3474 -0.7788
   34MOL   C21728003   4.147   1.846   1.663 -0.3898  0.5014  0.5056
   34MOL   C21828004   4.201   1.943   1.764  0.1893 -0.6008 -0.0862
   34MOL   C21928005   4.360   1.961   1.768  0.0396  0.1756 -0.2495
   34MOL   C22028006   4.406   2.053   1.881  0.1867  0.4742 -0.5236
   34MOL   C22128007   4.553   2.038   1.914 -0.8838  0.3940  0.1587
   34MOL   C22228008   4.646   2.089   1.804  0.3576  0.0430 -0.1648
   34MOL   C22328009   4.800   2.077   1.845  0.0510 -0.3131 -0.1220
   34MOL   C22428010   4.888   2.095   1.720  0.3052  0.6151 -0.0739
   34MOL   C22528011   5.034   2.058   1.733 -0.0136  1.0650 -0.8609
   34MOL   H22628012   3.731   1.377   1.405  1.8233  1.1729 -0.9376
   34MOL   H22728013   3.884   1.426   1.469  1.4639  2.4295  1.4665
   34MOL   H22828014   3.631   1.601   1.444 -0.2507  0.7421 -0.6628
   34MOL   H22928015   3.758   1.802   1.498 -0.3868 -0.5142  0.2157
   34MOL   H23028016   3.748   1.689   1.633 -1.3073  0.5984 -1.0512
   34MOL   H23128017   4.003   1.715   1.477 -1.4860  0.7499 -1.0809
   34MOL   H23228018   3.983   1.626   1.616 -4.1471  0.0882  1.7773
   34MOL   H23328019   3.960   1.820   1.766  1.3948  0.8570 -0.4045
   34MOL   H23428020   3.953   1.926   1.622 -0.5081  2.2914  4.2206
   34MOL   H23528021   4.186   1.881   1.568 -1.2723 -0.3035 -0.1584
   34MOL   H23628022   4.191   1.747   1.670  0.7655  1.0400  0.8619
   34MOL   H23728023   4.147   2.036   1.744 -0.8884 -1.1319  0.3158
   34MOL   H23828024   4.174   1.920   1.867  0.8400  2.2130  0.7722
   34MOL   H23928025   4.394   1.858   1.780 -1.5400 -0.0801  2.2890
   34MOL   H24028026   4.395   1.995   1.670  1.4664 -2.8141 -0.8480
   34MOL   H24128027   4.353   2.020   1.971  1.1373  0.1141 -0.0887
   34MOL   H24228028   4.377   2.157   1.868 -0.5546  0.2363 -0.7839
   34MOL   H24328029   4.575   2.090   2.008  1.9610  0.5673 -0.5527
   34MOL   H24428030   4.575   1.932   1.928 -1.5902  0.2277  0.0136
   34MOL   H24528031   4.616   2.189   1.774 -1.9125 -0.3907  0.5545
   34MOL   H24628032   4.619   2.036   1.712  1.9009 -2.4225  0.7466
   34MOL   H24728033   4.825   1.978   1.884  1.3352 -0.5408 -1.4937
   34MOL   H24828034   4.817   2.157   1.918  2.2300  0.2801 -1.2380
   34MOL   H24928035   4.886   2.199   1.690  0.4181  0.4699 -0.5811
   34MOL   H25028036   4.844   2.034   1.641  0.3482 -0.1099  0.4536
   34MOL   H25128037   5.100   2.065   1.647 -0.0403 -1.4462 -1.1150
   34MOL   H25228038   5.083   2.113   1.814  0.6341 -1.1141  0.2671
   34MOL   H25328039   5.038   1.952   1.759 -0.0406  0.8874 -1.5744
   34MOL   C25428040   3.783   1.624   1.295  0.6104 -0.1755  0.9220
   34MOL   C25528041   3.716   1.743   1.218  0.4154 -0.6634  0.5849
   34MOL   C25628042   3.805   1.803   1.111  0.3548  0.2209  0.4900
   34MOL   C25728043   3.758   1.926   1.036 -0.5603  0.7787 -1.5579
   34MOL   C25828044   3.851   1.968   0.919 -0.5528  0.0261  0.4580
   34MOL   C25928045   3.809   2.094   0.847 -0.7049  0.4835  0.2286
   34MOL   C26028046   3.899   2.132   0.726 -0.6528  0.0899 -0.4092
   34MOL   C26128047   3.832   2.235   0.633  0.0314  0.0348 -0.3577
   34MOL   C26228048   3.817   2.376   0.698 -0.2632 -0.4037  0.4289
   34MOL   C26328049   3.742   2.482   0.612 -0.3376  0.1679  0.8617
   34MOL   C26428050   3.693   2.594   0.710  0.4203 -0.3752  0.0940
   34MOL   C26528051   3.619   2.704   0.634  0.8540 -0.1013 -0.2179
   34MOL   C26628052   3.594   2.822   0.733 -0.7841 -0.3363 -0.3219
   34MOL   C26728053   3.526   2.932   0.654 -0.8135 -0.8532  0.3098
   34MOL   H26828054   3.789   1.533   1.234  2.4759  0.1533  0.5850
   34MOL   H26928055   3.890   1.640   1.306  1.0531 -0.7502 -2.0584
   34MOL   H27028056   3.698   1.823   1.290  0.4573 -1.3576  1.3745
   34MOL   H27128057   3.828   1.726   1.038  3.2439  0.5243  1.0169
   34MOL   H27228058   3.901   1.831   1.156  1.9786 -1.7164 -1.6384
   34MOL   H27328059   3.727   2.009   1.099 -0.3814 -1.5584  1.7324
   34MOL   H27428060   3.656   1.900   1.005  0.0936 -1.8984 -1.5953
   34MOL   H27528061   3.861   1.891   0.843 -1.5865  0.1976  0.1438
   34MOL   H27628062   3.951   1.993   0.957 -0.9473  0.2980  1.3404
   34MOL   H27728063   3.810   2.182   0.910 -0.5434  0.8196 -0.2414
   34MOL   H27828064   3.708   2.069   0.816  0.2446 -2.7209 -0.5022
   34MOL   H27928065   3.983   2.181   0.773 -0.0328 -2.1832  0.9175
   34MOL   H28028066   3.936   2.046   0.670  2.1082  1.6344 -1.0197
   34MOL   H28128067   3.732   2.200   0.607 -0.6520  1.8695 -0.3169
   34MOL   H28228068   3.882   2.236   0.536  0.4353 -0.2720 -0.1521
   34MOL   H28328069   3.768   2.360   0.794  0.3463 -1.0659  0.6308
   34MOL   H28428070   3.912   2.413   0.736  0.4921 -2.4062  0.5269
   34MOL   H28528071   3.664   2.432   0.555  0.8054 -3.3492  2.2171
   34MOL   H28628072   3.806   2.530   0.538 -0.5918  0.3465  0.7598
   34MOL   H28728073   3.784   2.639   0.750 -0.9148 -0.6547  3.5841
   34MOL   H28828074   3.634   2.541   0.784 -0.9031 -0.6358 -1.1218
   34MOL   H28928075   3.686   2.743   0.557  0.6416 -0.6955 -0.7081
   34MOL   H29028076   3.527   2.671   0.585  0.1030 -0.0297  1.1043
   34MOL   H29128077   3.524   2.777   0.804  1.0685 -0.6757  1.3212
   34MOL   H29228078   3.678   2.866   0.785 -0.1051 -1.0285 -0.8259
   34MOL   H29328079   3.600   2.990   0.598  1.1414 -2.1366  1.4891
   34MOL   H29428080   3.475   3.002   0.720  0.5059  0.7406 -0.3164
   34MOL   H29528081   3.447   2.894   0.589 -0.1713  0.1193 -1.0692
   34MOL   C29628082   3.580   1.689   1.166  0.2298  0.0467 -0.1502
   34MOL   C29728083   3.461   1.788   1.196  0.3528  0.3436 -0.2159
   34MOL   C29828084   3.334   1.746   1.114  0.0882 -0.3465  0.1336
   34MOL   C29928085   3.326   1.824   0.977 -0.1667  0.3786 -0.5078
   34MOL   C30028086   3.193   1.792   0.906 -0.5319 -0.0995  0.4981
   34MOL   C30128087   3.189   1.852   0.761 -0.4527 -0.5989  0.5973
   34MOL   C30228088   3.053   1.895   0.719  0.0519  0.1121  0.4033
   34MOL   C30328089   3.049   1.989   0.597  0.1233  0.5836  0.2370
   34MOL   C30428090   2.909   2.008   0.549  0.6242 -0.6495  0.3324
   34MOL   C30528091   2.850   1.891   0.468 -0.4219  0.3701  0.3860
   34MOL   C30628092   2.759   1.923   0.351 -0.1799 -0.2791 -0.6966
   34MOL   C30728093   2.695   1.802   0.291 -0.5805 -0.0443  0.4592
   34MOL   C30828094   2.554   1.820   0.237 -0.1887  0.2422  0.6975
   34MOL   C30928095   2.513   1.715   0.138 -0.0332 -0.3776  0.1862
   34MOL   H31028096   3.549   1.590   1.198  1.2483 -0.1224  0.3387
   34MOL   H31128097   3.588   1.668   1.060 -1.2605  0.8046 -0.4299
   34MOL   H31228098   3.492   1.888   1.168  3.7901 -0.1940  1.4734
   34MOL   H31328099   3.243   1.773   1.168 -0.2752 -2.3061  0.5187
   34MOL   H31428100   3.304   1.642   1.100 -0.5660 -0.2635  0.8463
   34MOL   H31528101   3.414   1.807   0.914 -0.2756  0.6225 -0.7230
   34MOL   H31628102   3.317   1.927   1.011 -0.1443 -0.2090  1.2959
   34MOL   H31728103   3.198   1.683   0.901 -0.4542  0.0025 -2.7794
   34MOL   H31828104   3.108   1.825   0.965 -0.5686  0.6666  0.0177
   34MOL   H31928105   3.244   1.791   0.690 -1.1457  0.2175 -0.6665
   34MOL   H32028106   3.242   1.947   0.772 -0.9355 -0.2728  0.1888
   34MOL   H32128107   2.998   1.805   0.692  0.3010  0.0638  0.0482
   34MOL   H32228108   2.992   1.947   0.793 -0.8486  0.1853 -0.3733
   34MOL   H32328109   3.107   1.944   0.516 -0.4940  0.0161  0.1058
   34MOL   H32428110   3.100   2.083   0.614 -2.5700  2.0605  0.3498
   34MOL   H32528111   2.852   2.030   0.639 -0.7675 -1.2790 -0.3965
   34MOL   H32628112   2.911   2.100   0.490  1.7826 -1.2873 -0.6385
   34MOL   H32728113   2.812   1.821   0.542  1.5278  0.3424  1.4058
   34MOL   H32828114   2.929   1.823   0.436  0.2934  0.3513  2.1025
   34MOL   H32928115   2.810   1.978   0.272  1.7376  0.6862  1.1799
   34MOL   H33028116   2.684   1.997   0.379  0.9378  0.3723  0.6414
   34MOL   H33128117   2.699   1.711   0.351 -0.0430  0.1394  0.7050
   34MOL   H33228118   2.766   1.769   0.215  0.1521 -2.6124  2.1880
   34MOL   H33328119   2.536   1.916   0.189 -1.8572  0.0133  0.8335
   34MOL   H33428120   2.500   1.811   0.332 -1.1220 -4.2086 -0.1263
   34MOL   H33528121   2.471   1.624   0.181 -0.3137  0.6752  2.1988
   34MOL   H33628122   2.429   1.761   0.086 -0.1694  1.4098  1.8990
   34MOL   H33728123   2.596   1.689   0.072 -0.6102  2.2713 -1.6599
   34MOL   C33828124   3.427   1.792   1.349 -0.1729  0.5729  0.3703
   34MOL   C33928125   3.322   1.895   1.400 -0.0100 -0.1342  0.6799
   34MOL   C34028126   3.217   1.828   1.496  0.1281  0.0852 -0.1090
   34MOL   C34128127   3.099   1.924   1.530 -1.3692  1.2338 -0.4218
   34MOL   C34228128   2.983   1.916   1.432 -0.1720 -0.0680 -0.0708
   34MOL   C34328129   2.876   2.016   1.451 -0.5899 -0.4000 -0.6550
   34MOL   C34428130   2.761   2.005   1.355  0.0921  0.5751  0.1624
   34MOL   C34528131   2.788   2.064   1.217 -0.0543  0.2657  0.0044
   34MOL   C34628132   2.684   2.031   1.110  0.3547 -0.1025 -0.2952
   34MOL   C34728133   2.719   2.097   0.979 -0.2084 -0.0066 -0.2491
   34MOL   C34828134   2.624   2.075   0.859 -0.0920 -0.3141  0.1458
   34MOL   C34928135   2.617   1.930   0.811 -0.1692 -0.0006  0.9552
   34MOL   C35028136   2.550   1.907   0.670  1.4123  0.1517 -0.3696
   34MOL   C35128137   2.535   1.756   0.637  0.1139  0.2572  0.1491
   34MOL   H35228138   3.393   1.694   1.382  1.9225 -0.6131 -0.8916
   34MOL   H35328139   3.520   1.803   1.405  0.4875  1.9526 -0.9524
   34MOL   H35428140   3.247   1.921   1.325  0.1645 -3.2767 -0.6734
   34MOL   H35528141   3.187   1.728   1.463  2.8745 -2.1684  3.7595
   34MOL   H35628142   3.273   1.802   1.586  2.1773  2.0001 -0.7776
   34MOL   H35728143   3.138   2.025   1.544 -1.2561  1.0066  0.9428
   34MOL   H35828144   3.070   1.885   1.628 -0.5428  1.6395 -0.0143
   34MOL   H35928145   2.941   1.818   1.455 -0.6281  0.5764  1.8972
   34MOL   H36028146   3.022   1.924   1.331  0.5239 -1.4776  0.0716
   34MOL   H36128147   2.831   2.001   1.549 -0.2207 -2.5039 -0.7960
   34MOL   H36228148   2.917   2.117   1.438  0.3845 -0.5761  0.8912
   34MOL   H36328149   2.729   1.901   1.344 -3.4235  1.8299 -2.8452
   34MOL   H36428150   2.672   2.058   1.388 -0.9512  0.1487 -1.8731
   34MOL   H36528151   2.797   2.172   1.229 -0.9663  0.5205 -1.4393
   34MOL   H36628152   2.893   2.046   1.193  0.7329  1.8568  2.0664
   34MOL   H36728153   2.668   1.923   1.104 -3.0828  0.2776  0.6776
   34MOL   H36828154   2.584   2.051   1.148  0.0076 -0.8164 -0.8159
   34MOL   H36928155   2.726   2.203   1.003 -1.2430  0.2486 -1.0213
   34MOL   H37028156   2.818   2.065   0.948 -0.0311 -1.3492  1.5916
   34MOL   H37128157   2.653   2.147   0.782 -1.1282  1.3260  1.2597
   34MOL   H37228158   2.525   2.105   0.894  0.4872  0.7153  0.9484
   34MOL   H37328159   2.582   1.856   0.882  0.3667 -2.7699 -1.5720
   34MOL   H37428160   2.722   1.902   0.797 -0.5071 -0.5233 -0.6694
   34MOL   H37528161   2.449   1.947   0.684  0.1644 -2.7977 -0.7185
   34MOL   H37628162   2.590   1.968   0.590 -0.4812  0.2814 -1.2571
   34MOL   H37728163   2.618   1.726   0.574 -1.0447  1.0322 -1.7897
   34MOL   H37828164   2.545   1.688   0.722 -0.8353  0.6762  0.6088
   34MOL   H37928165   2.447   1.722   0.581 -0.3178  0.0196  0.9572
   34MOL   C38028166   3.393   2.029   1.450 -0.4362  0.7907 -0.2422
   34MOL   C38128167   3.465   2.115   1.347  0.0914 -0.1800 -1.0843
   34MOL   C38228168   3.370   2.168   1.238  0.1023 -0.1833  0.1139
   34MOL   C38328169   3.448   2.224   1.119  0.1093  0.1590  0.0417
   34MOL   C38428170   3.357   2.269   1.010  0.5967  0.1206  0.2143
   34MOL   C38528171   3.442   2.288   0.885 -0.5140  0.4098  0.3317
   34MOL   C38628172   3.367   2.266   0.751 -0.2279  0.3274  0.1533
   34MOL   C38728173   3.246   2.360   0.726  0.1600  0.1943 -0.3561
   34MOL   C38828174   3.275   2.509   0.750 -0.3372 -0.0870  0.0282
   34MOL   C38928175   3.144   2.589   0.728 -0.1724 -0.4150 -0.4267
   34MOL   C39028176   3.172   2.739   0.755 -0.4713  0.4347  0.2121
   34MOL   C39128177   3.070   2.837   0.716  0.4516  0.4643  0.2956
   34MOL   C39228178   2.951   2.825   0.804 -0.1696  0.5713  0.5344
   34MOL   C39328179   2.880   2.965   0.799  0.3352  0.2015 -0.7332
   34MOL   H39428180   3.468   1.992   1.520  0.2745 -0.4024 -1.5961
   34MOL   H39528181   3.321   2.100   1.491  0.0849  1.6149 -0.7383
   34MOL   H39628182   3.545   2.061   1.296  1.8968  2.4116 -1.1127
   34MOL   H39728183   3.302   2.237   1.287 -0.0859 -2.7273  3.6162
   34MOL   H39828184   3.303   2.087   1.208 -1.9539  1.2522  0.7258
   34MOL   H39928185   3.519   2.146   1.091  1.3252  1.3136 -0.0866
   34MOL   H40028186   3.513   2.310   1.131 -1.1746  0.9488  1.5086
   34MOL   H40128187   3.308   2.364   1.027 -0.0679 -0.2202  0.2168
   34MOL   H40228188   3.275   2.200   0.990  0.4001  0.7192 -1.1016
   34MOL   H40328189   3.530   2.225   0.897 -0.0732  1.2779  1.9011
   34MOL   H40428190   3.475   2.392   0.880  2.4614 -0.5535 -1.4596
   34MOL   H40528191   3.443   2.278   0.674  1.7278 -0.0165  1.9737
   34MOL   H40628192   3.335   2.163   0.739  2.0867 -0.0174 -3.9144
   34MOL   H40728193   3.203   2.348   0.626 -2.7344 -0.1707  0.8915
   34MOL   H40828194   3.166   2.330   0.793 -0.0405  1.8714  0.1772
   34MOL   H40928195   3.311   2.526   0.851 -1.9834 -0.2516  0.6584
   34MOL   H41028196   3.356   2.539   0.684 -0.3913 -1.4108 -0.6605
   34MOL   H41128197   3.073   2.555   0.803 -1.3209 -1.2883 -1.8921
   34MOL   H41228198   3.094   2.551   0.639  1.5435  0.8364 -1.9661
   34MOL   H41328199   3.197   2.751   0.860  1.2044 -0.7293 -0.0296
   34MOL   H41428200   3.260   2.769   0.699 -0.7326 -1.7939 -1.4568
   34MOL   H41528201   3.038   2.821   0.613  1.1244 -0.0932  0.1757
   34MOL   H41628202   3.102   2.941   0.721 -1.1054  0.9502  0.4747
   34MOL   H41728203   2.885   2.744   0.773  1.6488 -0.6259 -0.3631
   34MOL   H41828204   2.973   2.804   0.909 -0.2030 -2.5534 -0.0305
   34MOL   H41928205   2.941   3.045   0.841 -1.5143  0.0641  2.4263
   34MOL   H42028206   2.790   2.960   0.861  0.1396 -0.1982 -1.0463
   34MOL   H42128207   2.856   2.990   0.696  1.4439 -0.8396 -1.2593
   34MOL   C42228208   3.543   2.235   1.411  0.2155 -0.4513  0.6232
   34MOL   C42328209   3.685   2.194   1.460  0.4217  0.0555 -0.5694
   34MOL   C42428210   3.785   2.208   1.352  0.5767  0.2020 -0.1804
   34MOL   C42528211   3.914   2.134   1.360  0.0368  0.2444 -0.0490
   34MOL   C42628212   4.013   2.174   1.243  0.3108  0.1751  0.3088
   34MOL   C42728213   4.146   2.101   1.258  0.3071  0.5245 -0.2313
   34MOL   C42828214   4.138   1.952   1.227  0.6035  1.0139  0.5408
   34MOL   C42928215   4.271   1.885   1.228 -0.2453  0.2116  0.3574
   34MOL   C43028216   4.266   1.729   1.209  0.3083  0.0541  0.0565
   34MOL   C43128217   4.199   1.667   1.085  0.1733 -0.0025 -0.3927
   34MOL   C43228218   4.281   1.693   0.952  0.8495 -0.1164 -0.4054
   34MOL   C43328219   4.236   1.605   0.838 -0.0598  0.5499  0.1455
   34MOL   C43428220   4.108   1.662   0.769 -0.2620  0.6185  0.7530
   34MOL   C43528221   4.064   1.603   0.640 -0.4936 -0.6593 -0.0445
   34MOL   H43628222   3.475   2.273   1.487  0.5052  1.6301 -0.1256
   34MOL   H43728223   3.554   2.316   1.340  1.0532  0.2895  1.5766
   34MOL   H43828224   3.686   2.092   1.498  2.8068 -0.0073 -0.7798
   34MOL   H43928225   3.805   2.314   1.341 -0.0839  0.3129 -0.2840
   34MOL   H44028226   3.741   2.170   1.260 -1.2984 -0.0649  0.8087
   34MOL   H44128227   3.964   2.157   1.455  1.7003  1.1427 -1.1228
   34MOL   H44228228   3.898   2.026   1.362 -1.9118  0.4902 -1.1067
   34MOL   H44328229   4.026   2.282   1.250 -1.7179  0.4227  0.4068
   34MOL   H44428230   3.968   2.162   1.145  2.0823 -0.1189 -0.4956
   34MOL   H44528231   4.196   2.132   1.350  3.6097 -2.2517 -0.9844
   34MOL   H44628232   4.208   2.137   1.177  0.7113  1.2088  0.3781
   34MOL   H44728233   4.074   1.900   1.299 -0.1030  0.9287 -0.1324
   34MOL   H44828234   4.093   1.936   1.129  1.8025 -0.6564  0.2375
   34MOL   H44928235   4.332   1.934   1.152 -0.8128 -1.1696 -1.0314
   34MOL   H45028236   4.295   1.901   1.333 -0.9641 -0.8850  0.7030
   34MOL   H45128237   4.371   1.699   1.218  0.1902  0.0634  1.6324
   34MOL   H45228238   4.221   1.687   1.299 -0.9961  0.3228 -0.4635
   34MOL   H45328239   4.189   1.560   1.105  2.1447 -0.6383 -2.4967
   34MOL   H45428240   4.095   1.696   1.074 -0.2127 -1.9600 -2.3492
   34MOL   H45528241   4.280   1.796   0.916 -0.6787  0.0538  0.0740
   34MOL   H45628242   4.386   1.663   0.959  0.2893 -1.8124  1.2909
   34MOL   H45728243   4.218   1.501   0.865  3.2980  0.5171  2.5719
   34MOL   H45828244   4.319   1.595   0.768  1.6169 -0.2553  2.1959
   34MOL   H45928245   4.028   1.645   0.841 -1.8242  0.0170 -1.0941
   34MOL   H46028246   4.107   1.771   0.768 -0.8002  0.6028 -1.0126
   34MOL   H46128247   4.139   1.609   0.561  2.3155  0.2837  2.6146
   34MOL   H46228248   3.975   1.654   0.603  1.1728  1.1597 -1.6570
   34MOL   H46328249   4.025   1.502   0.650 -0.7606 -0.7846 -2.0246
   34MOL   C46428250   3.731   2.294   1.578 -0.3403  0.7945  0.4859
   34MOL   C46528251   3.657   2.256   1.710  0.0993 -0.1644 -0.3296
   34MOL   C46628252   3.722   2.140   1.790  0.3726 -0.5699 -0.2340
   34MOL   C46728253   3.631   2.016   1.799  0.2676 -0.2304 -0.1791
   34MOL   C46828254   3.682   1.929   1.918  0.0580  0.4444 -0.0585
   34MOL   C46928255   3.607   1.796   1.934 -0.7227 -0.3453  0.1737
   34MOL   C47028256   3.663   1.715   2.047  0.0303 -1.2706  0.0604
   34MOL   C47128257   3.594   1.582   2.069 -0.4907 -0.2046  0.2224
   34MOL   C47228258   3.638   1.519   2.202 -0.3700  0.0514 -0.1433
   34MOL   C47328259   3.558   1.385   2.232 -0.0062 -0.0390  0.5394
   34MOL   C47428260   3.612   1.286   2.341  0.5739 -0.6322  0.4945
   34MOL   C47528261   3.713   1.190   2.283 -0.2605  0.7796  0.6432
   34MOL   C47628262   3.774   1.095   2.389 -0.1994  0.0315 -0.3045
   34MOL   C47728263   3.868   0.980   2.333  0.1202 -0.4761  0.2365
   34MOL   H47828264   3.701   2.396   1.553 -0.5910  0.7115  0.4476
   34MOL   H47928265   3.838   2.301   1.593 -0.6075  1.0985  2.3723
   34MOL   H48028266   3.560   2.222   1.671  0.2161  1.2746 -1.9358
   34MOL   H48128267   3.823   2.115   1.758 -0.0348 -1.5760 -0.7485
   34MOL   H48228268   3.744   2.174   1.892 -1.8454  1.6106 -0.4589
   34MOL   H48328269   3.628   1.969   1.701 -1.7343 -0.5628  0.0236
   34MOL   H48428270   3.527   2.049   1.805 -0.4865 -2.8742  2.7391
   34MOL   H48528271   3.674   1.985   2.011  0.3619  1.4534 -0.6336
   34MOL   H48628272   3.787   1.901   1.906 -0.5086 -2.2400  0.9882
   34MOL   H48728273   3.502   1.822   1.951 -0.2354  0.3306  2.3168
   34MOL   H48828274   3.606   1.732   1.846 -1.8681 -1.8289  1.2360
   34MOL   H48928275   3.767   1.699   2.020  0.0226  0.3945 -1.0595
   34MOL   H49028276   3.658   1.776   2.137  1.1458 -2.2466  0.7951
   34MOL   H49128277   3.488   1.602   2.084 -0.4321  1.2073 -1.1038
   34MOL   H49228278   3.609   1.518   1.983  0.4079  2.3202 -1.5652
   34MOL   H49328279   3.746   1.505   2.207 -0.1075  2.0872  0.2030
   34MOL   H49428280   3.633   1.586   2.287  0.1200 -0.8647  0.6185
   34MOL   H49528281   3.459   1.421   2.257 -0.5155 -0.8357 -0.2797
   34MOL   H49628282   3.532   1.332   2.140  0.3304  0.1210  0.3514
   34MOL   H49728283   3.655   1.336   2.428  0.3145  4.4831 -2.1394
   34MOL   H49828284   3.528   1.223   2.372  0.4005 -1.4716 -1.5607
   34MOL   H49928285   3.792   1.252   2.240 -0.5954  2.0730  1.8484
   34MOL   H50028286   3.652   1.136   2.210  0.1294 -0.6454  1.3739
   34MOL   H50128287   3.831   1.154   2.460  0.3158 -0.4691 -0.2958
   34MOL   H50228288   3.701   1.050   2.455  0.2477  0.5972  0.5764
   34MOL   H50328289   3.809   0.935   2.253  0.2735  0.8337 -0.6071
   34MOL   H50428290   3.964   1.017   2.297  0.4694 -0.2108  1.4073
   34MOL   H50528291   3.875   0.905   2.413 -0.3791  1.9302  2.6083
   34MOL   C50628292   3.620   2.375   1.802  0.0056  0.7448  0.0842
   34MOL   C50728293   3.499   2.459   1.749 -0.4582  0.9271 -0.2825
   34MOL   C50828294   3.367   2.383   1.784 -0.1388  0.2416  0.0462
   34MOL   C50928295   3.260   2.402   1.680 -0.6772 -0.0082  0.4724
   34MOL   C51028296   3.127   2.345   1.731 -0.2425 -0.6390  0.0491
   34MOL   C51128297   3.015   2.371   1.634 -0.0476 -0.2991 -0.7666
   34MOL   C51228298   2.882   2.316   1.685 -0.2925 -0.1996 -0.3778
   34MOL   C51328299   2.779   2.355   1.585  0.4468 -0.2947  0.0054
   34MOL   C51428300   2.651   2.368   1.661 -0.1652 -0.2585 -0.4354
   34MOL   C51528301   2.592   2.229   1.697  1.1974 -0.0457  0.0750
   34MOL   C51628302   2.448   2.233   1.755 -0.3345 -0.3237 -0.6217
   34MOL   C51728303   2.406   2.089   1.777  0.4326 -0.7197 -0.0984
   34MOL   C51828304   2.269   2.084   1.836  0.1828 -0.0415  0.6582
   34MOL   C51928305   2.226   1.948   1.885 -0.0413 -0.4643  0.1666
   34MOL   H52028306   3.706   2.439   1.821  0.7536  0.2201 -1.5063
   34MOL   H52128307   3.602   2.338   1.903  2.5851  3.2121  1.5386
   34MOL   H52228308   3.505   2.477   1.642  1.0599  0.4376 -0.2842
   34MOL   H52328309   3.371   2.275   1.791 -0.7999  0.0020 -2.5888
   34MOL   H52428310   3.336   2.428   1.879  0.8146  1.3166 -0.1439
   34MOL   H52528311   3.254   2.509   1.663  2.2893  0.3283  1.1400
   34MOL   H52628312   3.298   2.360   1.587 -0.2535 -0.4634  0.8441
   34MOL   H52728313   3.094   2.390   1.824  1.3411 -0.4749  0.5483
   34MOL   H52828314   3.134   2.240   1.759 -0.4206 -0.4643  0.7584
   34MOL   H52928315   3.028   2.331   1.534  2.1140 -0.2597 -0.5399
   34MOL   H53028316   3.007   2.480   1.627  1.6299 -0.0322  0.8961
   34MOL   H53128317   2.899   2.209   1.689  2.8704  0.2889  0.6911
   34MOL   H53228318   2.852   2.348   1.785 -1.5136 -1.6736 -0.2626
   34MOL   H53328319   2.773   2.273   1.514 -0.3419  0.5471 -0.9218
   34MOL   H53428320   2.797   2.450   1.534  2.5795 -0.8878 -0.3823
   34MOL   H53528321   2.575   2.413   1.597  1.4218  0.2525 -2.0037
   34MOL   H53628322   2.660   2.441   1.742 -1.3475 -0.0110 -0.5122
   34MOL   H53728323   2.584   2.181   1.599  1.1092 -1.8182  0.9345
   34MOL   H53828324   2.649   2.179   1.775  0.5519 -0.8802  0.0232
   34MOL   H53928325   2.431   2.291   1.846  0.8140  0.0978 -0.6659
   34MOL   H54028326   2.384   2.272   1.676 -0.0866 -0.9008 -1.1174
   34MOL   H54128327   2.483   2.048   1.842  1.4905  1.3695 -0.0061
   34MOL   H54228328   2.423   2.032   1.685 -0.3337 -1.0526 -0.0371
   34MOL   H54328329   2.203   2.124   1.759  0.5165  0.9558  0.8901
   34MOL   H54428330   2.266   2.141   1.928  1.1183 -2.9546  2.5823
   34MOL   H54528331   2.206   1.872   1.809  1.5514 -0.2449 -0.4914
   34MOL   H54628332   2.305   1.911   1.951 -1.1463 -0.5712  1.4485
   34MOL   H54728333   2.135   1.935   1.943 -0.6465 -0.1408 -0.7033
   34MOL   C54828334   3.491   2.600   1.808  0.2302 -0.1406 -0.5175
   34MOL   C54928335   3.580   2.710   1.749 -0.1530 -0.4422  0.1059
   34MOL   C55028336   3.526   2.764   1.609 -0.2916  0.0050  0.4489
   34MOL   C55128337   3.386   2.835   1.596 -0.0786 -0.0700  0.3671
   34MOL   C55228338   3.340   2.841   1.448 -0.0454  0.1485  0.0109
   34MOL   C55328339   3.304   2.709   1.383  0.1414  0.0963 -0.4153
   34MOL   C55428340   3.256   2.722   1.238  0.1266 -0.2140 -0.1545
   34MOL   C55528341   3.189   2.600   1.176 -0.3452 -0.0761 -0.2583
   34MOL   C55628342   3.069   2.557   1.249 -0.8722  1.2122 -0.1575
   34MOL   C55728343   3.013   2.415   1.210  1.0824 -0.0247  0.0273
   34MOL   C55828344   2.937   2.413   1.082  0.6153 -0.9321 -0.3639
   34MOL   C55928345   2.815   2.516   1.069 -0.6020 -0.3609 -0.5552
   34MOL   C56028346   2.710   2.513   1.173  0.3008 -0.5114  0.4948
   34MOL   C56128347   2.620   2.632   1.161  0.9734 -0.3132  0.5307
   34MOL   H56228348   3.390   2.639   1.821 -0.4517 -2.1231  0.2962
   34MOL   H56328349   3.510   2.585   1.914  0.6602 -0.2463 -0.6088
   34MOL   H56428350   3.680   2.668   1.734  0.5325  0.9039  0.9027
   34MOL   H56528351   3.597   2.825   1.554  0.7302 -0.5330  1.1456
   34MOL   H56628352   3.516   2.669   1.556  0.6256 -0.4632  1.1100
   34MOL   H56728353   3.395   2.930   1.647 -1.8786  0.6900 -0.6911
   34MOL   H56828354   3.318   2.776   1.657 -0.1539 -1.0063 -0.5993
   34MOL   H56928355   3.251   2.903   1.433 -0.7041 -1.0727 -1.3271
   34MOL   H57028356   3.419   2.894   1.394 -0.1427  1.6219  1.2765
   34MOL   H57128357   3.233   2.672   1.457  0.2586  0.9776  0.1413
   34MOL   H57228358   3.389   2.641   1.385  0.7760  0.9191  1.7168
   34MOL   H57328359   3.182   2.802   1.245  0.9092  0.4941  0.0191
   34MOL   H57428360   3.343   2.758   1.183 -0.3243 -0.4820 -1.0675
   34MOL   H57528361   3.267   2.525   1.166 -1.3161 -1.1477  0.1393
   34MOL   H57628362   3.160   2.632   1.075  0.0361  1.1063 -0.0067
   34MOL   H57728363   3.000   2.638   1.271  0.4661  2.6646 -1.1579
   34MOL   H57828364   3.094   2.539   1.353  1.0825 -1.0809 -0.9550
   34MOL   H57928365   3.100   2.349   1.211  0.7719 -0.4428  1.4489
   34MOL   H58028366   2.954   2.375   1.293  1.2798 -2.5807 -1.0126
   34MOL   H58128367   2.887   2.316   1.075  1.0709 -1.1806 -0.1227
   34MOL   H58228368   3.003   2.422   0.995  1.0896  1.6186  0.2187
   34MOL   H58328369   2.865   2.613   1.067  0.2706 -0.7993 -0.3765
   34MOL   H58428370   2.776   2.496   0.970 -0.0435 -0.8211 -0.6899
   34MOL   H58528371   2.653   2.421   1.162 -0.7673  0.2093 -0.0789
   34MOL   H58628372   2.766   2.522   1.266 -1.3195 -1.1869  1.5565
   34MOL   H58728373   2.577   2.630   1.060  2.8678  2.1122 -0.3879
   34MOL   H58828374   2.540   2.624   1.234  0.3519  2.0451  0.1612
   34MOL   H58928375   2.672   2.726   1.179 -0.7749  1.2723 -2.2213
   34MOL   C59028376   3.593   2.836   1.838  0.1592  0.4037 -1.0623
   34MOL   C59128377   3.654   2.823   1.986  0.5405  0.0801  0.2749
   34MOL   C59228378   3.802   2.779   1.969  0.0379  0.0896  0.3074
   34MOL   C59328379   3.860   2.693   2.083 -0.4616 -0.6132  0.3832
   34MOL   C59428380   3.828   2.539   2.063  0.4083  0.0858 -0.1579
   34MOL   C59528381   3.881   2.445   2.178  0.0449  0.0647  0.3305
   34MOL   C59628382   3.873   2.299   2.137 -0.0257  0.3332 -0.3066
   34MOL   C59728383   3.947   2.206   2.240 -0.5474  0.3019  0.1639
   34MOL   C59828384   3.935   2.060   2.195  0.2079 -0.4100  0.2113
   34MOL   C59928385   3.969   1.963   2.305 -0.0558  0.6988 -0.9888
   34MOL   C60028386   3.968   1.813   2.280 -0.3517  0.2830  0.2550
   34MOL   C60128387   4.015   1.735   2.404 -0.0825  0.6041 -0.1117
   34MOL   C60228388   3.968   1.585   2.402 -0.2866  0.4535  0.6845
   34MOL   C60328389   4.049   1.490   2.311  0.8354 -0.0856  0.7092
   34MOL   H60428390   3.498   2.886   1.852  1.0723  2.8481 -3.2691
   34MOL   H60528391   3.639   2.910   1.772 -1.1768  2.3128  0.1268
   34MOL   H60628392   3.612   2.733   2.033 -0.0567  0.5308  0.6047
   34MOL   H60728393   3.857   2.873   1.970 -0.6532  0.5110 -1.0614
   34MOL   H60828394   3.828   2.735   1.873 -3.6372 -0.5376 -0.4968
   34MOL   H60928395   3.820   2.739   2.173  0.6412  0.9953  0.0626
   34MOL   H61028396   3.967   2.705   2.071 -0.0706 -2.2889  1.9412
   34MOL   H61128397   3.863   2.496   1.969 -1.8661  1.0864 -1.4937
   34MOL   H61228398   3.720   2.534   2.049  0.2733  0.8123  0.5877
   34MOL   H61328399   3.835   2.470   2.274 -1.0768 -0.1073 -0.1591
   34MOL   H61428400   3.989   2.458   2.184  0.5272 -3.8138  1.2083
   34MOL   H61528401   3.772   2.261   2.120 -1.0547  3.1827 -0.7525
   34MOL   H61628402   3.917   2.284   2.038  1.8346  2.0770  0.2305
   34MOL   H61728403   4.048   2.234   2.270  1.0585  0.0597 -4.5734
   34MOL   H61828404   3.885   2.229   2.327  0.5078  3.6123  0.1188
   34MOL   H61928405   3.834   2.039   2.159  1.0482 -1.0422 -1.8973
   34MOL   H62028406   4.001   2.041   2.110  1.7306  0.7113  1.1249
   34MOL   H62128407   4.073   1.993   2.319  0.0756 -0.0914 -0.2674
   34MOL   H62228408   3.907   1.989   2.390  1.8736  0.5056  0.5280
   34MOL   H62328409   4.027   1.789   2.192  0.0782  1.4700  0.2028
   34MOL   H62428410   3.863   1.784   2.269 -0.0323 -0.8366  0.1890
   34MOL   H62528411   3.982   1.786   2.495 -2.5845 -1.8203  0.4133
   34MOL   H62628412   4.123   1.745   2.412 -0.0928  2.6065 -2.0260
   34MOL   H62728413   3.985   1.548   2.503  1.5469 -0.3425  0.0948
   34MOL   H62828414   3.862   1.576   2.379 -0.0165  1.3338 -1.0209
   34MOL   H62928415   4.153   1.474   2.340  0.9699  1.2789  1.0290
   34MOL   H63028416   4.051   1.529   2.209 -0.1519 -1.7810  0.0233
   34MOL   H63128417   3.995   1.395   2.310 -0.3123  0.5531 -0.0921
   34MOL   C63228418   3.624   2.943   2.075 -0.2139  0.3848 -0.0551
   34MOL   C63328419   3.473   2.978   2.109 -0.4245 -0.2833  0.3537
   34MOL   C63428420   3.402   2.865   2.181 -0.1128 -0.1345  0.4138
   34MOL   C63528421   3.453   2.826   2.319 -0.3109 -0.3008 -0.2212
   34MOL   C63628422   3.351   2.721   2.371  0.1424 -0.1915 -0.4355
   34MOL   C63728423   3.403   2.667   2.510  0.1844  1.0902 -0.3175
   34MOL   C63828424   3.296   2.580   2.579  0.3366  0.5664 -0.5576
   34MOL   C63928425   3.343   2.472   2.677  0.1386  0.3985  0.4408
   34MOL   C64028426   3.404   2.532   2.800 -0.2030 -0.4261 -0.4404
   34MOL   C64128427   3.444   2.429   2.912  0.5832  0.5626 -0.4539
   34MOL   C64228428   3.326   2.376   2.988 -0.1663  0.2819 -0.0118
   34MOL   C64328429   3.352   2.289   3.113  0.0890 -0.0637  0.5907
   34MOL   C64428430   3.223   2.245   3.189  0.5597  0.5181 -0.5528
   34MOL   C64528431   3.256   2.161   3.310 -0.1568  0.2981  0.3928
   34MOL   H64628432   3.674   3.030   2.031  1.2831 -1.4471 -2.0554
   34MOL   H64728433   3.678   2.925   2.168 -1.5362 -0.7920  0.5083
   34MOL   H64828434   3.421   2.992   2.014 -0.9091 -1.0378  0.4997
   34MOL   H64928435   3.297   2.892   2.192 -0.3058 -0.0787 -1.4913
   34MOL   H65028436   3.421   2.777   2.119 -1.1716 -0.6099  0.7478
   34MOL   H65128437   3.450   2.918   2.377  0.2108  0.7019 -1.7336
   34MOL   H65228438   3.553   2.784   2.320 -0.1172  0.1786  0.7646
   34MOL   H65328439   3.345   2.637   2.301 -1.0198  0.8354 -1.5701
   34MOL   H65428440   3.248   2.754   2.368  0.3575  0.8471  2.2307
   34MOL   H65528441   3.485   2.598   2.492  1.0133  2.1444 -0.6130
   34MOL   H65628442   3.442   2.740   2.580 -0.0566 -0.0102  0.9868
   34MOL   H65728443   3.222   2.654   2.611  0.1152 -0.9916  2.7281
   34MOL   H65828444   3.239   2.529   2.501 -0.4236 -0.6530  0.7684
   34MOL   H65928445   3.428   2.421   2.631  1.0022  2.2506 -0.0586
   34MOL   H66028446   3.266   2.397   2.696  0.8135 -0.4068  0.0249
   34MOL   H66128447   3.337   2.604   2.846  1.0282  1.5456 -1.6405
   34MOL   H66228448   3.499   2.577   2.769  0.3778 -0.8385  0.7261
   34MOL   H66328449   3.495   2.339   2.879  0.5725  0.4841 -0.2545
   34MOL   H66428450   3.508   2.488   2.977  0.8374 -0.0549 -0.1444
   34MOL   H66528451   3.273   2.466   3.018 -0.9433  0.0690 -0.7211
   34MOL   H66628452   3.254   2.326   2.924  1.4660  0.1964 -1.8315
   34MOL   H66728453   3.409   2.345   3.187  0.1486 -1.2188  1.4424
   34MOL   H66828454   3.413   2.204   3.083  0.3943  1.4499 -3.3825
   34MOL   H66928455   3.154   2.188   3.128  0.7134  0.1550 -0.3850
   34MOL   H67028456   3.170   2.339   3.206 -2.7468 -1.3291 -0.3164
   34MOL   H67128457   3.344   2.097   3.304 -0.4916 -0.1498  0.1589
   34MOL   H67228458   3.237   2.205   3.408 -0.4615  1.4091 -0.1569
   34MOL   H67328459   3.175   2.088   3.304  0.9314 -1.0682  1.8075
   34MOL   C67428460   3.446   3.115   2.187 -0.4367  0.6358  0.0722
   34MOL   C67528461   3.475   3.243   2.098 -0.0387 -0.2039 -0.0149
   34MOL   C67628462   3.362   3.259   1.991  0.8640  0.3180  0.7132
   34MOL   C67728463   3.423   3.317   1.862 -0.6212 -0.6546 -0.4298
   34MOL   C67828464   3.477   3.201   1.775 -0.0060 -0.1856 -0.0254
   34MOL   C67928465   3.527   3.257   1.637  0.1947  0.6629 -0.5103
   34MOL   C68028466   3.517   3.160   1.523 -0.1759  0.3433 -0.1786
   34MOL   C68128467   3.579   3.210   1.396  0.0273  0.8646 -0.2704
   34MOL   C68228468   3.571   3.115   1.279 -0.3775  0.6459  0.0129
   34MOL   C68328469   3.668   2.998   1.293 -0.2874  0.0497 -0.4965
   34MOL   C68428470   3.645   2.894   1.187 -0.0129 -0.1675  0.1989
   34MOL   C68528471   3.719   2.758   1.208  0.6216 -0.4877 -0.0593
   34MOL   C68628472   3.703   2.644   1.098 -0.9945  0.0044 -0.1221
   34MOL   C68728473   3.806   2.534   1.115  0.0707  0.2029  0.7040
   34MOL   H68828474   3.504   3.119   2.279 -0.3641  2.3217 -0.0360
   34MOL   H68928475   3.346   3.127   2.228  0.2031  2.1189  1.2179
   34MOL   H69028476   3.564   3.216   2.041 -0.8316  0.0037 -1.3472
   34MOL   H69128477   3.310   3.168   1.965  0.1363  0.7888  0.5052
   34MOL   H69228478   3.287   3.331   2.025  0.7138  0.8088 -0.6478
   34MOL   H69328479   3.341   3.359   1.803 -0.0566  1.3685  0.1682
   34MOL   H69428480   3.493   3.399   1.878 -1.2719 -0.2601  0.4429
   34MOL   H69528481   3.551   3.138   1.824 -0.0668  1.6932  2.6105
   34MOL   H69628482   3.381   3.152   1.753 -0.6528  1.5245 -1.1218
   34MOL   H69728483   3.461   3.336   1.603 -1.2572 -0.3914 -0.1858
   34MOL   H69828484   3.627   3.300   1.643  0.6838 -0.4195 -0.7430
   34MOL   H69928485   3.553   3.063   1.557 -0.9384 -0.1080 -0.6561
   34MOL   H70028486   3.412   3.144   1.500 -0.7926  2.2865  1.1806
   34MOL   H70128487   3.530   3.303   1.365  0.5388  1.0140 -0.6538
   34MOL   H70228488   3.682   3.239   1.416 -0.6677  2.2061  1.4880
   34MOL   H70328489   3.466   3.087   1.276 -0.4997  1.1201 -0.3282
   34MOL   H70428490   3.590   3.164   1.183 -0.2133  0.9961  0.2229
   34MOL   H70528491   3.665   2.960   1.396 -2.1533 -0.3510 -0.6883
   34MOL   H70628492   3.772   3.029   1.281 -0.1150  1.9498  4.4422
   34MOL   H70728493   3.678   2.938   1.093  0.2393 -0.0916  0.3245
   34MOL   H70828494   3.539   2.869   1.184 -0.5839  2.0294  0.8629
   34MOL   H70928495   3.676   2.719   1.300 -1.1390  0.7567 -0.3410
   34MOL   H71028496   3.825   2.782   1.221  0.7470 -0.1985 -1.5744
   34MOL   H71128497   3.603   2.603   1.115 -1.9828  2.9527  1.6305
   34MOL   H71228498   3.695   2.683   0.996  1.4612  0.3522 -0.1923
   34MOL   H71328499   3.773   2.452   1.051  1.3917  0.3060 -0.1433
   34MOL   H71428500   3.907   2.566   1.088  0.2102  0.2347  1.2703
   34MOL   H71528501   3.823   2.501   1.217  1.0051 -0.9614  0.1826
   34MOL   C71628502   3.507   3.372   2.175 -0.1089 -0.0028  0.8156
   34MOL   C71728503   3.626   3.375   2.265 -0.0301  0.1502 -0.8716
   34MOL   C71828504   3.752   3.359   2.181  0.3233 -1.1165 -0.1559
   34MOL   C71928505   3.837   3.239   2.214 -0.3619 -0.2643  1.0033
   34MOL   C72028506   3.951   3.230   2.108  0.3764 -0.0800 -0.6996
   34MOL   C72128507   4.046   3.104   2.124  0.0170  0.0868  0.0562
   34MOL   C72228508   4.146   3.113   2.010 -0.0739 -0.0741  0.2488
   34MOL   C72328509   4.258   3.010   2.026  0.1955  0.8230  0.2235
   34MOL   C72428510   4.360   3.015   1.908  0.8390 -0.0175  0.0842
   34MOL   C72528511   4.490   2.923   1.929  1.0251 -0.1102 -0.1074
   34MOL   C72628512   4.599   2.952   1.825 -0.3206  0.2994 -0.0332
   34MOL   C72728513   4.714   2.853   1.836  0.0362  0.0189  0.2851
   34MOL   C72828514   4.693   2.720   1.762  0.2584 -0.2625 -0.1070
   34MOL   C72928515   4.823   2.639   1.758  0.6102  0.7641 -0.6233
   34MOL   H73028516   3.528   3.448   2.100 -2.0612 -0.9290 -0.6993
   34MOL   H73128517   3.417   3.402   2.229 -0.8545 -0.4768 -0.1591
   34MOL   H73228518   3.617   3.292   2.335  1.9682  0.9192  0.3349
   34MOL   H73328519   3.804   3.454   2.189 -2.3256  0.5403 -1.8185
   34MOL   H73428520   3.721   3.353   2.077 -1.9755  0.6675  0.3813
   34MOL   H73528521   3.878   3.251   2.314  0.2140 -0.5714  0.8094
   34MOL   H73628522   3.776   3.149   2.221 -1.0522  0.1830  0.7276
   34MOL   H73728523   3.904   3.229   2.009 -1.9085 -0.0157  0.3635
   34MOL   H73828524   4.005   3.324   2.108  2.7118 -1.3690  1.4900
   34MOL   H73928525   4.094   3.087   2.220  1.2719  1.5815 -0.2920
   34MOL   H74028526   3.974   3.023   2.109  0.4620 -0.5714  1.3932
   34MOL   H74128527   4.087   3.090   1.920  1.3718 -1.0589 -0.4736
   34MOL   H74228528   4.170   3.216   1.985  0.6245 -0.5300 -1.0126
   34MOL   H74328529   4.211   2.912   2.030 -2.5906  2.0358 -1.4311
   34MOL   H74428530   4.320   3.022   2.115  0.9306 -1.8984  0.1197
   34MOL   H74528531   4.319   2.980   1.813 -1.5732 -0.1663  1.1348
   34MOL   H74628532   4.397   3.116   1.890  0.9384 -0.6293 -3.6287
   34MOL   H74728533   4.519   2.934   2.033 -1.0656 -2.6415  0.7948
   34MOL   H74828534   4.456   2.820   1.938  1.4739 -0.2420  0.0914
   34MOL   H74928535   4.557   2.938   1.725  0.8631 -2.4289 -0.2150
   34MOL   H75028536   4.642   3.052   1.827  0.4998 -0.0613  0.4135
   34MOL   H75128537   4.805   2.901   1.801  0.1246  0.7265  1.4682
   34MOL   H75228538   4.731   2.840   1.943 -2.1181  0.3618  0.6834
   34MOL   H75328539   4.652   2.727   1.661  1.9411  2.3969 -0.6635
   34MOL   H75428540   4.621   2.661   1.819  0.1019  1.3289  1.3838
   34MOL   H75528541   4.902   2.675   1.693  1.6673  0.2504  0.3514
   34MOL   H75628542   4.804   2.542   1.712 -0.3078  0.7650 -0.2638
   34MOL   H75728543   4.872   2.623   1.854  1.0164  2.1234 -0.6005
   34MOL   C75828544   3.629   3.497   2.366 -0.0912  0.0556 -0.2365
   34MOL   C75928545   3.742   3.489   2.463  0.3169 -0.1179  0.1526
   34MOL   C76028546   3.800   3.628   2.496  0.1839  0.4246 -0.3684
   34MOL   C76128547   3.875   3.695   2.378  0.4449 -0.0420 -0.5146
   34MOL   C76228548   3.946   3.827   2.438  0.9585  0.1673  0.4797
   34MOL   C76328549   3.996   3.921   2.335  0.4865  0.3157 -0.0389
   34MOL   C76428550   4.018   4.055   2.405  0.1605 -0.2701 -0.2936
   34MOL   C76528551   4.097   4.158   2.331  0.1373  0.6647 -0.5139
   34MOL   C76628552   4.127   4.281   2.416  1.2459  0.0926 -0.4757
   34MOL   C76728553   4.218   4.386   2.338  0.0890  0.1308  0.1744
   34MOL   C76828554   4.237   4.511   2.426  0.2896 -0.5567  0.9781
   34MOL   C76928555   4.349   4.609   2.369  0.2444  0.5378 -0.2651
   34MOL   C77028556   4.419   4.680   2.489  0.1702 -0.2314  0.4735
   34MOL   C77128557   4.530   4.770   2.446  0.9906  0.1193  0.1356
   34MOL   H77228558   3.634   3.576   2.292  0.2456 -0.1958 -0.4865
   34MOL   H77328559   3.528   3.503   2.407 -0.0383 -1.9428  0.2733
   34MOL   H77428560   3.831   3.438   2.424  1.7980  1.7374  1.0018
   34MOL   H77528561   3.726   3.692   2.544  2.2563  2.2958  0.3889
   34MOL   H77628562   3.884   3.605   2.561  0.2038 -2.0239 -1.1889
   34MOL   H77728563   3.953   3.633   2.334 -0.4587 -2.0354  0.6129
   34MOL   H77828564   3.801   3.729   2.305 -0.2401 -0.3835  0.0150
   34MOL   H77928565   4.027   3.798   2.506  0.8628  0.7734  0.8557
   34MOL   H78028566   3.868   3.878   2.494 -0.5237 -2.4273  0.8745
   34MOL   H78128567   3.927   3.935   2.252 -0.8765  3.3671  1.5581
   34MOL   H78228568   4.094   3.888   2.298 -0.5369 -1.2458 -1.4472
   34MOL   H78328569   3.928   4.103   2.444 -0.4751 -1.2951 -0.4715
   34MOL   H78428570   4.067   4.046   2.502 -1.5071 -0.0738  0.5851
   34MOL   H78528571   4.035   4.179   2.243 -0.7250  0.7374  0.1049
   34MOL   H78628572   4.193   4.122   2.295  0.5208  1.3127 -0.1363
   34MOL   H78728573   4.178   4.253   2.508  2.0568 -1.8295 -1.4755
   34MOL   H78828574   4.035   4.331   2.447  0.6239 -1.6713  0.5686
   34MOL   H78928575   4.171   4.435   2.252  0.4984  0.3166  0.0574
   34MOL   H79028576   4.316   4.344   2.317  0.9855  1.1108  2.3191
   34MOL   H79128577   4.142   4.564   2.426  0.7408  0.3087 -0.7392
   34MOL   H79228578   4.259   4.489   2.530  2.3499  1.7743  1.0888
   34MOL   H79328579   4.430   4.559   2.315  1.0747  0.7616  0.7616
   34MOL   H79428580   4.303   4.673   2.294  1.9462  1.0047 -0.9465
   34MOL   H79528581   4.353   4.752   2.537 -0.4582  0.1069 -0.8737
   34MOL   H79628582   4.453   4.614   2.569 -0.3295  0.8281  1.5644
   34MOL   H79728583   4.582   4.811   2.533 -0.3641 -0.1539  1.0825
   34MOL   H79828584   4.600   4.714   2.384  1.3996 -1.5574  2.0368
   34MOL   H79928585   4.477   4.840   2.382 -1.1009 -1.2876  0.2760
   34MOL   C80028586   3.707   3.417   2.593 -0.1287 -0.1030 -0.4332
   34MOL   C80128587   3.739   3.269   2.599  0.0022 -0.3820  0.1916
   34MOL   C80228588   3.701   3.219   2.736  0.5612  0.9956  0.3694
   34MOL   C80328589   3.723   3.066   2.744 -0.1557  0.6191  0.3241
   34MOL   C80428590   3.696   3.013   2.883  0.7588  0.7414 -0.0389
   34MOL   C80528591   3.729   2.862   2.888 -0.2107  0.1238 -0.4547
   34MOL   C80628592   3.699   2.806   3.024 -0.2337 -0.0064 -0.0485
   34MOL   C80728593   3.551   2.787   3.066  0.1881  0.5691 -0.5858
   34MOL   C80828594   3.535   2.719   3.202 -0.2791 -0.6401  0.4050
   34MOL   C80928595   3.389   2.703   3.243 -0.0587  0.1533  0.2488
   34MOL   C81028596   3.385   2.649   3.392  0.0945  0.0641  0.8020
   34MOL   C81128597   3.256   2.673   3.462 -0.6027 -0.4905  0.2794
   34MOL   C81228598   3.152   2.576   3.414 -0.0386 -0.3943  0.1537
   34MOL   C81328599   3.015   2.617   3.464  0.2411 -0.0443 -0.3450
   34MOL   H81428600   3.604   3.432   2.626  0.7118  2.1445  1.2576
   34MOL   H81528601   3.753   3.461   2.681 -0.5544  1.7762 -1.1265
   34MOL   H81628602   3.844   3.251   2.576 -0.4112 -0.6053 -1.6179
   34MOL   H81728603   3.593   3.232   2.750 -0.0245 -2.3823 -0.5430
   34MOL   H81828604   3.764   3.265   2.813  0.9921 -1.4064  1.4764
   34MOL   H81928605   3.822   3.053   2.700 -0.6271 -0.4562 -0.4093
   34MOL   H82028606   3.653   3.021   2.675 -1.5785  2.0669  0.7892
   34MOL   H82128607   3.767   3.059   2.952  0.8019 -1.3070  1.3531
   34MOL   H82228608   3.597   3.043   2.919 -0.5344 -2.7371 -0.5135
   34MOL   H82328609   3.836   2.869   2.868 -0.1731  2.6922  0.4233
   34MOL   H82428610   3.679   2.797   2.816  1.9197 -0.0932 -1.7954
   34MOL   H82528611   3.753   2.711   3.031 -0.5332 -0.0481  2.4811
   34MOL   H82628612   3.742   2.865   3.105 -1.8611 -1.2808  1.8010
   34MOL   H82728613   3.494   2.879   3.074 -0.9673 -0.1075 -0.9001
   34MOL   H82828614   3.495   2.740   2.985 -0.7832  0.9938 -0.1751
   34MOL   H82928615   3.586   2.623   3.211 -0.1391 -0.4664  1.5486
   34MOL   H83028616   3.575   2.783   3.280  2.5764 -1.6818 -0.1414
   34MOL   H83128617   3.341   2.644   3.165 -0.1750  0.8073 -0.1702
   34MOL   H83228618   3.345   2.802   3.239 -1.0469 -0.2973 -0.4280
   34MOL   H83328619   3.416   2.545   3.403  0.7702  0.2731  0.9534
   34MOL   H83428620   3.463   2.699   3.450  1.6665 -1.6274  0.2113
   34MOL   H83528621   3.225   2.772   3.427 -2.8783 -0.8641  1.1587
   34MOL   H83628622   3.283   2.680   3.567  0.7266  0.9512 -0.1377
   34MOL   H83728623   3.148   2.551   3.308  0.1192 -0.8562  0.2558
   34MOL   H83828624   3.177   2.476   3.452 -1.3141 -1.3046 -1.3456
   34MOL   H83928625   3.016   2.626   3.572 -0.7994 -1.5864 -0.1909
   34MOL   H84028626   2.981   2.711   3.419  0.6567 -0.3991 -1.4169
   34MOL   H84128627   2.940   2.540   3.449  0.1635 -0.2231  0.9391
   34MOL   H84228628   3.685   3.217   2.520  0.8355 -0.9879  0.0162
   35MOL     C128629   6.211   7.288   4.020 -0.5496 -0.3191 -0.3725
   35MOL     C228630   6.280   7.370   4.134 -0.3020 -0.3424  0.6303
   35MOL     C328631   6.304   7.290   4.263 -0.3254  0.3641  0.1770
   35MOL     C428632   6.176   7.227   4.326 -0.6063 -0.2108 -0.4992
   35MOL     C528633   6.187   7.150   4.463  0.1463  0.1202  0.7329
   35MOL     C628634   6.241   7.011   4.451 -0.2107 -0.4224 -0.4214
   35MOL     C728635   6.162   6.900   4.522 -0.1309  0.3123 -0.9167
   35MOL     C828636   6.224   6.760   4.495 -0.0300 -0.1440  0.0502
   35MOL     C928637   6.153   6.654   4.586 -0.3642 -0.7217  0.3360
   35MOL    C1028638   6.218   6.514   4.570 -0.0159 -0.4389  0.4615
   35MOL    C1128639   6.365   6.512   4.618 -0.0174  0.1990  0.4996
   35MOL    C1228640   6.410   6.367   4.637 -0.0221 -0.0866  0.2060
   35MOL    C1328641   6.529   6.354   4.724  0.0564  0.4568 -0.3575
   35MOL    C1428642   6.496   6.367   4.876 -0.1930  0.1418 -0.0576
   35MOL    H1528643   6.281   7.204   4.016 -1.1819 -0.8599 -0.3140
   35MOL    H1628644   6.212   7.336   3.922  1.1047 -2.4607 -1.4500
   35MOL    H1728645   6.206   7.444   4.167 -0.8237 -1.0254  1.0177
   35MOL    H1828646   6.378   7.216   4.229 -0.1626 -0.0943  1.5164
   35MOL    H1928647   6.360   7.343   4.340  1.4494 -0.6390 -0.3908
   35MOL    H2028648   6.136   7.151   4.259 -1.2393 -0.3286 -0.0009
   35MOL    H2128649   6.096   7.301   4.333 -0.6880 -0.3438  0.0102
   35MOL    H2228650   6.084   7.137   4.496 -0.0443  1.4507  0.6692
   35MOL    H2328651   6.234   7.209   4.542 -1.9770  1.7577  0.8168
   35MOL    H2428652   6.342   7.010   4.492  0.0625  2.1449 -0.9158
   35MOL    H2528653   6.246   6.987   4.344 -1.8628  0.6701 -0.7585
   35MOL    H2628654   6.161   6.924   4.628  0.9082  1.3260 -1.1246
   35MOL    H2728655   6.060   6.891   4.486 -0.5395 -1.1968  0.5576
   35MOL    H2828656   6.328   6.775   4.522 -0.5000  1.9884  0.8264
   35MOL    H2928657   6.224   6.723   4.393  0.6938  0.0069 -0.0083
   35MOL    H3028658   6.175   6.674   4.691 -1.5240 -2.4484  0.9385
   35MOL    H3128659   6.047   6.656   4.558  0.2884 -0.9292 -2.2733
   35MOL    H3228660   6.166   6.440   4.631 -1.1889 -1.6409 -1.9626
   35MOL    H3328661   6.214   6.473   4.469 -1.8576  0.5370  0.1222
   35MOL    H3428662   6.444   6.560   4.559 -0.4526 -0.3153 -0.5058
   35MOL    H3528663   6.368   6.553   4.719 -0.4453  1.8199 -0.1273
   35MOL    H3628664   6.422   6.324   4.537 -1.3322  0.0494 -0.0224
   35MOL    H3728665   6.328   6.320   4.691  0.9121 -2.7020 -0.5483
   35MOL    H3828666   6.567   6.252   4.712  2.7156  1.0245  2.4631
   35MOL    H3928667   6.604   6.427   4.694  1.2354 -0.1089  1.1276
   35MOL    H4028668   6.454   6.461   4.911  0.3836 -0.1318  1.4119
   35MOL    H4128669   6.431   6.288   4.911 -0.8911  0.2277 -1.1390
   35MOL    H4228670   6.592   6.359   4.928 -0.3187  0.1057  0.1687
   35MOL    H4328671   6.110   7.255   4.047 -0.2078  0.0576  1.3792
   35MOL    C4428672   6.411   7.419   4.086 -0.5085 -0.4777 -0.0858
   35MOL    C4528673   6.475   7.539   4.167 -0.0147  0.3671  0.5040
   35MOL    C4628674   6.409   7.680   4.138 -0.6130 -0.1484 -0.0323
   35MOL    C4728675   6.409   0.090   4.251  0.1901 -0.4650 -0.2642
   35MOL    C4828676   6.545   0.153   4.299  0.3324  0.0909 -0.3401
   35MOL    C4928677   6.525   0.283   4.383  0.4271 -0.3562  0.3480
   35MOL    C5028678   6.661   0.344   4.425 -0.3550 -0.2927 -0.3056
   35MOL    C5128679   6.637   0.459   4.527  0.3997 -0.4005  0.6794
   35MOL    C5228680   6.595   0.595   4.458 -0.5275  0.1592 -0.6021
   35MOL    C5328681   6.718   0.669   4.399  0.3575 -0.0365 -0.5010
   35MOL    C5428682   6.680   0.784   4.305  0.3791  0.0270 -0.9236
   35MOL    C5528683   6.796   0.858   4.249 -0.5598 -0.4156 -0.5940
   35MOL    C5628684   6.762   0.983   4.167  0.0114  0.0361  0.5771
   35MOL    C5728685   6.880   1.022   4.081 -0.6920  0.3094  0.3329
   35MOL    H5828686   6.478   7.338   4.058 -1.1923 -1.6508  1.5743
   35MOL    H5928687   6.390   7.456   3.986  0.7272  0.1322 -0.1357
   35MOL    H6028688   6.466   7.522   4.274 -1.1401 -1.5373  0.1346
   35MOL    H6128689   6.462   0.030   4.054  2.0524 -2.3701  0.3675
   35MOL    H6228690   6.307   7.662   4.102 -0.4100 -0.8273 -0.2862
   35MOL    H6328691   6.349   0.041   4.328  1.1480 -1.6235 -0.2388
   35MOL    H6428692   6.348   0.177   4.224 -1.9196 -1.6815  0.4347
   35MOL    H6528693   6.619   0.159   4.219  0.0908  1.5955 -0.4586
   35MOL    H6628694   6.590   0.082   4.369 -0.2160  0.0665 -0.0095
   35MOL    H6728695   6.465   0.359   4.334 -0.0329 -0.0980  1.2984
   35MOL    H6828696   6.466   0.272   4.474 -1.2591  0.5813 -0.6169
   35MOL    H6928697   6.717   0.261   4.469 -1.9510 -1.8777 -1.2408
   35MOL    H7028698   6.720   0.389   4.345  2.4475  0.8508  2.2896
   35MOL    H7128699   6.732   0.469   4.580  0.0303 -0.5566  1.3674
   35MOL    H7228700   6.552   0.442   4.593 -1.1435 -0.3065 -1.2344
   35MOL    H7328701   6.530   0.569   4.374 -1.2190  0.3023 -0.1106
   35MOL    H7428702   6.535   0.658   4.524 -0.6927 -1.8740  1.2349
   35MOL    H7528703   6.780   0.599   4.343  2.0996 -1.3331  2.8652
   35MOL    H7628704   6.779   0.698   4.485 -0.9604 -0.4731  0.6103
   35MOL    H7728705   6.632   0.855   4.372  0.8308 -0.1464 -0.4082
   35MOL    H7828706   6.609   0.742   4.234 -0.6275 -1.3116  0.8469
   35MOL    H7928707   6.870   0.882   4.325 -1.0712 -0.4106 -0.0891
   35MOL    H8028708   6.863   0.801   4.185  2.0949 -0.8256  2.4107
   35MOL    H8128709   6.739   1.067   4.233 -2.1661 -0.1865  0.1514
   35MOL    H8228710   6.673   0.958   4.108  0.4340 -0.1281  0.0126
   35MOL    H8328711   6.897   0.952   3.999  0.4720  4.1034 -2.7909
   35MOL    H8428712   6.973   1.026   4.137 -0.0544 -1.0405 -0.5867
   35MOL    H8528713   6.864   1.121   4.039  1.0216  0.6122  0.3545
   35MOL    C8628714   6.624   7.550   4.129  0.2611  0.4024 -0.3141
   35MOL    C8728715   6.720   7.436   4.191 -0.0891  0.3323 -0.0711
   35MOL    C8828716   6.749   7.473   4.331 -0.7849  0.1128  0.1603
   35MOL    C8928717   6.794   7.360   4.419 -0.0746 -0.1022  0.1259
   35MOL    C9028718   6.695   7.246   4.450  0.0615 -1.0571  0.9535
   35MOL    C9128719   6.764   7.135   4.536 -0.6091 -0.2738 -0.2162
   35MOL    C9228720   6.677   7.010   4.532 -0.2309 -1.0629  0.6903
   35MOL    C9328721   6.711   6.917   4.411  0.3324 -0.2311 -0.2431
   35MOL    C9428722   6.640   6.783   4.431 -0.6663  0.0095  0.6357
   35MOL    C9528723   6.694   6.675   4.331 -0.3333  0.0065 -0.5817
   35MOL    C9628724   6.670   6.532   4.371  0.0859 -0.3561 -0.0344
   35MOL    C9728725   6.751   6.430   4.293  0.7072 -0.1659  0.4219
   35MOL    C9828726   6.708   6.287   4.334  0.3504 -0.0154  0.6284
   35MOL    C9928727   6.793   6.176   4.268 -0.4793 -0.0377  0.0314
   35MOL   H10028728   6.622   7.553   4.020 -0.7762 -0.1429 -0.3185
   35MOL   H10128729   6.660   7.648   4.162  0.7835  0.3529 -0.7253
   35MOL   H10228730   6.657   7.348   4.175  0.0194 -0.0215  1.4526
   35MOL   H10328731   6.824   7.551   4.344 -0.5685  0.0573 -0.7769
   35MOL   H10428732   6.660   7.516   4.378 -0.5699 -1.3185  1.9281
   35MOL   H10528733   6.876   7.323   4.358  1.1792  2.5645  0.0979
   35MOL   H10628734   6.834   7.396   4.514  1.6991  1.9793 -1.3569
   35MOL   H10728735   6.663   7.204   4.354  0.3307 -0.2922  0.5298
   35MOL   H10828736   6.602   7.276   4.499  0.7172  0.5391  1.2298
   35MOL   H10928737   6.785   7.162   4.640  0.0279 -0.0487 -0.4039
   35MOL   H11028738   6.863   7.105   4.501 -0.4490 -0.5298  0.4440
   35MOL   H11128739   6.691   6.947   4.620  1.6017 -0.1555  1.0737
   35MOL   H11228740   6.571   7.036   4.523 -0.5376 -2.0027  1.4983
   35MOL   H11328741   6.819   6.905   4.402  0.3427  0.1445 -0.6354
   35MOL   H11428742   6.673   6.964   4.320  0.0330 -1.1087 -0.5823
   35MOL   H11528743   6.674   6.738   4.524  1.7741  1.3132  0.3927
   35MOL   H11628744   6.531   6.791   4.438 -0.7746 -1.3797  0.7387
   35MOL   H11728745   6.802   6.693   4.333 -0.1472 -0.3837 -4.1498
   35MOL   H11828746   6.666   6.690   4.227 -0.4979 -1.2495 -0.7233
   35MOL   H11928747   6.687   6.529   4.478 -1.2448  2.2350  0.2837
   35MOL   H12028748   6.563   6.513   4.357 -0.1279  2.2842 -2.4975
   35MOL   H12128749   6.736   6.439   4.185 -0.7030 -2.1825  0.4306
   35MOL   H12228750   6.859   6.439   4.307  0.4346  1.7210  1.4210
   35MOL   H12328751   6.602   6.279   4.310 -0.4676 -0.3310  4.0533
   35MOL   H12428752   6.714   6.265   4.441  2.1119 -0.3344  0.4850
   35MOL   H12528753   6.757   6.082   4.311  1.7124 -0.3002  1.4008
   35MOL   H12628754   6.777   6.171   4.161  0.7570 -1.3838 -0.1214
   35MOL   H12728755   6.898   6.182   4.297 -0.5772 -1.6321  0.8134
   35MOL   C12828756   6.856   7.434   4.110  0.3750 -1.3808  0.3113
   35MOL   C12928757   6.841   7.355   3.979 -0.3959  0.2855 -0.0671
   35MOL   C13028758   6.904   7.420   3.850  0.0229  0.3274  0.5841
   35MOL   C13128759   6.807   7.519   3.786  0.9786  0.1326 -0.4581
   35MOL   C13228760   6.700   7.451   3.700 -0.0537  0.5656  0.3409
   35MOL   C13328761   6.565   7.508   3.721  0.8280  0.4178 -0.3781
   35MOL   C13428762   6.461   7.419   3.648 -0.2793  0.1704  0.1677
   35MOL   C13528763   6.321   7.478   3.656 -0.1493 -0.4659  0.4153
   35MOL   C13628764   6.208   7.409   3.585  0.1561 -0.9796 -0.6877
   35MOL   C13728765   6.214   7.398   3.435  0.1814  0.4173 -0.4818
   35MOL   C13828766   6.127   7.295   3.368  0.0336  0.5498  0.2799
   35MOL   C13928767   5.984   7.292   3.426 -0.7110 -0.3652 -0.4769
   35MOL   C14028768   5.896   7.181   3.369 -1.2062  0.0768 -0.4474
   35MOL   C14128769   5.745   7.203   3.397 -0.4852  0.0036 -0.3573
   35MOL   H14228770   6.880   7.538   4.089 -0.6107 -0.3545  3.8705
   35MOL   H14328771   6.938   7.385   4.162  0.2964 -0.8041  0.9748
   35MOL   H14428772   6.737   7.346   3.947 -0.4638 -1.4498  0.6135
   35MOL   H14528773   7.004   7.459   3.867  1.0170 -1.6784 -0.4093
   35MOL   H14628774   6.908   7.345   3.770  0.1757  1.3737 -0.4108
   35MOL   H14728775   6.762   7.592   3.853  0.5312  0.4900 -1.1416
   35MOL   H14828776   6.868   7.584   3.723  2.5177 -0.1846  0.6974
   35MOL   H14928777   6.725   7.448   3.594 -1.9413  0.8777 -0.1424
   35MOL   H15028778   6.689   7.347   3.731 -1.3030  1.1387  1.8897
   35MOL   H15128779   6.534   7.505   3.826  0.3871 -0.1064 -0.5194
   35MOL   H15228780   6.573   7.608   3.680  0.8027  0.6807  0.2468
   35MOL   H15328781   6.480   7.428   3.541 -0.0639 -2.6515 -0.0739
   35MOL   H15428782   6.478   7.315   3.675 -0.3331  0.3639  0.9571
   35MOL   H15528783   6.297   7.482   3.763  0.2261 -0.8619  0.5190
   35MOL   H15628784   6.334   7.581   3.622  0.6708 -0.8887 -0.5631
   35MOL   H15728785   6.194   7.308   3.623 -0.2281 -1.1990 -1.4117
   35MOL   H15828786   6.118   7.468   3.600 -0.3448 -1.8423 -0.2565
   35MOL   H15928787   6.312   7.374   3.393  0.2952  1.7761 -1.0045
   35MOL   H16028788   6.194   7.496   3.391 -1.2833  0.6415  0.6466
   35MOL   H16128789   6.129   7.317   3.261 -1.6726  1.0297  0.3376
   35MOL   H16228790   6.185   7.204   3.381 -0.0874  0.6692  1.7298
   35MOL   H16328791   5.992   7.291   3.535 -0.2505 -0.3354 -0.5131
   35MOL   H16428792   5.932   7.387   3.418  1.1641  0.3975 -4.6111
   35MOL   H16528793   5.920   7.154   3.266  0.6363 -0.4762  0.1107
   35MOL   H16628794   5.933   7.089   3.414 -0.4716  0.0477 -1.0978
   35MOL   H16728795   5.727   7.310   3.383 -0.1817  0.1202  0.1501
   35MOL   H16828796   5.679   7.136   3.341 -0.4939 -2.2482  2.2373
   35MOL   H16928797   5.718   7.190   3.502  0.9284  0.7901  0.1214
   35MOL   C17028798   6.904   7.212   3.992  0.1119 -0.3775 -0.3076
   35MOL   C17128799   6.856   7.107   3.892 -0.3159  0.0046  0.3990
   35MOL   C17228800   6.963   7.000   3.861 -0.7014 -0.3484  0.0673
   35MOL   C17328801   7.076   7.050   3.766  0.2217 -0.0607 -0.5808
   35MOL   C17428802   7.189   6.950   3.737 -0.7024 -0.0079 -0.2834
   35MOL   C17528803   7.280   6.937   3.865 -0.6205  0.6155  0.6915
   35MOL   C17628804   7.396   6.845   3.832 -0.1247 -0.2687 -0.8291
   35MOL   C17728805   7.486   6.818   3.961 -0.2929  0.2802 -0.5401
   35MOL   C17828806   7.564   6.683   3.962  0.1837  1.0104 -0.4515
   35MOL   C17928807   7.473   6.558   3.965 -0.7124 -0.1143  0.6469
   35MOL   C18028808   7.553   6.431   3.992 -0.5096 -0.7047 -0.2827
   35MOL   C18128809   7.471   6.302   3.987 -0.2700  0.3139  1.0146
   35MOL   C18228810   7.562   6.188   4.044 -0.0910 -0.8195  0.1774
   35MOL   C18328811   7.596   6.206   4.190  0.2122 -0.2817 -0.4931
   35MOL   H18428812   6.888   7.176   4.094  0.1331 -2.0750 -0.8758
   35MOL   H18528813   7.008   7.229   3.966 -0.0471  1.0142 -0.0400
   35MOL   H18628814   6.840   7.154   3.795 -0.5964 -0.2769  0.3079
   35MOL   H18728815   7.007   6.962   3.953  2.4181 -1.5376 -1.7988
   35MOL   H18828816   6.920   6.911   3.815  2.9142 -2.4514  0.5470
   35MOL   H18928817   7.025   7.057   3.670 -0.3135 -3.5942 -0.6078
   35MOL   H19028818   7.121   7.144   3.798  0.2148 -0.6958  1.3290
   35MOL   H19128819   7.147   6.854   3.706 -0.6842 -0.0663 -0.1304
   35MOL   H19228820   7.244   6.984   3.649 -0.6502  0.5756 -0.0229
   35MOL   H19328821   7.213   6.894   3.939  0.1081 -1.6844  0.0752
   35MOL   H19428822   7.324   7.031   3.897  3.2580 -1.0730  0.6615
   35MOL   H19528823   7.458   6.891   3.754  0.3641 -0.8907 -0.8126
   35MOL   H19628824   7.361   6.747   3.800  0.1691 -0.0214 -1.9613
   35MOL   H19728825   7.439   6.826   4.059  1.6784 -2.1871  0.6788
   35MOL   H19828826   7.552   6.905   3.973 -0.1203  0.6121 -3.5944
   35MOL   H19928827   7.622   6.679   4.054 -1.7771 -0.5004  0.7494
   35MOL   H20028828   7.639   6.681   3.882 -0.1995  0.7518 -0.8081
   35MOL   H20128829   7.414   6.554   3.874  0.7616  1.5565 -0.4013
   35MOL   H20228830   7.422   6.571   4.061  0.5498 -1.4839  1.5209
   35MOL   H20328831   7.607   6.439   4.087 -2.0523  1.1630  0.4750
   35MOL   H20428832   7.630   6.421   3.916  0.1640  1.0282  0.1569
   35MOL   H20528833   7.378   6.312   4.044 -1.2833  2.3093 -0.9018
   35MOL   H20628834   7.442   6.274   3.885  1.9510 -0.5200  0.5878
   35MOL   H20728835   7.523   6.087   4.031  4.4798 -2.6581  0.0675
   35MOL   H20828836   7.652   6.184   3.983 -1.5404  1.3380 -2.2486
   35MOL   H20928837   7.502   6.198   4.245 -0.8908  2.1865 -1.9007
   35MOL   H21028838   7.640   6.301   4.222  0.2965  0.3087 -2.3063
   35MOL   H21128839   7.669   6.140   4.237 -0.8567  0.1163  1.7594
   35MOL   C21228840   6.723   7.036   3.947 -0.5160  0.0965  0.2759
   35MOL   C21328841   6.646   6.960   3.844  0.2357 -0.3730 -0.0529
   35MOL   C21428842   6.562   6.848   3.915 -0.1590 -0.1828 -0.2062
   35MOL   C21528843   6.476   6.894   4.040 -0.4641  0.4504  0.1230
   35MOL   C21628844   6.387   6.787   4.101  0.0286 -0.1306 -0.4445
   35MOL   C21728845   6.247   6.795   4.031 -0.1983  0.3003 -0.3170
   35MOL   C21828846   6.151   6.698   4.094 -0.1826  0.1815 -0.8042
   35MOL   C21928847   6.020   6.702   4.013  0.5090 -0.9386 -0.8775
   35MOL   C22028848   5.903   6.641   4.099  0.2531  0.1797  0.8963
   35MOL   C22128849   5.765   6.617   4.016  0.4134  0.2509 -0.2185
   35MOL   C22228850   5.668   6.529   4.088  0.5281 -0.1586 -0.3416
   35MOL   C22328851   5.540   6.486   4.010  0.1401  0.5703  0.9168
   35MOL   C22428852   5.444   6.398   4.097  0.2615 -0.5888  0.3872
   35MOL   C22528853   5.343   6.318   4.009 -0.0699 -0.1154 -0.2138
   35MOL   H22628854   6.664   7.113   3.996  0.8126  1.6201 -0.4776
   35MOL   H22728855   6.754   6.966   4.024  0.6228  1.2813  0.9167
   35MOL   H22828856   6.711   6.908   3.773 -0.0191 -1.1173  0.2586
   35MOL   H22928857   6.488   6.805   3.847  0.6214 -2.6849  0.4470
   35MOL   H23028858   6.623   6.761   3.940 -0.0770 -0.2170 -0.5198
   35MOL   H23128859   6.422   6.987   4.024  0.1194  0.5034 -1.6958
   35MOL   H23228860   6.545   6.924   4.119 -1.5662  1.4344  0.7265
   35MOL   H23328861   6.372   6.803   4.207 -0.7098  0.4601 -0.6292
   35MOL   H23428862   6.430   6.687   4.090 -0.3344 -0.1791 -1.5163
   35MOL   H23528863   6.255   6.777   3.924  1.1612  0.6078 -0.2773
   35MOL   H23628864   6.200   6.893   4.038  0.1503  0.3354  1.9635
   35MOL   H23728865   6.188   6.596   4.100  0.0774  0.3357  0.4401
   35MOL   H23828866   6.130   6.737   4.193 -0.7235  2.2551 -1.7072
   35MOL   H23928867   5.998   6.806   3.991 -1.0009 -1.0880 -0.1386
   35MOL   H24028868   6.029   6.664   3.911  0.7594  0.1549 -1.2657
   35MOL   H24128869   5.881   6.710   4.180  1.0826  1.3898  0.1011
   35MOL   H24228870   5.950   6.548   4.131 -2.2341 -1.2251  0.5768
   35MOL   H24328871   5.722   6.714   3.989 -1.7090 -0.5585  0.1660
   35MOL   H24428872   5.799   6.573   3.922 -0.3576  0.9457 -0.8320
   35MOL   H24528873   5.642   6.573   4.184 -0.7000  0.8510 -1.1067
   35MOL   H24628874   5.717   6.434   4.108  2.4049  0.6116 -1.0841
   35MOL   H24728875   5.574   6.438   3.918 -0.0089  1.0090  0.6284
   35MOL   H24828876   5.485   6.572   3.971  1.5478  1.7674  1.4766
   35MOL   H24928877   5.401   6.451   4.181  0.2679 -0.2275  0.1642
   35MOL   H25028878   5.509   6.329   4.150 -0.2353  0.7629  2.8411
   35MOL   H25128879   5.398   6.265   3.932  0.0172  0.2482 -0.4018
   35MOL   H25228880   5.301   6.236   4.067  0.3578  0.3228  0.7305
   35MOL   H25328881   5.267   6.384   3.968  0.6196  0.6702 -0.2584
   35MOL   C25428882   6.545   7.055   3.760  0.0760  0.0677  0.9262
   35MOL   C25528883   6.505   6.999   3.623  0.0791 -0.3261 -1.0949
   35MOL   C25628884   6.356   7.044   3.590  0.6553 -0.4642  0.2185
   35MOL   C25728885   6.250   6.963   3.663 -0.0576  0.2022 -0.7379
   35MOL   C25828886   6.118   6.971   3.599  0.2279  0.4353  0.1182
   35MOL   C25928887   6.008   6.892   3.683  0.1463 -0.5055  0.8077
   35MOL   C26028888   5.886   6.866   3.596  0.6533 -0.2075  0.3757
   35MOL   C26128889   5.775   6.779   3.662 -0.0574  0.1680 -0.0859
   35MOL   C26228890   5.653   6.740   3.572 -0.0754 -0.0615 -0.0432
   35MOL   C26328891   5.583   6.857   3.500  0.2925 -0.1902  0.7697
   35MOL   C26428892   5.444   6.820   3.439 -0.3252 -0.3041  0.4041
   35MOL   C26528893   5.459   6.775   3.297  0.6120  0.0512 -0.3219
   35MOL   C26628894   5.437   6.884   3.197  0.1137  0.1772 -0.0275
   35MOL   C26728895   5.435   6.824   3.055  0.3938 -0.5822  0.2973
   35MOL   H26828896   6.600   7.148   3.740  1.1845 -0.8094 -0.2283
   35MOL   H26928897   6.461   7.089   3.820  0.1850 -0.5965  1.4600
   35MOL   H27028898   6.515   6.891   3.635  2.5520 -0.0607 -0.4643
   35MOL   H27128899   6.336   7.035   3.483 -2.2968 -2.8076  0.8823
   35MOL   H27228900   6.341   7.150   3.608  1.2390 -0.2858 -0.3428
   35MOL   H27328901   6.244   6.999   3.766 -1.0061 -2.8145  0.3243
   35MOL   H27428902   6.293   6.863   3.672  0.5908  0.5592  0.3289
   35MOL   H27528903   6.128   6.937   3.495 -2.8634 -0.4730  0.0558
   35MOL   H27628904   6.079   7.073   3.595 -2.2980 -0.4771  0.1102
   35MOL   H27728905   5.992   6.934   3.783 -1.7270 -2.2266  1.2516
   35MOL   H27828906   6.043   6.791   3.707  2.1408  0.0421  0.3492
   35MOL   H27928907   5.850   6.967   3.577  0.1682 -0.3317  0.6263
   35MOL   H28028908   5.916   6.818   3.503  0.0999 -0.8480  0.5216
   35MOL   H28128909   5.735   6.826   3.752 -0.6410  0.3919 -0.4598
   35MOL   H28228910   5.825   6.687   3.694 -0.8058 -1.2773 -2.9017
   35MOL   H28328911   5.681   6.660   3.503  0.9881 -1.1455  1.6136
   35MOL   H28428912   5.585   6.683   3.634  0.7743  0.6903  1.6018
   35MOL   H28528913   5.646   6.907   3.427 -2.6051  0.8867 -1.0498
   35MOL   H28628914   5.570   6.933   3.577 -0.0947  2.8495 -2.2041
   35MOL   H28728915   5.380   6.908   3.447  1.5886  1.2387 -1.0265
   35MOL   H28828916   5.401   6.739   3.498 -2.4523 -0.1227 -0.8382
   35MOL   H28928917   5.562   6.739   3.286  0.4611 -0.4052 -0.2641
   35MOL   H29028918   5.402   6.684   3.277  0.5130  0.1042 -0.2739
   35MOL   H29128919   5.341   6.924   3.230 -1.3203 -1.9259 -1.5048
   35MOL   H29228920   5.510   6.964   3.207 -0.6531  1.1230 -1.6606
   35MOL   H29328921   5.532   6.790   3.018  0.1684 -0.5014 -0.3787
   35MOL   H29428922   5.401   6.898   2.983  1.4723  0.0507  0.4251
   35MOL   H29528923   5.373   6.737   3.036 -0.5003 -0.3590  2.0998
   35MOL   C29628924   6.608   7.038   3.511 -0.3460  0.4203 -0.2888
   35MOL   C29728925   6.574   6.989   3.366 -0.5397 -0.2537 -0.0916
   35MOL   C29828926   6.662   7.071   3.269 -0.0567 -0.7668 -0.0754
   35MOL   C29928927   6.598   7.204   3.240  0.3505 -0.0958 -0.2877
   35MOL   C30028928   6.672   7.283   3.136 -0.0247  0.1577 -0.0923
   35MOL   C30128929   6.641   7.432   3.141 -1.0557  0.7587  0.0830
   35MOL   C30228930   6.703   7.508   3.026 -0.3038 -0.3546 -0.0434
   35MOL   C30328931   6.850   7.487   3.002  0.0398  0.3100 -0.3520
   35MOL   C30428932   6.915   7.598   2.922 -0.2493  0.6571  0.4631
   35MOL   C30528933   7.063   7.587   2.902 -0.2729 -1.0127 -0.8147
   35MOL   C30628934   7.139   7.579   3.037 -0.9494 -0.0383 -0.5354
   35MOL   C30728935   7.293   7.591   3.026 -0.3011 -0.0662 -0.2405
   35MOL   C30828936   7.361   7.586   3.159 -0.1962 -0.1669 -0.5530
   35MOL   C30928937   7.505   7.638   3.152 -0.1311  0.0419 -0.0531
   35MOL   H31028938   6.709   7.014   3.547 -0.0199  0.8593 -0.9089
   35MOL   H31128939   6.617   7.147   3.519 -1.7458  0.4067  1.9379
   35MOL   H31228940   6.471   7.008   3.337 -0.7752  0.2299  1.0337
   35MOL   H31328941   6.668   7.015   3.176 -1.8955 -0.8473 -0.1532
   35MOL   H31428942   6.766   7.076   3.300 -0.7030  1.8480  1.9391
   35MOL   H31528943   6.577   7.267   3.327 -3.8411 -0.3008 -1.0762
   35MOL   H31628944   6.504   7.180   3.191  1.0889  0.3422 -1.9448
   35MOL   H31728945   6.776   7.282   3.166 -0.1427 -1.5529  0.2824
   35MOL   H31828946   6.656   7.251   3.033  1.1136  1.0453 -0.5618
   35MOL   H31928947   6.682   7.479   3.230  1.2105  0.4862 -0.7656
   35MOL   H32028948   6.536   7.456   3.131 -0.9385  0.8751 -0.9626
   35MOL   H32128949   6.659   7.488   2.928 -3.3329  1.1562  0.9430
   35MOL   H32228950   6.685   7.614   3.043  3.1654  0.4454 -0.9115
   35MOL   H32328951   6.871   7.396   2.946 -0.6712  0.1777 -0.4081
   35MOL   H32428952   6.898   7.486   3.099 -2.4739 -2.0801  0.9483
   35MOL   H32528953   6.873   7.580   2.824  1.6760  0.3629 -0.3304
   35MOL   H32628954   6.893   0.002   2.961  1.2989  0.6613  1.3746
   35MOL   H32728955   7.105   7.666   2.841  1.5342  0.4978  2.2961
   35MOL   H32828956   7.072   7.495   2.844 -0.3730 -0.6210 -1.4621
   35MOL   H32928957   7.117   7.489   3.094  0.5541 -1.0570 -1.5146
   35MOL   H33028958   7.107   7.665   3.095  0.6777 -0.3392  0.8420
   35MOL   H33128959   7.314   7.687   2.981  0.7497  0.7965  2.0214
   35MOL   H33228960   7.338   7.524   2.953  1.1229  1.4916 -0.8055
   35MOL   H33328961   7.355   7.483   3.195  0.3270  0.0301  0.1262
   35MOL   H33428962   7.311   7.645   3.237  1.7908  2.8375 -1.4627
   35MOL   H33528963   7.564   7.635   3.244 -0.7318 -0.7303  0.3044
   35MOL   H33628964   7.575   7.592   3.082 -1.3754 -1.8798 -0.0384
   35MOL   H33728965   7.498   0.047   3.121  2.1172  1.1194  2.8077
   35MOL   C33828966   6.611   6.836   3.364 -0.0839  0.6353  0.8616
   35MOL   C33928967   6.506   6.741   3.292 -0.7337 -0.1816 -0.3399
   35MOL   C34028968   6.368   6.736   3.364  0.2686 -0.0619 -0.8672
   35MOL   C34128969   6.289   6.607   3.347  0.6095 -0.2847 -0.2133
   35MOL   C34228970   6.170   6.586   3.440  0.1257 -0.6789 -0.6989
   35MOL   C34328971   6.091   6.458   3.416 -0.0358 -0.2869  0.3676
   35MOL   C34428972   5.961   6.452   3.496  0.3259 -0.9665  0.5717
   35MOL   C34528973   5.900   6.310   3.502  1.1181 -0.0969 -0.9380
   35MOL   C34628974   5.800   6.298   3.620  0.1873 -0.1094 -0.4516
   35MOL   C34728975   5.748   6.152   3.634  0.2853 -0.2873 -0.7335
   35MOL   C34828976   5.669   6.120   3.762  0.3904  0.4803  0.5153
   35MOL   C34928977   5.607   5.972   3.770  0.1021  0.0013  0.2160
   35MOL   C35028978   5.506   5.957   3.892 -0.1508  0.0104  0.2106
   35MOL   C35128979   5.455   5.818   3.921  0.2539 -0.1265 -0.4054
   35MOL   H35228980   6.712   6.826   3.323 -0.8196 -0.4654 -0.7578
   35MOL   H35328981   6.615   6.801   3.467 -2.6784  0.4518  0.9321
   35MOL   H35428982   6.544   6.639   3.290 -0.4844 -0.1409  1.2880
   35MOL   H35528983   6.388   6.746   3.471 -2.0035  2.7071 -0.6214
   35MOL   H35628984   6.313   6.827   3.338 -1.6050 -1.1120 -0.6587
   35MOL   H35728985   6.362   6.527   3.357  1.5469  0.6894  0.9512
   35MOL   H35828986   6.257   6.616   3.244  2.0728  0.3040 -0.6339
   35MOL   H35928987   6.098   6.666   3.420 -0.1957 -0.7033  0.3053
   35MOL   H36028988   6.186   6.605   3.546  1.0876  1.1591 -1.1566
   35MOL   H36128989   6.055   6.451   3.313 -0.5302  2.2982  0.3200
   35MOL   H36228990   6.155   6.372   3.438  1.5428  1.1736  1.6713
   35MOL   H36328991   5.981   6.485   3.598  0.5620 -2.6120  1.0760
   35MOL   H36428992   5.882   6.516   3.455  0.8149 -0.2406  0.7496
   35MOL   H36528993   5.872   6.263   3.408  2.6541 -1.7277 -0.6170
   35MOL   H36628994   5.988   6.253   3.534  1.8805  2.3511  1.5213
   35MOL   H36728995   5.845   6.330   3.714  0.5955 -1.7575 -0.0683
   35MOL   H36828996   5.723   6.373   3.601  0.2236 -0.2683 -1.2382
   35MOL   H36928997   5.676   6.133   3.554 -0.1991  1.5947 -0.7608
   35MOL   H37028998   5.825   6.078   3.612 -0.9285 -1.3364 -1.5412
   35MOL   H37128999   5.587   6.189   3.783  0.2257  0.6594 -0.6596
   35MOL   H37229000   5.726   6.137   3.854 -1.3972 -3.2064  2.4039
   35MOL   H37329001   5.700   5.919   3.793  0.8154  1.0262 -0.2528
   35MOL   H37429002   5.553   5.939   3.681 -0.9544 -1.7745  1.4750
   35MOL   H37529003   5.564   5.989   3.978  0.4134 -0.7546  0.1195
   35MOL   H37629004   5.420   6.024   3.891  0.1273  0.3957 -1.7943
   35MOL   H37729005   5.403   5.829   4.016  4.3786  0.7343  1.8402
   35MOL   H37829006   5.389   5.790   3.839 -0.9352 -0.0238  0.5052
   35MOL   H37929007   5.537   5.748   3.937 -0.1893 -0.2131  1.6893
   35MOL   C38029008   6.475   6.777   3.147 -0.5507 -0.0976  0.7662
   35MOL   C38129009   6.551   6.685   3.048 -0.1784 -0.0293 -0.0407
   35MOL   C38229010   6.477   6.683   2.915  0.2710  0.5571 -0.6818
   35MOL   C38329011   6.346   6.600   2.919  0.0672  0.6176  0.6438
   35MOL   C38429012   6.260   6.616   2.790  0.2081 -0.5216  0.4495
   35MOL   C38529013   6.135   6.543   2.823 -0.7086  0.0371  1.3889
   35MOL   C38629014   6.039   6.555   2.711  0.2073  0.1616  0.1878
   35MOL   C38729015   5.911   6.486   2.742 -0.1182  0.0697  0.3856
   35MOL   C38829016   5.930   6.339   2.792  0.3061 -0.1455  0.5271
   35MOL   C38929017   5.796   6.275   2.825 -0.0654 -0.0664  0.3803
   35MOL   C39029018   5.809   6.127   2.856  1.0403  0.1975  0.4982
   35MOL   C39129019   5.675   6.057   2.881 -0.4670 -0.8671  0.4245
   35MOL   C39229020   5.673   5.908   2.910  0.2123  0.6201  0.0219
   35MOL   C39329021   5.532   5.852   2.908 -0.3415  0.1567  0.7227
   35MOL   H39429022   6.498   6.882   3.126 -3.4660  0.2691 -0.8740
   35MOL   H39529023   6.370   6.757   3.127 -0.1229 -1.7912  0.1206
   35MOL   H39629024   6.567   6.583   3.085  0.8321 -0.5980 -1.9736
   35MOL   H39729025   6.537   6.641   2.835  0.1861  2.2050 -1.6312
   35MOL   H39829026   6.442   6.779   2.876 -0.8094 -0.8076 -3.2181
   35MOL   H39929027   6.282   6.626   3.003 -0.5729  2.2436 -0.3195
   35MOL   H40029028   6.368   6.494   2.931 -4.8848 -0.3805  1.7616
   35MOL   H40129029   6.312   6.573   2.704 -0.4283 -2.4354  0.9912
   35MOL   H40229030   6.237   6.719   2.765  0.6370 -0.9413 -1.7508
   35MOL   H40329031   6.087   6.574   2.915 -0.4627 -0.0271  1.5399
   35MOL   H40429032   6.162   6.437   2.826 -1.8384 -0.3803 -1.4246
   35MOL   H40529033   6.017   6.660   2.692  0.4669 -0.1363 -1.8628
   35MOL   H40629034   6.077   6.521   2.615 -2.7216 -1.7620 -0.3605
   35MOL   H40729035   5.862   6.533   2.827 -2.2383  0.0449 -0.7852
   35MOL   H40829036   5.840   6.490   2.659  1.5308  0.6511 -1.0237
   35MOL   H40929037   5.976   6.282   2.711 -4.1764 -1.0525 -1.5389
   35MOL   H41029038   5.996   6.331   2.879 -0.1893 -2.0774  0.7579
   35MOL   H41129039   5.719   6.271   2.748  0.8982 -0.3897 -0.5733
   35MOL   H41229040   5.740   6.324   2.905 -1.7246  0.3847 -1.0510
   35MOL   H41329041   5.855   6.087   2.766 -1.0946  0.7985 -0.9118
   35MOL   H41429042   5.871   6.115   2.944  0.9906 -3.3854  0.1389
   35MOL   H41529043   5.595   6.078   2.811 -1.5302 -0.3873  1.7609
   35MOL   H41629044   5.648   6.098   2.978 -1.5961  0.3275 -0.3806
   35MOL   H41729045   5.744   5.853   2.848  3.3135  2.4434  1.8357
   35MOL   H41829046   5.704   5.898   3.014  1.4668  1.9028 -0.2139
   35MOL   H41929047   5.467   5.927   2.952  0.9972  2.1164 -0.5514
   35MOL   H42029048   5.526   5.754   2.955  0.7836  0.0592  0.6961
   35MOL   H42129049   5.496   5.840   2.806  0.4708  1.4828  0.2643
   35MOL   C42229050   6.701   6.729   3.023  0.3215 -0.4313  0.4106
   35MOL   C42329051   6.802   6.647   3.105 -0.4468 -0.3798 -0.0080
   35MOL   C42429052   6.819   6.504   3.040 -0.1168 -0.6022 -0.2354
   35MOL   C42529053   6.779   6.385   3.127 -0.4295 -0.6741  0.2815
   35MOL   C42629054   6.816   6.261   3.054  0.4246  0.3091  0.7935
   35MOL   C42729055   6.739   6.137   3.110 -0.0331 -0.2845  0.4570
   35MOL   C42829056   6.721   6.028   3.007 -0.8731  0.6875 -0.1291
   35MOL   C42929057   6.620   5.920   3.050  0.5487 -0.2848 -0.0277
   35MOL   C43029058   6.654   5.828   3.172 -0.6741 -0.4996  0.6300
   35MOL   C43129059   6.797   5.766   3.152  1.1157 -0.6875 -0.0951
   35MOL   C43229060   6.832   5.635   3.229  0.3396 -0.4610 -0.0854
   35MOL   C43329061   6.857   5.654   3.381 -0.3656 -0.4247  0.3931
   35MOL   C43429062   6.872   5.518   3.437 -0.5988 -0.2362  0.9975
   35MOL   C43529063   6.882   5.519   3.589  0.1665  0.1895  0.5433
   35MOL   H43629064   6.704   6.838   3.026  0.4888 -0.4370  0.4353
   35MOL   H43729065   6.733   6.716   2.920 -0.5819 -0.3885  0.1214
   35MOL   H43829066   6.768   6.638   3.208  0.9429 -1.1283  0.4072
   35MOL   H43929067   6.925   6.490   3.016 -0.5033 -3.6377 -0.3186
   35MOL   H44029068   6.763   6.503   2.946  1.2280  0.0828 -1.0647
   35MOL   H44129069   6.841   6.390   3.217 -0.6914  2.8886  0.3311
   35MOL   H44229070   6.671   6.393   3.142 -0.1371  1.3607  1.5181
   35MOL   H44329071   6.924   6.252   3.045  0.2803 -0.6359 -0.1569
   35MOL   H44429072   6.780   6.279   2.953  0.6059  0.3312  0.7329
   35MOL   H44529073   6.638   6.167   3.138 -0.4859 -0.6479 -0.7509
   35MOL   H44629074   6.792   6.100   3.197  0.8083  0.8613  0.4375
   35MOL   H44729075   6.687   6.075   2.915  0.4978  0.7229 -0.6328
   35MOL   H44829076   6.816   5.994   2.966 -2.0853  0.2161 -2.6442
   35MOL   H44929077   6.527   5.970   3.077  0.4693 -0.5618  0.2047
   35MOL   H45029078   6.608   5.863   2.957  1.3237  0.7778 -0.7997
   35MOL   H45129079   6.655   5.887   3.263  2.6167 -1.1016  1.0451
   35MOL   H45229080   6.579   5.748   3.171 -0.0822 -1.1256 -3.1414
   35MOL   H45329081   6.812   5.752   3.045  0.8333 -1.3209 -0.0566
   35MOL   H45429082   6.875   5.841   3.159  0.0198  0.3177  1.9536
   35MOL   H45529083   6.739   5.578   3.222 -0.6142  1.0650  0.0540
   35MOL   H45629084   6.919   5.579   3.194 -0.5329 -1.2682 -1.0066
   35MOL   H45729085   6.779   5.720   3.418 -0.0891 -0.3511  0.8496
   35MOL   H45829086   6.957   5.694   3.395 -0.9142 -0.0378  3.5596
   35MOL   H45929087   6.791   5.448   3.417  0.7560 -1.3503 -0.6617
   35MOL   H46029088   6.963   5.464   3.411 -0.1288  1.9204 -2.2179
   35MOL   H46129089   6.969   5.581   3.614  1.1958 -0.6112 -0.9664
   35MOL   H46229090   6.910   5.420   3.625 -0.0745  0.0095  0.2313
   35MOL   H46329091   6.792   5.544   3.644 -1.5034 -0.8522 -1.6229
   35MOL   C46429092   6.940   6.733   3.107  0.1455 -0.0128  0.2103
   35MOL   C46529093   7.052   6.679   3.206  0.0386  0.0268 -0.5736
   35MOL   C46629094   7.195   6.731   3.175 -0.0844 -0.0964  0.0514
   35MOL   C46729095   7.305   6.664   3.251  0.0518 -0.8903  0.3958
   35MOL   C46829096   7.439   6.714   3.193 -0.3540  0.2697 -0.3933
   35MOL   C46929097   7.556   6.639   3.238 -0.0062 -0.1570  0.5534
   35MOL   C47029098   7.570   6.631   3.388 -0.1345  0.2520 -0.0606
   35MOL   C47129099   7.693   6.555   3.425  1.0288  0.0454  0.3979
   35MOL   C47229100   0.045   6.576   3.570  0.0782 -0.3076  0.3033
   35MOL   C47329101   0.163   6.475   3.592 -0.1627  0.0913  0.2771
   35MOL   C47429102   0.233   6.481   3.729  0.1508  0.2854 -0.0395
   35MOL   C47529103   0.359   6.390   3.732  0.0319 -0.0278  0.3285
   35MOL   C47629104   0.397   6.346   3.875 -0.5591 -0.6472  0.0211
   35MOL   C47729105   0.444   6.462   3.966  0.0816 -0.4077 -0.3498
   35MOL   H47829106   6.922   6.837   3.131 -2.2008 -0.0492 -1.2069
   35MOL   H47929107   6.978   6.732   3.004 -0.1921 -0.4609  0.0848
   35MOL   H48029108   7.072   6.572   3.207 -2.2991 -0.4288 -0.1332
   35MOL   H48129109   7.213   6.726   3.068 -2.0773 -1.4574 -0.2488
   35MOL   H48229110   7.201   6.838   3.194  0.3642 -0.5148  2.4202
   35MOL   H48329111   7.297   6.557   3.232  2.3047 -1.2309  1.2304
   35MOL   H48429112   7.293   6.698   3.354 -0.5228  2.6980 -0.8094
   35MOL   H48529113   7.447   6.821   3.213  1.0170  0.3697 -1.3863
   35MOL   H48629114   7.434   6.693   3.086 -0.9970 -0.1486 -0.2843
   35MOL   H48729115   7.544   6.539   3.197  1.1688 -0.2273  0.3438
   35MOL   H48829116   7.649   6.677   3.196  1.0098 -0.0576  2.8158
   35MOL   H48929117   7.575   6.735   3.420  0.0118  0.0447  0.6040
   35MOL   H49029118   7.482   6.586   3.434 -0.1935  0.3602 -0.0703
   35MOL   H49129119   7.674   6.449   3.409 -0.2036  0.4361 -0.8486
   35MOL   H49229120   0.076   6.586   3.355  0.3019  1.8200  0.3418
   35MOL   H49329121   0.065   6.683   3.580  2.9088 -0.7861  0.0881
   35MOL   H49429122   7.661   6.556   3.642 -0.7311 -0.4351 -0.6061
   35MOL   H49529123   0.134   6.372   3.574 -1.0722  0.3853  0.0394
   35MOL   H49629124   0.232   6.507   3.513  0.9004 -0.7018  0.8697
   35MOL   H49729125   0.260   6.585   3.748 -1.9560  0.8585 -0.1007
   35MOL   H49829126   0.160   6.448   3.803  1.4160 -1.9790  0.2503
   35MOL   H49929127   0.444   6.438   3.684  0.9470 -1.1677  0.7947
   35MOL   H50029128   0.345   6.299   3.675 -1.1980 -0.2519  0.9658
   35MOL   H50129129   0.304   6.300   3.910 -0.2731  0.9239  2.9704
   35MOL   H50229130   0.479   6.274   3.873 -0.1160 -0.1175 -1.2288
   35MOL   H50329131   0.469   6.427   4.066  1.5989  1.1617 -0.1706
   35MOL   H50429132   0.523   6.515   3.913  1.4514 -0.8351  1.2179
   35MOL   H50529133   0.365   6.535   3.980  2.1422  1.7152  0.4810
   35MOL   C50629134   7.015   6.711   3.356  0.6595 -0.2830 -0.9493
   35MOL   C50729135   6.947   6.598   3.450 -0.5040 -1.0855  0.1215
   35MOL   C50829136   7.036   6.472   3.476  0.2176 -1.2072 -0.5109
   35MOL   C50929137   7.170   6.466   3.550 -0.6160 -0.6570 -0.2372
   35MOL   C51029138   7.241   6.326   3.535  0.9406  0.8562  0.0773
   35MOL   C51129139   7.383   6.319   3.601 -0.7132  0.3334  0.1085
   35MOL   C51229140   7.452   6.186   3.603 -0.2315 -0.3480  0.0093
   35MOL   C51329141   7.607   6.187   3.638 -0.8103 -0.6884 -1.0800
   35MOL   C51429142   7.669   6.051   3.662 -0.1156  0.3512  0.1911
   35MOL   C51529143   0.125   6.068   3.667 -0.4240 -0.6495  0.1246
   35MOL   C51629144   0.200   5.950   3.731  0.6727 -0.4611 -0.1975
   35MOL   C51729145   0.354   5.972   3.743  0.1022  0.5469 -0.0587
   35MOL   C51829146   0.433   5.849   3.798 -0.4958  0.3002 -0.5263
   35MOL   C51929147   0.460   5.741   3.683 -0.4059 -0.2489  0.5018
   35MOL   H52029148   6.941   6.792   3.355  1.1489  0.1766 -0.5069
   35MOL   H52129149   7.101   6.748   3.412  0.4316  0.3879 -1.0390
   35MOL   H52229150   6.850   6.569   3.411 -0.7654 -1.0363  0.7395
   35MOL   H52329151   6.974   6.394   3.520 -0.6088 -0.8484 -1.0453
   35MOL   H52429152   7.061   6.440   3.375  0.2702  2.8536 -1.8903
   35MOL   H52529153   7.242   6.540   3.514  1.4861 -2.4720  0.1172
   35MOL   H52629154   7.148   6.484   3.655  2.0095  0.2711  0.1967
   35MOL   H52729155   7.253   6.297   3.430  0.3176  0.5362  0.0970
   35MOL   H52829156   7.185   6.244   3.578  1.8742  0.3676  0.3754
   35MOL   H52929157   7.374   6.363   3.700  1.7228  2.7844 -0.6784
   35MOL   H53029158   7.456   6.378   3.544  2.2952 -0.6030  2.8188
   35MOL   H53129159   7.394   6.122   3.670  2.4192 -0.0151  2.7209
   35MOL   H53229160   7.445   6.139   3.505 -0.7442  0.1708 -0.2071
   35MOL   H53329161   7.626   6.264   3.713 -0.3206 -0.8793 -1.0087
   35MOL   H53429162   7.649   6.237   3.552  1.5373  0.1395  0.5033
   35MOL   H53529163   7.638   5.984   3.582  0.1687  0.0435  0.3372
   35MOL   H53629164   7.634   6.002   3.753 -0.1294  0.3989  0.2118
   35MOL   H53729165   0.153   6.071   3.561  1.2001 -0.5583  0.5422
   35MOL   H53829166   0.152   6.162   3.714 -3.1921  0.4265 -0.3144
   35MOL   H53929167   0.160   5.948   3.832  0.7209  0.5674 -0.1535
   35MOL   H54029168   0.173   5.853   3.689 -1.4966 -0.7069  1.6758
   35MOL   H54129169   0.383   6.046   3.818  0.2658 -0.8572  1.3068
   35MOL   H54229170   0.399   6.009   3.651 -0.3252  0.6517 -0.2220
   35MOL   H54329171   0.381   5.801   3.880 -0.2270 -1.4298 -1.3384
   35MOL   H54429172   0.532   5.882   3.831 -1.5402  1.1664  1.8303
   35MOL   H54529173   0.510   5.648   3.707  0.9259  0.2595 -0.2449
   35MOL   H54629174   0.369   5.718   3.627 -1.2342  1.1571  1.2280
   35MOL   H54729175   0.510   5.786   3.597  0.4742 -1.0199  0.6138
   35MOL   C54829176   6.909   6.659   3.590  0.4524  0.0769 -0.4913
   35MOL   C54929177   6.813   6.558   3.668 -0.0137  0.2797  0.5761
   35MOL   C55029178   6.830   6.570   3.821 -0.0712  0.2424  0.1755
   35MOL   C55129179   6.958   6.526   3.893  0.1642 -0.1075 -0.4303
   35MOL   C55229180   6.989   6.373   3.883  0.4604  0.4139  0.2422
   35MOL   C55329181   7.096   6.308   3.968  0.2315  0.0440  0.1459
   35MOL   C55429182   7.134   6.164   3.925  0.8883 -0.9031  0.2425
   35MOL   C55529183   7.171   6.080   4.050 -0.3034 -0.0345 -0.0730
   35MOL   C55629184   7.270   5.963   4.011 -0.0795  0.1451 -0.4453
   35MOL   C55729185   7.194   5.842   3.945  0.6361  0.2547  0.0976
   35MOL   C55829186   7.081   5.783   4.022  0.0033  0.3013 -0.2961
   35MOL   C55929187   7.034   5.646   3.957 -0.5219 -0.0275 -0.6376
   35MOL   C56029188   7.091   5.522   4.023 -0.4186 -0.1950  0.1275
   35MOL   C56129189   7.091   5.400   3.927 -0.4790  1.0606  0.4345
   35MOL   H56229190   7.002   6.662   3.648 -0.4263 -0.1329  0.9554
   35MOL   H56329191   6.868   6.759   3.577 -2.0316 -0.8154  0.2102
   35MOL   H56429192   6.822   6.454   3.636  1.3240  0.6828 -0.4022
   35MOL   H56529193   6.811   6.673   3.848 -1.8652  0.6864 -2.5580
   35MOL   H56629194   6.747   6.519   3.869  0.3047  0.2363  0.8201
   35MOL   H56729195   6.950   6.550   3.999 -0.2512  3.2464 -1.1651
   35MOL   H56829196   7.045   6.587   3.867 -0.4761  1.2258  0.5355
   35MOL   H56929197   6.898   6.326   3.919  0.2532  0.4642 -0.2152
   35MOL   H57029198   7.001   6.352   3.777 -1.8666  0.2858 -0.0242
   35MOL   H57129199   7.059   6.299   4.070  1.4759 -0.3156  0.5788
   35MOL   H57229200   7.181   6.374   3.982  0.0281  0.5531 -0.9844
   35MOL   H57329201   7.039   6.127   3.886 -0.3410  3.2114 -0.9608
   35MOL   H57429202   7.209   6.164   3.846  0.1987 -1.5334 -0.4289
   35MOL   H57529203   7.082   6.053   4.108  1.1640 -3.1362  0.8576
   35MOL   H57629204   7.221   6.155   4.111 -0.1012 -1.0887  1.0852
   35MOL   H57729205   7.315   5.916   4.099 -2.6520 -0.7142  0.4386
   35MOL   H57829206   7.353   5.989   3.944 -1.4127 -0.8369 -2.5123
   35MOL   H57929207   7.162   5.866   3.843  0.3763 -0.9765 -0.1217
   35MOL   H58029208   7.275   5.769   3.942  1.1275  0.6806  2.3754
   35MOL   H58129209   6.998   5.854   4.020 -0.6556 -0.4376  0.4501
   35MOL   H58229210   7.096   5.780   4.130  3.2530  1.1209 -0.6820
   35MOL   H58329211   6.928   5.622   3.952 -0.4065 -0.9508  0.9775
   35MOL   H58429212   7.073   5.647   3.856 -1.9549  0.7180 -1.2079
   35MOL   H58529213   7.191   5.540   4.062 -0.5065  2.2728 -0.6743
   35MOL   H58629214   7.036   5.497   4.113  0.6297  1.1262  1.1501
   35MOL   H58729215   7.142   5.310   3.960 -1.7734 -0.6006 -1.8682
   35MOL   H58829216   6.990   5.368   3.902 -0.2408  0.8404 -0.2593
   35MOL   H58929217   7.132   5.423   3.828  0.5287  0.9961  0.8360
   35MOL   C59029218   6.670   6.592   3.636  0.0023 -0.0294  0.2091
   35MOL   C59129219   6.565   6.481   3.665  0.3284  0.3667 -0.6972
   35MOL   C59229220   6.431   6.536   3.705  0.0694 -0.1958  0.5284
   35MOL   C59329221   6.327   6.433   3.747  0.1675  0.1828 -0.3155
   35MOL   C59429222   6.363   6.353   3.872  0.4185  0.0403 -1.1359
   35MOL   C59529223   6.257   6.235   3.899 -0.9475  0.1311  0.6984
   35MOL   C59629224   6.274   6.171   4.029 -0.3401  1.1682  0.6033
   35MOL   C59729225   6.209   6.236   4.146 -0.0017  0.4299  0.6730
   35MOL   C59829226   6.057   6.238   4.135 -0.9123  0.0570 -0.3530
   35MOL   C59929227   5.999   6.245   4.270 -0.4328  0.2326 -0.6236
   35MOL   C60029228   5.854   6.197   4.287 -0.2505 -0.0914  0.2031
   35MOL   C60129229   5.785   6.235   4.422 -0.5713  0.0035 -0.8888
   35MOL   C60229230   5.753   6.381   4.447  0.1136 -0.2657  0.1826
   35MOL   C60329231   5.683   6.405   4.583  0.2493  0.8084  0.3485
   35MOL   H60429232   6.665   6.622   3.531  2.2433 -1.0301 -0.2149
   35MOL   H60529233   6.629   6.679   3.688  1.2634  1.3252 -1.0340
   35MOL   H60629234   6.606   6.426   3.750 -0.0982  0.9112 -0.1382
   35MOL   H60729235   6.400   6.602   3.624  0.8956  2.6562  2.4557
   35MOL   H60829236   6.446   6.602   3.791  1.1831 -1.5240  1.3835
   35MOL   H60929237   6.312   6.370   3.660  4.2059 -1.8131  0.3218
   35MOL   H61029238   6.228   6.474   3.765 -1.2045 -2.3473 -1.8065
   35MOL   H61129239   6.359   6.416   3.961 -0.1957 -1.1881 -0.2768
   35MOL   H61229240   6.464   6.311   3.874  0.4441  0.1110 -0.6724
   35MOL   H61329241   6.263   6.166   3.816  0.3766  0.9060  0.1390
   35MOL   H61429242   6.157   6.279   3.895 -0.8786  0.3164  0.9906
   35MOL   H61529243   6.250   6.066   4.010 -1.5780  1.6980 -0.8827
   35MOL   H61629244   6.380   6.165   4.051 -0.4923  0.3733  1.1181
   35MOL   H61729245   6.248   6.186   4.235  1.1107  0.9570  0.4801
   35MOL   H61829246   6.252   6.334   4.165  0.6930  0.1112  0.7540
   35MOL   H61929247   6.014   6.308   4.063  1.2652  1.4020 -0.3958
   35MOL   H62029248   6.029   6.139   4.098 -1.3272 -0.4708  1.3106
   35MOL   H62129249   6.062   6.193   4.342 -2.7408 -1.6068  0.1292
   35MOL   H62229250   6.004   6.348   4.304 -2.3446 -0.5625  2.2135
   35MOL   H62329251   5.846   6.089   4.276 -1.0952 -0.2063  1.8032
   35MOL   H62429252   5.797   6.248   4.210  0.5028 -2.3519 -1.9021
   35MOL   H62529253   5.847   6.199   4.504 -0.8206 -1.7299 -1.4399
   35MOL   H62629254   5.697   6.173   4.437 -0.9365  0.8047  0.2989
   35MOL   H62729255   5.843   6.441   4.443  0.1203 -0.2719  0.2512
   35MOL   H62829256   5.693   6.423   4.366 -1.6429 -0.3314  1.4145
   35MOL   H62929257   5.579   6.373   4.595  0.2600  0.7766  0.3518
   35MOL   H63029258   5.694   6.511   4.607  2.0699  1.2660 -2.2833
   35MOL   H63129259   5.729   6.360   4.671 -2.7376 -0.3271  1.3989
   35MOL   C63229260   6.561   6.381   3.543 -0.2490 -0.4201 -0.0462
   35MOL   C63329261   6.572   6.228   3.567 -0.2429  0.3809 -0.4196
   35MOL   C63429262   6.519   6.160   3.437 -0.3094 -0.4701 -0.1208
   35MOL   C63529263   6.370   6.118   3.440  0.1755  0.2027  0.9922
   35MOL   C63629264   6.321   6.043   3.311 -0.3375 -0.1413  0.1005
   35MOL   C63729265   6.295   6.129   3.184 -0.3195 -0.5138 -0.4182
   35MOL   C63829266   6.248   6.033   3.073  0.4303  0.3635 -0.8046
   35MOL   C63929267   6.233   6.123   2.941  0.4260  0.8845  0.2335
   35MOL   C64029268   6.371   6.115   2.870 -0.0108  1.1407  0.1777
   35MOL   C64129269   6.385   6.201   2.744  0.0591  0.3814  0.0483
   35MOL   C64229270   6.527   6.203   2.692 -0.9587  0.3666 -0.2422
   35MOL   C64329271   6.550   6.295   2.563 -0.1122 -0.0327  0.1737
   35MOL   C64429272   6.575   6.446   2.593 -0.2256  0.2983  0.0729
   35MOL   C64529273   6.581   6.527   2.463 -0.6126 -0.4463  0.0038
   35MOL   H64629274   6.644   6.410   3.478  0.8196 -0.2718  1.3567
   35MOL   H64729275   6.475   6.399   3.478 -1.1482 -0.4658  1.1138
   35MOL   H64829276   6.516   6.191   3.653  1.3959 -1.4292 -0.1101
   35MOL   H64929277   6.543   6.224   3.352  2.9479 -2.1171 -0.5188
   35MOL   H65029278   6.581   6.075   3.407 -0.7040 -1.0985  0.8255
   35MOL   H65129279   6.308   6.207   3.453  0.0116  0.2607 -0.0898
   35MOL   H65229280   6.354   6.058   3.529 -0.7864 -0.4611  0.3811
   35MOL   H65329281   6.226   5.994   3.334 -0.9321 -1.2665 -4.2151
   35MOL   H65429282   6.385   5.962   3.275 -0.2718  1.0518 -2.5564
   35MOL   H65529283   6.226   6.211   3.203 -1.2419 -0.5365 -3.4397
   35MOL   H65629284   6.390   6.174   3.153  0.0496  0.7886  2.3903
   35MOL   H65729285   6.309   5.945   3.050 -1.3861 -0.6661 -1.8207
   35MOL   H65829286   6.148   6.000   3.104  1.1145  1.1518  2.4642
   35MOL   H65929287   6.213   6.227   2.965 -0.4655  0.5579  0.8890
   35MOL   H66029288   6.150   6.084   2.883  1.0653 -1.8536  1.0709
   35MOL   H66129289   6.395   6.011   2.850  0.9946  2.0275 -3.5487
   35MOL   H66229290   6.446   6.149   2.942  0.3412 -2.8719  1.8638
   35MOL   H66329291   6.316   6.177   2.664  0.2679  1.3634 -0.4330
   35MOL   H66429292   6.350   6.298   2.778  1.0748  0.5175  0.7543
   35MOL   H66529293   6.590   6.242   2.772 -0.2015  1.0974 -1.1967
   35MOL   H66629294   6.561   6.102   2.668  2.2396  1.4929 -0.6497
   35MOL   H66729295   6.461   6.282   2.502 -0.8637 -2.4683  1.7055
   35MOL   H66829296   6.636   6.246   2.515  0.9088  0.5055  1.4217
   35MOL   H66929297   6.679   6.444   2.626 -0.1670 -0.7233 -0.1738
   35MOL   H67029298   6.507   6.484   2.670 -0.4911  0.1860 -0.1083
   35MOL   H67129299   6.665   6.499   2.400 -0.7515 -0.8400 -0.0070
   35MOL   H67229300   6.494   6.515   2.399  0.4860 -0.3291 -1.5100
   35MOL   H67329301   6.580   6.629   2.503  1.4831 -0.0868 -0.8084
   35MOL   C67429302   6.713   6.184   3.587  0.4123 -0.0781 -0.1455
   35MOL   C67529303   6.748   6.034   3.605  0.0713 -0.8793  0.1969
   35MOL   C67629304   6.906   6.012   3.601  0.3638 -0.0774  0.3589
   35MOL   C67729305   6.958   6.025   3.458  0.5019 -0.3277 -0.0059
   35MOL   C67829306   7.099   5.980   3.435 -0.4310  0.0232  0.1788
   35MOL   C67929307   7.154   5.976   3.284  0.1690 -0.6425  0.4819
   35MOL   C68029308   7.161   6.111   3.206 -0.0056  0.4098  0.0408
   35MOL   C68129309   7.240   6.117   3.079  0.2252 -0.8452  0.8482
   35MOL   C68229310   7.288   6.264   3.051 -0.3938 -0.3582 -0.3061
   35MOL   C68329311   7.386   6.270   2.926  0.2056 -0.2447 -0.2824
   35MOL   C68429312   7.484   6.386   2.942 -0.3220 -0.3123  0.2416
   35MOL   C68529313   7.598   6.390   2.839  0.2159 -0.6262 -0.3038
   35MOL   C68629314   7.554   6.391   2.694  0.0968  0.0392  0.6212
   35MOL   C68729315   7.665   6.406   2.588  0.5062 -1.1844 -0.4232
   35MOL   H68829316   6.753   6.241   3.671  0.3090  0.2783 -0.3366
   35MOL   H68929317   6.766   6.213   3.496 -0.7832 -1.1621 -1.1996
   35MOL   H69029318   6.710   5.968   3.526  1.3240 -0.5821 -0.6653
   35MOL   H69129319   6.963   6.084   3.659  0.0826  1.7540 -1.5932
   35MOL   H69229320   6.937   5.917   3.645  3.0907  1.4118  1.8165
   35MOL   H69329321   6.903   5.961   3.389  0.1144  1.2765 -1.1879
   35MOL   H69429322   6.947   6.127   3.423  0.9660  0.8090  2.9773
   35MOL   H69529323   7.170   6.047   3.483  0.3226  0.0791 -0.9789
   35MOL   H69629324   7.125   5.885   3.483  2.6186  1.5182  1.6546
   35MOL   H69729325   7.256   5.939   3.281  0.6540  0.7444 -0.5587
   35MOL   H69829326   7.090   5.908   3.228 -0.3154  0.9792 -0.9848
   35MOL   H69929327   7.059   6.144   3.186 -0.6011 -1.7304 -0.6655
   35MOL   H70029328   7.211   6.180   3.273  2.1452 -0.9744 -0.0745
   35MOL   H70129329   7.324   6.048   3.090  0.2947 -0.9543 -0.3792
   35MOL   H70229330   7.180   6.088   2.993 -2.0057 -1.7782  2.6563
   35MOL   H70329331   7.201   6.330   3.052 -0.9264 -1.0319 -1.2050
   35MOL   H70429332   7.322   6.300   3.148 -1.3244 -1.7603  0.5749
   35MOL   H70529333   7.328   6.276   2.834 -1.6799 -2.0916  0.7419
   35MOL   H70629334   7.441   6.179   2.902 -1.7309 -1.3983 -0.4314
   35MOL   H70729335   7.526   6.378   3.042  3.3149 -0.3532 -1.2225
   35MOL   H70829336   7.432   6.482   2.944 -2.5799 -1.5170  1.7247
   35MOL   H70929337   7.665   6.307   2.857 -0.4064 -1.1514 -0.3845
   35MOL   H71029338   7.650   6.483   2.862 -2.4237  1.0003 -0.6899
   35MOL   H71129339   7.511   6.292   2.680 -0.0447  0.4000 -1.6025
   35MOL   H71229340   7.494   6.482   2.696  0.1953  0.1991 -1.9818
   35MOL   H71329341   7.624   6.401   2.487 -0.2998  1.1999 -0.2393
   35MOL   H71429342   0.009   6.506   2.604  1.5497 -1.8288  1.0955
   35MOL   H71529343   0.053   6.339   2.611  2.2281  1.8000  2.3863
   35MOL   C71629344   6.699   5.984   3.738  0.0902 -0.3482  0.1277
   35MOL   C71729345   6.635   5.837   3.738  0.0305 -0.2629 -0.3249
   35MOL   C71829346   6.622   5.773   3.879 -0.4957 -0.1698  0.1530
   35MOL   C71929347   6.535   5.841   3.994  0.2607 -0.0298  0.4620
   35MOL   C72029348   6.540   5.759   4.124 -0.5195 -0.2167  0.2208
   35MOL   C72129349   6.684   5.763   4.188  0.0712  0.0946 -0.0211
   35MOL   C72229350   6.700   5.708   4.329  0.1607 -0.1871  0.7474
   35MOL   C72329351   6.833   5.759   4.384 -0.5027  0.1920  0.3292
   35MOL   C72429352   6.871   5.726   4.527  0.2572  0.0635 -0.3590
   35MOL   C72529353   6.787   5.803   4.637 -0.5689  0.4756  0.5114
   35MOL   C72629354   6.832   5.756   4.773 -0.7178 -0.0046 -0.6347
   35MOL   C72729355   6.735   5.804   4.881  0.1300  0.1200  0.2457
   35MOL   C72829356   6.767   5.750   5.019 -0.4037 -0.4072 -0.4637
   35MOL   C72929357   6.654   5.775   5.116  0.4048  0.3997 -0.0946
   35MOL   H73029358   6.787   5.977   3.803  0.1177 -0.6562  0.0624
   35MOL   H73129359   6.649   6.066   3.787  0.8256 -0.4174  1.0090
   35MOL   H73229360   6.689   5.761   3.682  0.2875  2.0018 -3.2926
   35MOL   H73329361   6.726   5.771   3.911 -0.5137  1.2360  0.3522
   35MOL   H73429362   6.596   5.667   3.888  1.2644 -0.5054  1.3771
   35MOL   H73529363   6.576   5.939   4.020  1.4301 -0.2657 -0.4350
   35MOL   H73629364   6.430   5.849   3.969  0.8418  2.3425 -1.2976
   35MOL   H73729365   6.465   5.809   4.186 -0.2111  2.0234 -1.1242
   35MOL   H73829366   6.498   5.664   4.092 -0.3979 -0.7334  1.5880
   35MOL   H73929367   6.746   5.703   4.120  0.4471 -1.8459  1.9851
   35MOL   H74029368   6.725   5.863   4.175  0.1476  0.2687  1.5414
   35MOL   H74129369   6.612   5.749   4.378  0.5650  0.8401  0.6323
   35MOL   H74229370   6.691   5.600   4.329 -0.6534 -0.1333 -0.5731
   35MOL   H74329371   6.832   5.868   4.385 -1.2802  0.1860  3.2783
   35MOL   H74429372   6.923   5.741   4.324 -0.6286 -0.3562  0.3064
   35MOL   H74529373   6.859   5.620   4.548 -0.7265  0.3662  0.6307
   35MOL   H74629374   6.975   5.758   4.541  0.0135  0.4677  0.5177
   35MOL   H74729375   6.795   5.912   4.633 -2.1771  0.5982 -0.0254
   35MOL   H74829376   6.681   5.786   4.616 -0.3790  1.2849 -1.2508
   35MOL   H74929377   6.838   5.648   4.779  0.9277  0.0659 -0.7520
   35MOL   H75029378   6.936   5.783   4.791 -0.9111 -0.0535  0.6192
   35MOL   H75129379   6.733   5.913   4.882  1.9710  0.1799  0.2019
   35MOL   H75229380   6.637   5.771   4.848 -0.6418 -0.5261  3.0663
   35MOL   H75329381   6.860   5.798   5.046 -0.0474 -0.7839 -1.0159
   35MOL   H75429382   6.785   5.643   5.005  0.4445 -0.1514 -1.3614
   35MOL   H75529383   6.632   5.881   5.125 -0.3597  0.4047 -1.8576
   35MOL   H75629384   6.679   5.733   5.214  0.7375 -0.2592 -0.4604
   35MOL   H75729385   6.570   5.714   5.080  0.7705  0.2426 -0.6871
   35MOL   C75829386   6.498   5.855   3.663 -0.0536  0.3306  0.0866
   35MOL   C75929387   6.391   5.739   3.660 -0.2023  0.4560  0.4356
   35MOL   C76029388   6.245   5.787   3.648  0.1819  0.4551  0.2297
   35MOL   C76129389   6.188   5.844   3.782 -0.6006  0.0710 -0.1845
   35MOL   C76229390   6.041   5.885   3.778  0.4076 -0.0881 -0.6349
   35MOL   C76329391   6.001   5.895   3.932 -0.0467  0.3452  0.4160
   35MOL   C76429392   5.961   5.758   3.993  0.5537  0.3950  0.1134
   35MOL   C76529393   5.870   5.757   4.117 -0.4108 -0.4488 -0.4677
   35MOL   C76629394   5.923   5.813   4.251 -1.0506  0.7933 -0.2696
   35MOL   C76729395   5.825   5.822   4.368 -0.7119  0.3915  0.7743
   35MOL   C76829396   5.898   5.864   4.497 -0.5403 -0.5644 -0.9758
   35MOL   C76929397   5.804   5.857   4.626 -0.4155  0.7460  0.2621
   35MOL   C77029398   5.888   5.905   4.752  0.0009 -0.1113  1.0528
   35MOL   C77129399   5.801   5.884   4.877  0.5683 -0.1026 -0.1892
   35MOL   H77229400   6.438   5.932   3.712 -1.4445 -0.6328 -0.0776
   35MOL   H77329401   6.517   5.902   3.566 -0.1397  0.6231  0.2105
   35MOL   H77429402   6.397   5.683   3.754 -1.6866  2.0584  1.5178
   35MOL   H77529403   6.231   5.858   3.566  0.9417 -0.8739 -1.0773
   35MOL   H77629404   6.174   5.705   3.635  1.8323 -1.0623  0.6956
   35MOL   H77729405   6.202   5.779   3.868 -0.8780  2.1875  1.5159
   35MOL   H77829406   6.236   5.936   3.815  0.9836 -0.0601 -2.0656
   35MOL   H77929407   5.972   5.815   3.730 -1.2818 -0.3513  2.1026
   35MOL   H78029408   6.036   5.980   3.726  1.7572  1.3060  1.7124
   35MOL   H78129409   5.918   5.966   3.932  1.7100  2.4595 -0.5419
   35MOL   H78229410   6.086   5.920   3.995 -0.3175 -1.0112  1.3405
   35MOL   H78329411   5.912   5.692   3.921 -0.6702  1.1621  0.2209
   35MOL   H78429412   6.052   5.703   4.019  0.2862 -0.4743 -0.7354
   35MOL   H78529413   5.832   5.657   4.133  2.3518 -1.3933  0.4695
   35MOL   H78629414   5.780   5.814   4.094 -1.0509 -0.4227  1.9237
   35MOL   H78729415   5.962   5.915   4.241 -0.8827  0.9053  1.2926
   35MOL   H78829416   6.013   5.761   4.284 -1.0262  2.4335  2.4569
   35MOL   H78929417   5.770   5.729   4.379 -1.6800  0.9103  0.3343
   35MOL   H79029418   5.753   5.897   4.337 -1.8395 -1.1419 -0.3912
   35MOL   H79129419   5.982   5.796   4.506  0.0629  0.4517  1.2521
   35MOL   H79229420   5.938   5.964   4.482 -2.0970  0.0780 -0.9511
   35MOL   H79329421   5.713   5.916   4.612  0.0613  1.3772 -0.2568
   35MOL   H79429422   5.785   5.753   4.650  3.3227 -0.5660 -1.9099
   35MOL   H79529423   5.979   5.846   4.759 -1.1490 -1.9148  0.9291
   35MOL   H79629424   5.919   6.010   4.749 -2.5232  0.6719  0.0852
   35MOL   H79729425   5.699   5.923   4.874  0.7208  0.3432  0.1616
   35MOL   H79829426   5.786   5.778   4.895  0.1749 -0.3638 -1.9703
   35MOL   H79929427   5.850   5.940   4.957  2.3165 -0.9950 -0.6212
   35MOL   C80029428   6.438   5.637   3.552  0.1832  0.3207 -0.4562
   35MOL   C80129429   6.353   5.506   3.553  0.1956  0.4004 -0.2362
   35MOL   C80229430   6.421   5.392   3.490  0.2375  0.2224 -0.4461
   35MOL   C80329431   6.332   5.279   3.469  0.8986 -0.2482  0.4032
   35MOL   C80429432   6.402   5.169   3.393  0.5796  0.1658  0.0631
   35MOL   C80529433   6.337   5.033   3.377 -1.0824 -0.9958  0.2389
   35MOL   C80629434   6.415   4.943   3.281 -0.4169 -0.0648  1.0090
   35MOL   C80729435   6.417   4.997   3.136 -0.1399  0.0357 -0.1347
   35MOL   C80829436   6.487   4.904   3.033 -0.2259 -0.1825  0.1040
   35MOL   C80929437   6.479   4.944   2.882  0.4114 -0.7447 -0.2895
   35MOL   C81029438   6.530   5.087   2.835 -0.4130 -0.3060  0.1246
   35MOL   C81129439   6.520   5.117   2.687 -0.1327  0.0492  0.5488
   35MOL   C81229440   6.588   5.258   2.653 -0.0297 -0.3662  0.4621
   35MOL   C81329441   6.569   5.309   2.505  0.0932  0.4284  0.4948
   35MOL   H81429442   6.536   5.600   3.582 -0.1207 -0.6032 -0.5596
   35MOL   H81529443   6.449   5.699   3.464  1.3495  1.4669  0.4891
   35MOL   H81629444   6.256   5.521   3.506 -0.3162  0.3283  0.7802
   35MOL   H81729445   6.500   5.358   3.557 -0.1470 -0.9691 -0.5758
   35MOL   H81829446   6.466   5.410   3.393  1.6065 -0.2586  0.0853
   35MOL   H81929447   6.238   5.304   3.418 -0.0597  0.4580  2.4707
   35MOL   H82029448   6.298   5.237   3.564 -2.5837  1.8558  0.1631
   35MOL   H82129449   6.406   5.219   3.296  2.0347  1.3336  0.7093
   35MOL   H82229450   6.503   5.159   3.433  1.2873 -2.5178 -2.2116
   35MOL   H82329451   6.242   5.032   3.325 -1.8218 -0.4534  1.5553
   35MOL   H82429452   6.318   4.990   3.475  0.4783  1.2997  1.6141
   35MOL   H82529453   6.517   4.927   3.317 -0.0647  0.4857  0.2750
   35MOL   H82629454   6.369   4.845   3.289  1.4547 -1.3264 -2.5910
   35MOL   H82729455   6.314   5.016   3.107 -0.0044 -0.3907 -0.9048
   35MOL   H82829456   6.476   5.089   3.131  0.6665 -0.4564  0.1970
   35MOL   H82929457   6.594   4.899   3.051 -0.5067 -0.2067  1.8661
   35MOL   H83029458   6.451   4.802   3.046  0.1701 -0.4537 -0.9255
   35MOL   H83129459   6.378   4.937   2.843 -0.6315  1.6258  1.8831
   35MOL   H83229460   6.530   4.871   2.819  1.1284  1.2549 -2.0484
   35MOL   H83329461   6.461   5.158   2.880 -2.4865 -1.0797 -1.7279
   35MOL   H83429462   6.632   5.102   2.870 -0.0900 -0.7119 -0.6119
   35MOL   H83529463   6.415   5.107   2.659  0.0815 -1.3246  0.1671
   35MOL   H83629464   6.583   5.034   2.653 -0.5705 -0.2516  0.4788
   35MOL   H83729465   6.538   5.334   2.714 -2.1472  1.1864 -3.0832
   35MOL   H83829466   6.694   5.265   2.677  0.4484  1.1284 -1.8844
   35MOL   H83929467   6.632   5.398   2.490 -1.9249  1.6323 -1.1495
   35MOL   H84029468   6.571   5.244   2.418 -0.8011  1.1753 -0.0902
   35MOL   H84129469   6.467   5.345   2.490 -0.6630 -1.4115  1.1495
   35MOL   H84229470   6.343   5.477   3.658  0.5277  2.4937  0.3914
   36MOL     C129471   6.503   1.949   0.549 -0.5392 -0.2813  0.6837
   36MOL     C229472   6.449   2.094   0.528 -0.0771  0.3077  0.1069
   36MOL     C329473   6.554   2.190   0.581 -0.1421 -0.4359  0.9252
   36MOL     C429474   6.680   2.213   0.496  0.1832 -0.1612 -0.1022
   36MOL     C529475   6.792   2.280   0.572  0.1910 -0.5582 -0.3594
   36MOL     C629476   6.901   2.344   0.480 -0.0977 -0.1204 -0.2056
   36MOL     C729477   7.022   2.399   0.562  0.0308 -0.2098 -0.6343
   36MOL     C829478   7.115   2.505   0.496  0.0518 -0.4591  0.1386
   36MOL     C929479   7.213   2.559   0.602 -0.1796 -0.3557  0.3456
   36MOL    C1029480   7.293   2.679   0.560  0.2199 -0.0216  0.7252
   36MOL    C1129481   7.390   2.728   0.669 -0.3742 -0.7489 -0.5651
   36MOL    C1229482   7.474   2.851   0.632 -0.2500 -0.3140  0.1797
   36MOL    C1329483   7.587   2.819   0.536 -0.5692 -0.4460  0.5227
   36MOL    C1429484   7.686   2.935   0.525 -0.6773  0.0090 -0.7755
   36MOL    H1529485   6.428   1.879   0.513 -0.8557  0.0915  0.6161
   36MOL    H1629486   6.512   1.925   0.655 -0.4608  1.1814  1.0234
   36MOL    H1729487   6.358   2.100   0.587 -0.9889 -1.6047 -1.0720
   36MOL    H1829488   6.510   2.290   0.591  1.9517  0.4571  1.3592
   36MOL    H1929489   6.583   2.156   0.681 -2.0912 -2.3097  0.9005
   36MOL    H2029490   6.660   2.267   0.403  0.7050  0.7259  0.2939
   36MOL    H2129491   6.725   2.118   0.470  0.9943  0.3546 -0.5806
   36MOL    H2229492   6.833   2.197   0.629  0.4629  0.6854  1.2700
   36MOL    H2329493   6.757   2.369   0.623  0.9894 -0.6990  0.4376
   36MOL    H2429494   6.846   2.420   0.424  0.4114 -1.2174 -2.2396
   36MOL    H2529495   6.927   2.266   0.408  2.0525 -1.3358  1.8205
   36MOL    H2629496   6.992   2.463   0.645 -0.0867  1.2452 -1.7732
   36MOL    H2729497   7.070   2.318   0.616  0.0204 -0.6536 -1.2802
   36MOL    H2829498   7.055   2.581   0.446  2.2968  0.1824 -1.6587
   36MOL    H2929499   7.167   2.466   0.409  0.7181 -0.1850  0.4141
   36MOL    H3029500   7.155   2.581   0.692  1.5054 -0.7755  1.5539
   36MOL    H3129501   7.276   2.481   0.646  1.4892  0.1426 -1.1364
   36MOL    H3229502   7.359   2.652   0.478 -2.9937 -0.3819 -1.8880
   36MOL    H3329503   7.225   2.757   0.524 -1.5417 -2.4608 -1.4695
   36MOL    H3429504   7.338   2.753   0.762 -0.5236 -1.1241 -0.5461
   36MOL    H3529505   7.459   2.648   0.697  0.7605  0.1334 -0.8169
   36MOL    H3629506   7.524   2.890   0.721  0.7529 -2.9321  0.8096
   36MOL    H3729507   7.410   2.933   0.598 -1.5361 -0.7504  1.5108
   36MOL    H3829508   7.645   2.734   0.572  0.0949  0.0769  0.7118
   36MOL    H3929509   7.560   2.784   0.436 -1.8335 -1.5183  1.2378
   36MOL    H4029510   0.034   2.960   0.622 -1.5296  1.3321 -0.7266
   36MOL    H4129511   0.081   2.909   0.470  1.3276  0.4964  2.1797
   36MOL    H4229512   7.637   3.025   0.489  0.2188  1.0595  0.5933
   36MOL    H4329513   6.595   1.922   0.496 -0.9043 -1.6921  0.7375
   36MOL    C4429514   6.422   2.123   0.377  0.2181  0.0019  0.1770
   36MOL    C4529515   6.377   2.270   0.345  0.3545  0.1497 -0.5627
   36MOL    C4629516   6.260   2.317   0.431  0.0924 -0.7155 -0.2258
   36MOL    C4729517   6.252   2.467   0.441  0.0754  0.5461 -0.1490
   36MOL    C4829518   6.147   2.518   0.543  0.7782 -1.2632 -0.8682
   36MOL    C4929519   6.170   2.659   0.593  0.4802  0.3832  0.2296
   36MOL    C5029520   6.070   2.686   0.706  0.3768 -0.1088 -0.1524
   36MOL    C5129521   6.092   2.831   0.761 -0.2404 -0.4913  0.0648
   36MOL    C5229522   6.052   2.947   0.666  0.1120 -0.0645 -0.0590
   36MOL    C5329523   6.044   3.078   0.753  0.2721  0.3887 -0.7995
   36MOL    C5429524   6.028   3.199   0.656  0.9949  0.0528 -0.1616
   36MOL    C5529525   5.892   3.206   0.590 -0.3222  0.5514 -0.0824
   36MOL    C5629526   5.876   3.345   0.531  0.0891  0.0251 -0.1939
   36MOL    C5729527   5.734   3.375   0.471  0.2886 -0.9311 -0.6344
   36MOL    H5829528   6.512   2.099   0.321  0.2684 -0.4693  0.4619
   36MOL    H5929529   6.353   2.051   0.334 -0.0781 -0.0320  0.7043
   36MOL    H6029530   6.465   2.332   0.356  1.6185 -1.0949 -3.1502
   36MOL    H6129531   6.169   2.277   0.386 -0.2473  1.8686 -2.0332
   36MOL    H6229532   6.261   2.286   0.535  0.5753  0.6015  0.1818
   36MOL    H6329533   6.230   2.507   0.342  2.5337  0.0167 -0.9333
   36MOL    H6429534   6.350   2.502   0.474  1.6319 -1.6443 -2.2546
   36MOL    H6529535   6.130   2.440   0.617  0.1438 -0.9511 -0.6805
   36MOL    H6629536   6.048   2.523   0.498  0.1329 -0.2919  0.6466
   36MOL    H6729537   6.274   2.680   0.619  0.5503  0.3660 -0.0442
   36MOL    H6829538   6.142   2.720   0.507  2.5806 -1.0493 -1.4962
   36MOL    H6929539   5.967   2.672   0.675  0.8773 -1.8571 -1.0852
   36MOL    H7029540   6.086   2.612   0.785 -0.3348  0.1507  0.2387
   36MOL    H7129541   6.193   2.846   0.797 -0.8987 -0.2010  1.8085
   36MOL    H7229542   6.028   2.845   0.847 -0.2910  0.8993 -0.1862
   36MOL    H7329543   6.111   2.957   0.576  0.5096  0.6086  0.2752
   36MOL    H7429544   5.956   2.914   0.625 -1.9128  4.3124  0.8701
   36MOL    H7529545   6.136   3.091   0.809  0.3596  0.4886 -0.9649
   36MOL    H7629546   5.963   3.069   0.825  0.2167  1.9033 -0.6559
   36MOL    H7729547   6.106   3.204   0.579  1.2804 -0.2232  0.1065
   36MOL    H7829548   6.051   3.287   0.716 -2.5620  1.0826 -0.2022
   36MOL    H7929549   5.885   3.143   0.501 -2.4691 -1.0260  1.1456
   36MOL    H8029550   5.808   3.173   0.652 -0.7376  0.1211 -0.8655
   36MOL    H8129551   5.957   3.364   0.461 -0.1076  0.2431 -0.3652
   36MOL    H8229552   5.889   3.418   0.611 -1.6167 -1.0988  1.1356
   36MOL    H8329553   5.716   3.306   0.388  1.5429 -0.6904 -1.1181
   36MOL    H8429554   5.732   3.476   0.432 -0.1963 -0.4832  0.5374
   36MOL    H8529555   5.653   3.358   0.542  2.5076 -2.9503  1.5227
   36MOL    C8629556   6.339   2.297   0.191  0.0782  0.4762 -0.2086
   36MOL    C8729557   6.460   2.292   0.101  0.5406  0.2788 -0.1320
   36MOL    C8829558   6.502   2.440   0.066  1.0945  0.3580 -0.6164
   36MOL    C8929559   6.595   2.499   0.177  0.1766  0.6336  0.1886
   36MOL    C9029560   6.693   2.608   0.116  0.0252 -0.3001 -0.2609
   36MOL    C9129561   6.775   2.676   0.222 -0.3978  0.2253 -0.3911
   36MOL    C9229562   6.874   2.781   0.169  0.6890  0.3196 -0.2549
   36MOL    C9329563   6.956   2.848   0.277 -0.3926  0.4843  0.4699
   36MOL    C9429564   7.028   2.975   0.225  0.4938  0.0619  0.5146
   36MOL    C9529565   7.126   3.025   0.326  0.5703 -0.1249 -0.2333
   36MOL    C9629566   7.183   3.158   0.285  0.0315 -0.2688 -0.2109
   36MOL    C9729567   7.238   3.240   0.405  0.4922  0.2429  0.0764
   36MOL    C9829568   7.385   3.235   0.423  0.3268 -0.2930 -0.7114
   36MOL    C9929569   7.444   3.317   0.546 -0.2885  0.0206  0.8285
   36MOL   H10029570   6.264   2.226   0.156 -0.7342  0.3515  1.7293
   36MOL   H10129571   6.283   2.389   0.176 -1.3652 -0.6537 -1.9500
   36MOL   H10229572   6.542   2.239   0.148  0.5658  0.1111 -0.3674
   36MOL   H10329573   6.555   2.448   7.666  0.8836  0.2493 -0.7437
   36MOL   H10429574   6.419   2.509   0.047  0.4992 -0.4406 -0.9473
   36MOL   H10529575   6.556   2.529   0.274  0.2286 -0.1643  0.4571
   36MOL   H10629576   6.667   2.424   0.209  0.9284  0.9072 -0.8281
   36MOL   H10729577   6.636   2.678   0.055 -1.7506  1.8071  3.5705
   36MOL   H10829578   6.761   2.554   0.050  1.5795  0.4720  0.6866
   36MOL   H10929579   6.830   2.597   0.274  0.4741  0.3055 -1.1689
   36MOL   H11029580   6.713   2.733   0.291  1.3921  2.5553 -0.6146
   36MOL   H11129581   6.943   2.733   0.099  2.8703  1.2939  1.1801
   36MOL   H11229582   6.820   2.860   0.115 -1.3107 -1.7356 -1.3291
   36MOL   H11329583   7.021   2.784   0.336 -0.3454  1.2999  1.3168
   36MOL   H11429584   6.887   2.872   0.357 -0.7138  0.6490  0.1478
   36MOL   H11529585   7.084   2.966   0.132  0.8471 -0.5663  0.7884
   36MOL   H11629586   6.959   3.059   0.212  1.4119  0.5808 -1.2009
   36MOL   H11729587   7.210   2.958   0.343  1.4385  0.1572 -3.2138
   36MOL   H11829588   7.087   3.027   0.428  1.3884  1.0548  0.0711
   36MOL   H11929589   7.249   3.157   0.198  0.7888 -0.0492  0.3544
   36MOL   H12029590   7.098   3.219   0.255  1.0600  0.7426 -1.1345
   36MOL   H12129591   7.209   3.343   0.386 -1.7975 -0.1996  1.0373
   36MOL   H12229592   7.185   3.211   0.496 -0.0458 -0.0379 -0.3235
   36MOL   H12329593   7.445   3.251   0.333 -3.5165  0.4530 -3.2786
   36MOL   H12429594   7.404   3.131   0.450 -1.3144 -0.4414 -0.0638
   36MOL   H12529595   7.540   3.274   0.573 -0.4696 -0.1263  1.2527
   36MOL   H12629596   7.457   3.423   0.524 -2.4545 -0.0822 -1.1340
   36MOL   H12729597   7.376   3.316   0.631 -1.2005  0.7378  0.1171
   36MOL   C12829598   6.429   2.205   7.666  0.0803 -0.0114 -0.6556
   36MOL   C12929599   6.557   2.172   7.583  0.4537  0.0671  0.1747
   36MOL   C13029600   6.641   2.062   7.663 -0.2207 -0.3798  0.0686
   36MOL   C13129601   6.567   1.930   7.689  0.1625  0.4319  0.5391
   36MOL   C13229602   6.629   1.860   0.109  0.3868  0.3557  0.7148
   36MOL   C13329603   6.566   1.725   0.132  0.0634  0.1735 -0.5964
   36MOL   C13429604   6.665   1.631   0.207 -0.4720  0.6261  0.6451
   36MOL   C13529605   6.616   1.487   0.225 -0.3559  0.0309  0.3003
   36MOL   C13629606   6.712   1.407   0.319 -0.6062 -0.0111  0.4753
   36MOL   C13729607   6.712   1.255   0.287 -0.5161  0.2786  0.0775
   36MOL   C13829608   6.744   1.155   0.399  0.3277 -0.3535  0.1492
   36MOL   C13929609   6.741   1.007   0.359 -0.8650 -0.0384 -0.2452
   36MOL   C14029610   6.768   0.919   0.484  0.3475  0.4988  0.0591
   36MOL   C14129611   6.759   0.773   0.451  0.5731  0.4763 -0.3763
   36MOL   H14229612   6.371   2.114   7.682 -0.8597  0.6414 -0.3422
   36MOL   H14329613   6.354   2.269   7.619  1.2385  0.4460 -1.9262
   36MOL   H14429614   6.624   2.257   7.578  1.1876 -0.5293 -0.2716
   36MOL   H14529615   6.729   2.040   7.603  0.0611  1.1730 -0.1164
   36MOL   H14629616   6.684   2.100   0.060 -0.3974  0.7424 -0.3064
   36MOL   H14729617   6.461   1.939   0.017  0.3755  1.2135  1.2132
   36MOL   H14829618   6.570   1.871   7.597 -1.7349  0.5670  0.3697
   36MOL   H14929619   6.735   1.850   0.086  0.9123  4.3123  1.0141
   36MOL   H15029620   6.627   1.929   0.194  0.4078  0.1589  0.8756
   36MOL   H15129621   6.477   1.736   0.194  0.8032 -0.2804  0.5615
   36MOL   H15229622   6.537   1.680   0.037 -0.0328  0.2074 -0.5829
   36MOL   H15329623   6.747   1.617   0.136 -0.1122 -0.5319  1.2946
   36MOL   H15429624   6.698   1.674   0.301  0.1414 -0.5275  0.9629
   36MOL   H15529625   6.514   1.496   0.262 -0.2296  0.3665  0.5706
   36MOL   H15629626   6.614   1.459   0.120 -1.8603 -0.9451  0.5700
   36MOL   H15729627   6.818   1.435   0.316 -0.8783  1.0246  0.4507
   36MOL   H15829628   6.687   1.425   0.423 -1.4493 -1.4645  0.5468
   36MOL   H15929629   6.789   1.244   0.211 -1.0688  2.5217 -0.8369
   36MOL   H16029630   6.619   1.231   0.234 -0.5146  0.2178  0.1015
   36MOL   H16129631   6.846   1.180   0.431  0.4285 -0.6496  0.0601
   36MOL   H16229632   6.676   1.181   0.480  0.4854  1.6806 -0.3266
   36MOL   H16329633   6.645   0.984   0.312  0.6392 -1.8680 -2.5951
   36MOL   H16429634   6.813   0.979   0.282 -0.7951 -0.0152 -0.1880
   36MOL   H16529635   6.852   0.942   0.548  0.7348 -0.2291 -0.1757
   36MOL   H16629636   6.681   0.931   0.548  0.9827 -3.1884  1.7354
   36MOL   H16729637   6.693   0.738   0.372  0.6915  1.1774 -0.7873
   36MOL   H16829638   6.862   0.746   0.427  0.1213 -0.1039 -1.6766
   36MOL   H16929639   6.732   0.717   0.541 -1.6996  0.5744 -0.9804
   36MOL   C17029640   6.522   2.132   7.443  0.0352  1.4558  0.3937
   36MOL   C17129641   6.640   2.097   7.349 -0.1832 -0.2297 -0.0299
   36MOL   C17229642   6.582   2.062   7.211 -0.3301  0.0468 -0.3086
   36MOL   C17329643   6.468   1.966   7.202 -0.2986  0.4575 -0.1031
   36MOL   C17429644   6.503   1.825   7.252 -0.3522  0.6218  0.2322
   36MOL   C17529645   6.391   1.723   7.221  0.1663 -0.7015 -0.3470
   36MOL   C17629646   6.263   1.757   7.298 -0.3000 -0.1550 -0.4316
   36MOL   C17729647   6.273   1.732   7.446  0.0846  0.3759 -0.9646
   36MOL   C17829648   6.149   1.761   7.524  0.6057  0.2156  0.4727
   36MOL   C17929649   6.173   1.753   7.673  0.1503  0.1527 -0.1782
   36MOL   C18029650   6.090   1.860   0.056  0.0732 -0.4816  0.1865
   36MOL   C18129651   6.129   1.864   0.204 -0.5194  0.0360  0.3624
   36MOL   C18229652   6.069   1.979   0.289 -0.0184 -0.4611  0.4951
   36MOL   C18329653   6.098   1.950   0.436 -0.4628  0.0793  0.3639
   36MOL   H18429654   6.450   2.205   7.403 -1.0975  2.5620  4.2451
   36MOL   H18529655   6.467   2.039   7.456  3.4495 -0.7219 -0.2151
   36MOL   H18629656   6.694   2.008   7.382  3.2082  1.1973 -1.4874
   36MOL   H18729657   6.551   2.154   7.163 -2.4596 -0.7653 -0.5351
   36MOL   H18829658   6.665   2.013   7.159  0.8932  0.8607  0.8510
   36MOL   H18929659   6.371   2.013   7.217 -0.7055 -0.3562 -0.1729
   36MOL   H19029660   6.457   1.947   7.095  2.0583  0.5400 -0.3851
   36MOL   H19129661   6.590   1.799   7.192 -0.7610 -2.9789  1.0852
   36MOL   H19229662   6.532   1.820   7.357  0.4455 -1.6331 -0.0614
   36MOL   H19329663   6.416   1.619   7.244  0.3387 -0.2813  1.4960
   36MOL   H19429664   6.379   1.726   7.113  0.8686 -1.1786 -0.4425
   36MOL   H19529665   6.180   1.689   7.277  0.3792 -0.8535 -0.8832
   36MOL   H19629666   6.235   1.861   7.280  1.6845  0.6567  0.9338
   36MOL   H19729667   6.352   1.794   7.488 -0.9138 -0.4150  2.2296
   36MOL   H19829668   6.305   1.628   7.459 -0.0609  0.4145 -0.2662
   36MOL   H19929669   6.066   1.696   7.497  2.1230 -1.5511 -0.0441
   36MOL   H20029670   6.124   1.866   7.510 -1.2708 -0.1332  1.0809
   36MOL   H20129671   6.278   1.781   7.680 -0.0247  0.8327 -0.2817
   36MOL   H20229672   6.151   1.661   0.032  0.6471 -0.6291 -1.2784
   36MOL   H20329673   5.983   1.841   0.042 -0.6077  3.1280 -0.0391
   36MOL   H20429674   6.105   1.962   0.019 -0.0015 -0.2555  0.7816
   36MOL   H20529675   6.112   1.765   0.246  2.7700 -1.3948 -1.4940
   36MOL   H20629676   6.235   1.877   0.225 -0.4197  1.0058 -0.6963
   36MOL   H20729677   6.114   2.074   0.260  1.3606 -1.1326  0.3919
   36MOL   H20829678   5.962   1.997   0.275  0.1162  1.8590  2.2805
   36MOL   H20929679   6.035   2.022   0.488  1.8668  1.4891  1.3034
   36MOL   H21029680   6.201   1.976   0.462 -0.2008  1.0982 -1.6274
   36MOL   H21129681   6.070   1.851   0.471  0.3102  0.0364  0.8887
   36MOL   C21229682   6.748   2.210   7.341 -0.0211 -0.4809  0.2476
   36MOL   C21329683   6.876   2.167   7.266  1.0472  0.4089 -0.5177
   36MOL   C21429684   6.906   2.254   7.140  0.2809 -0.3100 -0.7074
   36MOL   C21529685   7.010   2.204   7.041  1.0790 -0.0622 -0.2404
   36MOL   C21629686   7.032   2.298   6.926  0.2085 -1.0564 -0.0262
   36MOL   C21729687   7.123   2.252   6.811 -0.5026 -0.1218 -0.7106
   36MOL   C21829688   7.272   2.238   6.857  0.4372 -0.7349  0.3293
   36MOL   C21929689   7.364   2.211   6.739 -0.1549 -0.3018  0.6462
   36MOL   C22029690   7.506   2.201   6.792 -0.3538  0.3359  0.4212
   36MOL   C22129691   7.616   2.231   6.685  0.3629  0.2575  0.7089
   36MOL   C22229692   0.062   2.209   6.744  0.2115 -0.7064 -0.5231
   36MOL   C22329693   0.113   2.065   6.744 -0.2755 -0.1457  0.4613
   36MOL   C22429694   0.264   2.038   6.754  0.3106 -0.1229 -0.3232
   36MOL   C22529695   0.338   2.079   6.636  0.0970  0.3587  0.5253
   36MOL   H22629696   6.777   2.236   7.443 -1.6073  0.0103  0.5887
   36MOL   H22729697   6.705   2.296   7.290 -4.0968 -1.3046  2.0780
   36MOL   H22829698   6.868   2.066   7.228 -0.8177  0.7114 -0.9523
   36MOL   H22929699   6.810   2.262   7.090 -0.5969  1.7316  1.1871
   36MOL   H23029700   6.931   2.357   7.169 -0.0391 -0.0969 -1.1876
   36MOL   H23129701   6.976   2.106   7.007 -3.8111  1.9858 -1.6721
   36MOL   H23229702   7.103   2.191   7.097  1.5205  2.2387 -0.3851
   36MOL   H23329703   7.088   2.383   6.965 -1.8313  0.2825  0.0073
   36MOL   H23429704   6.936   2.334   6.890  1.5749  1.5782 -1.1372
   36MOL   H23529705   7.118   2.328   6.733  0.8626  0.8389  0.1257
   36MOL   H23629706   7.087   2.156   6.772  1.0111 -0.6740 -0.7935
   36MOL   H23729707   7.312   2.319   6.918 -1.5044  0.6142 -0.1514
   36MOL   H23829708   7.280   2.159   6.931  0.7177 -0.1429  0.9414
   36MOL   H23929709   7.339   2.120   6.685 -2.9690  0.9124 -0.2038
   36MOL   H24029710   7.345   2.286   6.662  3.1456  0.0335  0.0733
   36MOL   H24129711   7.528   2.100   6.825 -1.6851 -0.2240 -0.3646
   36MOL   H24229712   7.536   2.264   6.876 -0.5015  1.4626 -0.3561
   36MOL   H24329713   7.593   2.172   6.596 -0.2159  1.2520  0.1825
   36MOL   H24429714   7.610   2.334   6.650  0.5077 -0.2409 -0.8158
   36MOL   H24529715   0.071   2.255   6.842 -1.1207  1.8457 -1.5665
   36MOL   H24629716   0.139   2.260   6.686 -0.0957  0.9037  0.4544
   36MOL   H24729717   0.089   2.014   6.650  2.0229 -0.6184  0.0974
   36MOL   H24829718   0.047   2.009   6.810  0.8846 -1.0576  0.8744
   36MOL   H24929719   0.281   1.933   6.777 -1.7430 -0.5881 -0.7802
   36MOL   H25029720   0.294   2.079   6.850  0.1489 -0.0942 -0.2831
   36MOL   H25129721   0.306   2.010   6.558  0.3539  0.3110  0.4609
   36MOL   H25229722   0.331   2.180   6.593  2.0806 -0.2362 -1.3289
   36MOL   H25329723   0.442   2.051   6.654  0.6792  1.3248 -1.1175
   36MOL   C25429724   7.005   2.158   7.354 -0.2357 -0.7109 -0.1397
   36MOL   C25529725   7.004   2.042   7.446 -0.2432  0.5140  0.2763
   36MOL   C25629726   7.011   1.900   7.381  0.1261 -1.0181  0.6392
   36MOL   C25729727   7.114   1.887   7.267 -0.0611  0.5108 -0.8259
   36MOL   C25829728   7.162   1.741   7.256  0.3715  0.2058  0.5510
   36MOL   C25929729   7.276   1.742   7.153 -0.2135 -0.4140 -0.3719
   36MOL   C26029730   7.236   1.783   7.006 -0.2855  0.0899  0.8282
   36MOL   C26129731   7.344   1.745   6.897  0.4064  0.1458 -0.4581
   36MOL   C26229732   7.309   1.795   6.759 -0.4720  0.2804  0.5840
   36MOL   C26329733   7.425   1.803   6.659  1.0950  0.8284  0.2598
   36MOL   C26429734   7.390   1.854   6.519  0.2249 -0.1317  0.0896
   36MOL   C26529735   7.519   1.870   6.434 -0.3718  0.1843 -0.2681
   36MOL   C26629736   7.502   1.926   6.291  0.5996 -0.1352 -0.1573
   36MOL   C26729737   7.409   1.834   6.197 -0.0748  0.5488  0.2273
   36MOL   H26829738   7.008   2.252   7.409  2.0144 -0.7351 -0.1793
   36MOL   H26929739   7.096   2.152   7.294 -0.1673 -0.8417 -0.0236
   36MOL   H27029740   6.912   2.053   7.504 -1.5650  0.7481 -1.8042
   36MOL   H27129741   6.911   1.879   7.342  0.1933 -1.1598  0.5461
   36MOL   H27229742   7.026   1.820   7.453  1.6551 -1.5473 -0.2495
   36MOL   H27329743   7.202   1.945   7.296  0.1339 -0.0058 -0.3735
   36MOL   H27429744   7.080   1.928   7.172 -0.5555 -0.3117 -1.0115
   36MOL   H27529745   7.077   1.681   7.222  1.4390 -0.1000 -1.7005
   36MOL   H27629746   7.191   1.692   7.349  0.6784 -2.5929 -0.9318
   36MOL   H27729747   7.318   1.642   7.145 -0.7935 -0.6899  0.0299
   36MOL   H27829748   7.354   1.805   7.196 -0.8395 -1.6578  2.6881
   36MOL   H27929749   7.159   1.721   6.962  1.8899 -0.2399 -2.6929
   36MOL   H28029750   7.209   1.888   6.996  3.1454  0.8775 -1.2346
   36MOL   H28129751   7.367   1.638   6.903 -0.2447 -0.0766 -1.7318
   36MOL   H28229752   7.437   1.798   6.915  0.5818 -0.3714  0.1885
   36MOL   H28329753   7.235   1.729   6.713 -1.4960  0.0463  2.5394
   36MOL   H28429754   7.278   1.898   6.781  0.7172  0.6602  0.5191
   36MOL   H28529755   7.460   1.701   6.641 -0.1194  0.5663 -0.6810
   36MOL   H28629756   7.502   1.867   6.701  2.0741 -1.0962  1.4563
   36MOL   H28729757   7.344   1.953   6.520  2.7202  1.0967 -1.3590
   36MOL   H28829758   7.316   1.788   6.473  0.3907  0.1195 -0.5397
   36MOL   H28929759   7.581   1.938   6.492 -1.6894 -0.1615  1.5989
   36MOL   H29029760   7.568   1.773   6.425 -0.3479  0.3649 -2.2914
   36MOL   H29129761   7.464   2.025   6.318  1.6102 -0.0579  1.0150
   36MOL   H29229762   7.601   1.935   6.246  0.4272  0.7634 -0.3717
   36MOL   H29329763   7.303   1.845   6.216 -0.0349  0.4202  0.5388
   36MOL   H29429764   7.442   1.731   6.209  1.1439  0.8605 -0.2926
   36MOL   H29529765   7.427   1.861   6.093 -4.6598  0.4617 -0.6575
   36MOL   C29629766   7.130   2.061   7.538  0.5625 -0.2137  0.6516
   36MOL   C29729767   7.118   2.029   7.685 -0.0831 -0.4510  0.2769
   36MOL   C29829768   7.029   2.133   0.069 -0.6559  0.1610 -0.8293
   36MOL   C29929769   7.047   2.284   0.027 -0.3812 -0.4434  0.8669
   36MOL   C30029770   7.185   2.334   0.079  0.4354  0.5469 -0.6380
   36MOL   C30129771   7.208   2.479   0.064 -0.0491  0.0674 -0.0774
   36MOL   C30229772   7.351   2.527   0.088 -0.9301  0.1686  0.1974
   36MOL   C30329773   7.377   2.681   0.089 -0.2644 -0.0974 -0.6136
   36MOL   C30429774   7.522   2.725   0.086  0.1133 -0.5420 -0.1507
   36MOL   C30529775   7.552   2.881   0.093 -0.5981 -0.6634  0.2106
   36MOL   C30629776   0.005   2.919   0.110  0.4894  0.6571  0.0875
   36MOL   C30729777   0.043   3.064   0.074  0.0643 -0.0827 -0.2213
   36MOL   C30829778   0.182   3.116   0.109 -0.1345 -0.2031  0.2938
   36MOL   C30929779   0.203   3.109   0.267  0.3980  0.0993 -0.5005
   36MOL   H31029780   7.169   2.162   7.525 -0.8707  0.3048  0.3010
   36MOL   H31129781   7.212   2.001   7.498 -1.4873 -1.4667 -1.8524
   36MOL   H31229782   7.223   2.043   0.013 -0.7166  2.1290  1.8599
   36MOL   H31329783   7.046   2.124   0.176 -0.0038 -0.2479 -0.9621
   36MOL   H31429784   6.926   2.103   0.051 -1.2725  2.4363 -1.3058
   36MOL   H31529785   6.972   2.340   0.081  1.1047  2.3140  0.1479
   36MOL   H31629786   7.033   2.304   7.616 -1.8773  3.8557  1.7859
   36MOL   H31729787   7.182   2.323   0.188 -0.5419  0.6881 -0.6452
   36MOL   H31829788   7.261   2.269   0.037 -0.5899  1.2921 -3.7564
   36MOL   H31929789   7.135   2.532   0.125 -1.7302 -0.2892 -1.7473
   36MOL   H32029790   7.175   2.506   7.660  0.8011  1.0416 -0.0952
   36MOL   H32129791   7.392   2.487   0.181  1.2656 -0.8663 -1.1906
   36MOL   H32229792   7.424   2.485   0.019 -0.5929  0.2838  0.4825
   36MOL   H32329793   7.320   2.708   0.178  0.1553  1.2917 -0.7509
   36MOL   H32429794   7.320   2.730   0.010  0.7378  1.6174 -0.2976
   36MOL   H32529795   7.565   2.679   0.175 -0.8221 -1.9908 -0.4299
   36MOL   H32629796   7.564   2.687   7.689  1.1081  2.7862 -1.1586
   36MOL   H32729797   7.499   2.925   0.177 -0.8558  0.0440 -0.3156
   36MOL   H32829798   7.499   2.934   0.014 -1.0528 -0.1879  0.8283
   36MOL   H32929799   0.066   2.862   0.040  1.5936 -0.5081  1.9513
   36MOL   H33029800   0.041   2.899   0.211 -3.1520  0.5049  1.4267
   36MOL   H33129801   7.676   3.134   0.129  0.4499 -0.7547  1.1132
   36MOL   H33229802   0.016   3.080   7.665  0.7372  0.1260 -0.3643
   36MOL   H33329803   0.190   3.216   0.065  2.7959 -0.8043 -0.6851
   36MOL   H33429804   0.259   3.066   0.051 -1.5234 -2.2311  0.1664
   36MOL   H33529805   0.144   3.186   0.318  0.2607 -0.4532  0.1790
   36MOL   H33629806   0.179   3.015   0.315  1.9780 -0.1420 -0.1713
   36MOL   H33729807   0.307   3.128   0.294  0.2038 -0.0061  0.3128
   36MOL   C33829808   7.081   1.882   0.021 -0.1722 -0.1931  0.6337
   36MOL   C33929809   7.124   1.832   0.162 -0.1443 -0.5934 -0.8656
   36MOL   C34029810   6.999   1.802   0.250  0.2434 -0.1414 -0.5745
   36MOL   C34129811   7.037   1.821   0.401 -0.0518  0.4200  0.6466
   36MOL   C34229812   6.915   1.823   0.497  0.2800  0.1149 -0.3600
   36MOL   C34329813   6.951   1.888   0.624  0.2964  0.1476  0.2286
   36MOL   C34429814   6.831   1.870   0.718 -0.5910 -0.0821  0.3926
   36MOL   C34529815   6.859   1.923   0.857  0.0859  0.7007  0.1772
   36MOL   C34629816   6.737   1.923   0.948 -0.5075  0.5696 -0.2740
   36MOL   C34729817   6.777   1.991   1.088  0.1169 -0.2763 -0.0663
   36MOL   C34829818   6.656   2.032   1.167 -0.3107  0.4908 -0.0600
   36MOL   C34929819   6.686   2.146   1.271  0.8829  0.7401  0.3635
   36MOL   C35029820   6.563   2.206   1.348  0.0530 -0.3056 -0.3772
   36MOL   C35129821   6.602   2.320   1.443  0.1900  0.0410 -0.0133
   36MOL   H35229822   6.978   1.865   7.682 -0.0932  2.7408 -1.2277
   36MOL   H35329823   7.141   1.832   7.641  0.7476 -0.1133  1.3107
   36MOL   H35429824   7.171   1.917   0.212 -4.0251  0.6372  0.9150
   36MOL   H35529825   6.923   1.879   0.232 -1.1512 -0.9157  1.8300
   36MOL   H35629826   6.970   1.699   0.229  0.1148 -0.3588  0.6580
   36MOL   H35729827   7.083   1.919   0.412 -0.2739  0.4567  1.2247
   36MOL   H35829828   7.092   1.733   0.436 -1.4287 -0.3422  0.9170
   36MOL   H35929829   6.882   1.719   0.508  2.3283 -0.4528  0.5888
   36MOL   H36029830   6.828   1.872   0.453  0.7984  0.6019 -0.8593
   36MOL   H36129831   7.044   1.845   0.662  0.5292 -2.1637 -2.6951
   36MOL   H36229832   6.974   1.991   0.599  0.7409 -0.0579 -0.2138
   36MOL   H36329833   6.742   1.916   0.675 -0.5896 -1.3347 -1.0101
   36MOL   H36429834   6.807   1.764   0.724 -2.0822  0.2571  0.4743
   36MOL   H36529835   6.947   1.876   0.901 -0.0622  0.8465  0.6304
   36MOL   H36629836   6.880   2.030   0.853 -0.7488  0.8684  0.1843
   36MOL   H36729837   6.659   1.988   0.907 -0.4171 -0.2552 -1.7915
   36MOL   H36829838   6.689   1.829   0.973 -2.4154  1.2155 -1.3596
   36MOL   H36929839   6.850   1.924   1.134 -1.8429 -1.7955  0.9128
   36MOL   H37029840   6.836   2.081   1.073 -1.9096  0.8952 -1.2646
   36MOL   H37129841   6.620   1.942   1.215  0.6876  0.7461  1.1890
   36MOL   H37229842   6.580   2.069   1.098  1.5938 -0.7838 -2.9810
   36MOL   H37329843   6.728   2.233   1.220  0.5657  0.9971  0.5396
   36MOL   H37429844   6.767   2.127   1.342  0.8781 -1.8338 -0.2523
   36MOL   H37529845   6.501   2.243   1.267  1.6469 -0.1571 -1.5515
   36MOL   H37629846   6.501   2.133   1.401  0.0285 -1.2924 -1.7235
   36MOL   H37729847   6.631   2.281   1.541 -1.6007  1.6181  1.1806
   36MOL   H37829848   6.690   2.378   1.413 -0.0794  0.4436 -0.0197
   36MOL   H37929849   6.516   2.379   1.472 -0.8372 -0.3685 -2.1305
   36MOL   C38029850   7.216   1.711   0.146 -0.7316 -0.2961 -0.2539
   36MOL   C38129851   7.362   1.748   0.113 -0.4434  0.9778 -0.4075
   36MOL   C38229852   7.442   1.771   0.242  0.7379 -0.0364  0.2689
   36MOL   C38329853   7.578   1.843   0.229 -0.4500  0.0363  0.1444
   36MOL   C38429854   7.569   1.978   0.156 -0.5938 -0.0738  0.7029
   36MOL   C38529855   0.006   2.053   0.149 -0.4237  0.1292 -0.3098
   36MOL   C38629856   0.007   2.168   0.043 -1.1588  0.8173 -0.3731
   36MOL   C38729857   0.137   2.247   0.054 -0.2531  0.3386  0.1034
   36MOL   C38829858   0.137   2.367   7.649 -0.0092 -0.4668 -0.2822
   36MOL   C38929859   0.274   2.410   7.630 -0.7396 -0.2708 -0.7365
   36MOL   C39029860   0.295   2.496   7.505  0.9110  0.4922 -0.0201
   36MOL   C39129861   0.263   2.638   7.539  0.0798  0.6564  0.2403
   36MOL   C39229862   0.303   2.740   7.432 -0.2079 -0.1306 -0.0814
   36MOL   C39329863   0.232   2.875   7.462 -0.4955 -0.6054 -0.7682
   36MOL   H39429864   7.178   1.653   0.062  2.3662 -2.9659  0.0897
   36MOL   H39529865   7.218   1.639   0.228 -0.0324  0.4246  0.3758
   36MOL   H39629866   7.362   1.823   0.034 -0.8997  0.0794 -1.2733
   36MOL   H39729867   7.467   1.680   0.296  0.9659  0.7333  1.4818
   36MOL   H39829868   7.374   1.823   0.309  0.5622 -0.1038  0.1434
   36MOL   H39929869   7.641   1.776   0.170 -0.2076  0.6476 -0.3020
   36MOL   H40029870   7.623   1.865   0.326  0.1088 -0.9862  0.1259
   36MOL   H40129871   7.507   2.043   0.218  2.6225  1.5814  2.2673
   36MOL   H40229872   7.524   1.961   0.058  2.2723 -0.4452 -0.5852
   36MOL   H40329873   0.086   1.983   0.127  0.6840  1.5136 -0.7739
   36MOL   H40429874   0.023   2.117   0.235  1.6050  2.4963 -2.3974
   36MOL   H40529875   0.005   2.116   7.642  1.9991 -1.8284  0.8516
   36MOL   H40629876   7.615   2.232   0.050 -2.4253 -0.7143 -1.5273
   36MOL   H40729877   0.147   2.303   0.147 -0.2642 -0.9424  0.9027
   36MOL   H40829878   0.223   2.182   0.037  1.3972  2.5894 -0.2653
   36MOL   H40929879   0.095   2.334   7.554 -0.7179 -2.1968  0.6150
   36MOL   H41029880   0.073   2.452   7.673  0.4562  0.3154 -1.7162
   36MOL   H41129881   0.329   2.317   7.618 -0.2872 -0.1093  0.0669
   36MOL   H41229882   0.312   2.461   0.023 -2.5699  0.5831 -0.4080
   36MOL   H41329883   0.403   2.496   7.491  1.0363  0.5138  0.9012
   36MOL   H41429884   0.252   2.463   7.411 -1.5910  0.7172  1.0199
   36MOL   H41529885   0.308   2.675   7.630 -1.8386 -0.9546  1.8903
   36MOL   H41629886   0.158   2.662   7.559 -0.5175 -0.7203 -1.1340
   36MOL   H41729887   0.410   2.749   7.448 -0.2171 -2.1950  1.3561
   36MOL   H41829888   0.284   2.710   7.329  0.9403 -0.2131 -0.2724
   36MOL   H41929889   0.255   2.951   7.387  2.2715  1.2497  1.8565
   36MOL   H42029890   0.259   2.907   7.563 -1.0895  0.7654 -1.0364
   36MOL   H42129891   0.124   2.859   7.463 -0.6449  0.4443  0.9293
   36MOL   C42229892   7.406   1.620   0.035 -0.1826 -0.0222 -0.2413
   36MOL   C42329893   7.394   1.609   7.579  0.0997 -0.2283 -0.5878
   36MOL   C42429894   7.491   1.705   7.497  0.2330  0.3722  0.5433
   36MOL   C42529895   7.642   1.685   7.524  0.6059 -0.1345 -0.1671
   36MOL   C42629896   0.036   1.767   7.427  0.4187 -0.3691 -0.0605
   36MOL   C42729897   0.182   1.736   7.466 -0.9984 -0.0779 -0.3042
   36MOL   C42829898   0.223   1.815   7.594  0.1037 -0.1363 -0.7154
   36MOL   C42929899   0.360   1.784   7.658 -0.2253 -0.6286 -0.9071
   36MOL   C43029900   0.381   1.862   0.099  0.9424  0.1085 -0.4408
   36MOL   C43129901   0.306   1.789   0.214  0.5632 -0.1641 -0.3753
   36MOL   C43229902   0.285   1.859   0.341  0.7172  0.4774 -0.2947
   36MOL   C43329903   0.223   1.770   0.451 -0.0179 -0.3193  0.3122
   36MOL   C43429904   0.195   1.835   0.589 -0.5419  0.6949  0.3081
   36MOL   C43529905   0.127   1.976   0.580  0.6239 -0.5028  0.5994
   36MOL   H43629906   7.354   1.534   0.077 -0.8976  0.6699  0.3149
   36MOL   H43729907   7.509   1.598   0.065  0.5300 -0.0311 -2.5556
   36MOL   H43829908   7.292   1.644   7.560 -0.8316 -1.2235  2.2411
   36MOL   H43929909   7.474   1.803   7.540  1.1680  0.0734  1.6333
   36MOL   H44029910   7.471   1.707   7.390 -0.3471  2.6145  0.6878
   36MOL   H44129911   7.654   1.707   7.630  3.1582 -0.3897 -0.3689
   36MOL   H44229912   7.668   1.579   7.514 -1.0549 -0.4437 -1.3896
   36MOL   H44329913   0.027   1.875   7.440 -1.1631 -0.5046  0.0945
   36MOL   H44429914   0.006   1.740   7.326  1.8774 -0.0323 -0.5934
   36MOL   H44529915   0.253   1.757   7.386 -0.6039  0.2255  0.1251
   36MOL   H44629916   0.201   1.629   7.477 -1.9147 -0.2215 -0.0380
   36MOL   H44729917   0.218   1.923   7.579  0.4302  0.4352  2.8391
   36MOL   H44829918   0.149   1.797   7.671 -0.5458  5.8204  0.3348
   36MOL   H44929919   0.381   1.684   0.000 -1.0440 -0.9187 -1.2154
   36MOL   H45029920   0.434   1.829   7.591 -1.6018 -0.4614 -2.3381
   36MOL   H45129921   0.487   1.852   0.121  0.5119 -0.8021  1.2721
   36MOL   H45229922   0.339   1.963   0.098 -0.5992 -0.5159 -1.7893
   36MOL   H45329923   0.209   1.752   0.182  0.8971 -3.0681  1.7689
   36MOL   H45429924   0.358   1.702   0.254 -0.8107 -0.3282  1.0782
   36MOL   H45529925   0.381   1.897   0.377  1.4409 -2.2938  0.8205
   36MOL   H45629926   0.234   1.953   0.322 -0.0214  0.3835  1.1716
   36MOL   H45729927   0.284   1.680   0.457  1.8486  0.8398 -0.8010
   36MOL   H45829928   0.133   1.726   0.408  0.1063  1.2768 -1.6560
   36MOL   H45929929   0.143   1.753   0.638  0.8153 -1.2301 -1.4020
   36MOL   H46029930   0.284   1.842   0.652 -0.3296  2.2052 -0.1356
   36MOL   H46129931   0.105   2.029   0.673 -2.4427  0.1392 -0.4281
   36MOL   H46229932   0.036   1.957   0.524  0.3854  2.0669  0.0457
   36MOL   H46329933   0.194   2.045   0.529 -1.6423  0.6744 -0.8758
   36MOL   C46429934   7.400   1.456   7.532 -0.3399  0.4691  0.5083
   36MOL   C46529935   7.266   1.403   7.465  0.0429 -0.4235  0.3784
   36MOL   C46629936   7.287   1.258   7.407  0.2817  0.1376 -0.1910
   36MOL   C46729937   7.311   1.266   7.253  0.3620  0.0019  0.3936
   36MOL   C46829938   7.308   1.130   7.177  0.4402 -0.4256  0.1316
   36MOL   C46929939   7.335   1.147   7.033 -0.8497 -0.1734  0.4985
   36MOL   C47029940   7.223   1.207   6.955  0.6629 -0.8417 -1.0075
   36MOL   C47129941   7.254   1.203   6.803  0.6921  0.8248  0.6851
   36MOL   C47229942   7.156   1.298   6.724  0.2287 -0.4028 -0.0506
   36MOL   C47329943   7.218   1.375   6.604 -0.6667 -0.2412  0.1603
   36MOL   C47429944   7.111   1.413   6.495  0.4143  0.5338  0.3482
   36MOL   C47529945   7.174   1.515   6.405  0.4827 -0.2052 -0.4023
   36MOL   C47629946   7.091   1.546   6.273 -0.5313 -0.2587 -0.3058
   36MOL   C47729947   7.139   1.440   6.158  0.0525  0.2366 -0.2565
   36MOL   H47829948   7.440   1.404   7.618  0.1900 -0.9223 -0.5736
   36MOL   H47929949   7.480   1.442   7.460 -2.8281 -1.4635 -2.0042
   36MOL   H48029950   7.237   1.467   7.382  1.0293  0.3960  0.6530
   36MOL   H48129951   7.363   1.214   7.471  0.9810  3.6253  1.4701
   36MOL   H48229952   7.196   1.198   7.415  0.7877 -0.5225  0.5753
   36MOL   H48329953   7.413   1.301   7.241  0.3161 -0.6569 -2.0395
   36MOL   H48429954   7.247   1.342   7.209 -0.9960 -1.6010 -0.4664
   36MOL   H48529955   7.212   1.079   7.179  0.1263  0.1975  0.9382
   36MOL   H48629956   7.377   1.056   7.218 -1.9760 -2.4083  0.7349
   36MOL   H48729957   7.425   1.207   7.017  1.0283 -2.3799  2.5176
   36MOL   H48829958   7.348   1.048   6.989 -1.4021 -0.3995  0.8364
   36MOL   H48929959   7.130   1.160   6.990  2.1657 -2.0299  1.5665
   36MOL   H49029960   7.212   1.312   6.982 -0.9237 -1.3674  0.5384
   36MOL   H49129961   7.355   1.242   6.787  1.4526 -1.0465  0.7827
   36MOL   H49229962   7.256   1.103   6.760 -0.1598  1.3044 -0.4956
   36MOL   H49329963   7.067   1.239   6.702  0.1258 -0.3117  0.1262
   36MOL   H49429964   7.110   1.370   6.791 -0.6385  0.9650 -2.0654
   36MOL   H49529965   7.267   1.458   6.654  2.2569 -0.9993 -1.3040
   36MOL   H49629966   7.297   1.315   6.559 -0.1779  1.4372 -1.2884
   36MOL   H49729967   7.083   1.322   6.441  0.9698  0.6983 -0.2187
   36MOL   H49829968   7.020   1.453   6.539  0.3232  1.5112 -0.7019
   36MOL   H49929969   7.280   1.490   6.392  1.7149  3.1684  2.4046
   36MOL   H50029970   7.184   1.609   6.461  0.3017 -1.0265  1.0385
   36MOL   H50129971   6.986   1.529   6.296 -0.0602 -0.7252  1.5298
   36MOL   H50229972   7.111   1.650   6.248 -2.6140  0.2618  0.0715
   36MOL   H50329973   7.162   1.340   6.195  0.6061  0.7033  0.6882
   36MOL   H50429974   7.051   1.446   6.095 -0.2403 -2.2882 -0.1206
   36MOL   H50529975   7.224   1.484   6.105 -0.8669  2.4078  0.0204
   36MOL   C50629976   7.138   1.404   7.561 -0.7624 -0.3325  0.5585
   36MOL   C50729977   7.003   1.379   7.507  0.3336  0.2783  0.0470
   36MOL   C50829978   6.912   1.307   7.622  1.0006 -0.1681 -0.0310
   36MOL   C50929979   6.937   1.159   7.638  0.1650  0.1194 -0.3733
   36MOL   C51029980   6.869   1.080   7.523  0.0405  0.0556  0.1373
   36MOL   C51129981   6.903   0.929   7.526 -0.1826  0.2809 -0.3232
   36MOL   C51229982   6.930   0.853   7.660 -0.8318  0.5286  0.3429
   36MOL   C51329983   6.925   0.700   7.642  0.1569  0.5817 -0.9134
   36MOL   C51429984   6.935   0.623   0.079 -0.5981  0.5134 -0.2910
   36MOL   C51529985   6.914   0.472   0.060 -0.4833 -0.2938 -0.3034
   36MOL   C51629986   7.019   0.393   7.666 -0.6896  0.3006  0.0000
   36MOL   C51729987   6.983   0.247   7.653 -0.1559  0.8698  0.4368
   36MOL   C51829988   7.067   0.152   7.562  0.3330 -0.5697 -0.2664
   36MOL   C51929989   7.030   0.179   7.412  0.1775 -0.6484 -0.0613
   36MOL   H52029990   7.129   1.505   7.601  0.7969  0.3154 -0.6700
   36MOL   H52129991   7.162   1.347   7.651  0.6599  0.9858  1.0240
   36MOL   H52229992   7.027   1.313   7.425  1.5172  0.5165  0.1940
   36MOL   H52329993   6.914   1.359   0.022 -0.3066 -0.0956 -0.0443
   36MOL   H52429994   6.807   1.314   7.594  1.3348 -0.2045 -1.3599
   36MOL   H52529995   7.041   1.130   7.647  0.0378  0.1911  1.7961
   36MOL   H52629996   6.899   1.133   0.042  1.7639  1.0751  0.5120
   36MOL   H52729997   6.913   1.113   7.429 -1.0402  1.9677  0.2694
   36MOL   H52829998   6.761   1.094   7.519 -0.0069 -0.6898 -1.2066
   36MOL   H52929999   7.002   0.923   7.482  1.3790  0.9301  2.9285
   36MOL   H53030000   6.827   0.876   7.468  0.2387  0.6508 -1.2209
   36MOL   H53130001   7.027   0.881   0.003 -0.5629  1.1129 -0.7517
   36MOL   H53230002   6.854   0.889   0.034 -0.9458  0.4180  0.2766
   36MOL   H53330003   7.019   0.684   7.589 -0.1043  2.0876 -1.8490
   36MOL   H53430004   6.844   0.664   7.578 -1.6975  1.9653  0.6037
   36MOL   H53530005   6.870   0.658   0.159 -0.7425 -1.0664  0.3108
   36MOL   H53630006   7.034   0.638   0.123  0.0410  1.3138 -1.9847
   36MOL   H53730007   6.922   0.417   0.153  0.6905 -0.1785 -0.3286
   36MOL   H53830008   6.816   0.448   0.019 -0.3590  1.7069 -1.8420
   36MOL   H53930009   7.028   0.442   7.570  1.1366  0.5313  0.2781
   36MOL   H54030010   7.114   0.384   0.022  0.0288 -1.5405 -1.5905
   36MOL   H54130011   6.881   0.237   7.616  0.2049 -2.4409  0.1009
   36MOL   H54230012   6.994   0.205   0.058 -1.8793  0.2824  0.3941
   36MOL   H54330013   7.044   0.047   7.576  1.5158 -1.0455 -1.7875
   36MOL   H54430014   7.173   0.164   7.585  0.2018 -0.8111  0.4939
   36MOL   H54530015   7.103   0.135   7.344  0.6515 -1.4951  0.9866
   36MOL   H54630016   6.935   0.129   7.395 -0.7725 -0.4518  4.2089
   36MOL   H54730017   7.016   0.285   7.389 -1.1470 -0.5082  1.2951
   36MOL   C54830018   6.930   1.501   7.452 -0.1420  0.2598  0.5493
   36MOL   C54930019   6.825   1.473   7.343 -0.6996  0.1938 -0.1959
   36MOL   C55030020   6.707   1.565   7.386 -0.2301 -0.0878  0.0340
   36MOL   C55130021   6.620   1.510   7.499  0.2191  0.0611 -0.3245
   36MOL   C55230022   6.560   1.369   7.479  0.1129  0.8569  0.6745
   36MOL   C55330023   6.506   1.300   7.604 -0.5265  0.0618 -0.0597
   36MOL   C55430024   6.382   1.367   7.653  0.1277 -0.3123  0.2339
   36MOL   C55530025   6.311   1.324   0.088  0.6047  0.6055 -0.1415
   36MOL   C55630026   6.270   1.173   0.094 -0.5181  0.1520 -0.2282
   36MOL   C55730027   6.341   1.103   0.204 -0.4990 -0.5712 -0.3213
   36MOL   C55830028   6.278   0.968   0.231 -0.7644  0.1712 -0.4487
   36MOL   C55930029   6.359   0.899   0.344  0.3279 -0.2116 -0.0225
   36MOL   C56030030   6.295   0.776   0.394  0.1115 -0.0299 -0.7563
   36MOL   C56130031   6.391   0.692   0.487 -0.7057 -0.0141  0.5434
   36MOL   H56230032   6.889   1.554   7.539  1.2873  1.2179  0.6562
   36MOL   H56330033   7.005   1.572   7.416  0.7148 -1.4427 -1.1016
   36MOL   H56430034   6.798   1.368   7.350 -0.8405  0.3622  2.5180
   36MOL   H56530035   6.740   1.668   7.405  1.0115 -0.1478 -1.6205
   36MOL   H56630036   6.645   1.576   7.297  2.1103  1.1873 -1.5316
   36MOL   H56730037   6.546   1.582   7.533 -1.8356 -2.3999  0.6299
   36MOL   H56830038   6.683   1.507   7.588  0.1948 -3.1593 -0.3299
   36MOL   H56930039   6.495   1.370   7.391 -0.3256 -0.8643  0.9735
   36MOL   H57030040   6.635   1.298   7.444  0.8184  1.8898  0.0412
   36MOL   H57130041   6.581   1.293   7.683 -0.4593  3.4458  0.2331
   36MOL   H57230042   6.480   1.199   7.571 -0.4154  0.8869 -2.7532
   36MOL   H57330043   6.418   1.470   7.663 -0.9197  0.1027 -0.1907
   36MOL   H57430044   6.323   1.369   7.562 -1.5687 -0.5451  1.3140
   36MOL   H57530045   6.217   1.378   0.076  1.1820  1.3658 -1.3844
   36MOL   H57630046   6.377   1.345   0.172  2.5123 -0.6247 -1.2852
   36MOL   H57730047   6.289   1.131   7.690 -0.0166  1.0627 -0.5271
   36MOL   H57830048   6.163   1.171   0.115 -0.0884 -3.0106  1.9821
   36MOL   H57930049   6.445   1.083   0.179  0.0308  1.0424  0.5287
   36MOL   H58030050   6.336   1.164   0.294 -3.3548  2.0955 -2.1811
   36MOL   H58130051   6.286   0.898   0.147 -0.6216 -1.5236  0.9563
   36MOL   H58230052   6.171   0.974   0.251 -0.9225 -1.1245 -0.8336
   36MOL   H58330053   6.462   0.888   0.308  0.6316  2.7466 -0.1592
   36MOL   H58430054   6.366   0.960   0.434 -0.8918  1.6114 -1.1096
   36MOL   H58530055   6.196   0.794   0.438  0.8044  0.3719  0.6795
   36MOL   H58630056   6.252   0.711   0.318 -1.7081 -0.1797  0.3495
   36MOL   H58730057   6.356   0.592   0.510 -0.2010 -0.0313  1.2485
   36MOL   H58830058   6.486   0.686   0.435 -1.1941 -0.3854 -0.3098
   36MOL   H58930059   6.412   0.733   0.586  0.6173 -0.0795  0.2899
   36MOL   C59030060   6.882   1.518   7.198 -0.0676 -0.5096 -0.1014
   36MOL   C59130061   6.805   1.452   7.083  0.4792  0.5170 -0.3743
   36MOL   C59230062   6.824   1.518   6.943 -0.1534  0.2383  0.9110
   36MOL   C59330063   6.754   1.658   6.924  0.1165  0.4892 -0.2634
   36MOL   C59430064   6.761   1.706   6.775 -0.7152 -0.0164 -0.7066
   36MOL   C59530065   6.900   1.762   6.734 -1.0357 -0.8985  0.0100
   36MOL   C59630066   6.905   1.820   6.596 -0.8374  0.2392  0.3395
   36MOL   C59730067   6.962   1.962   6.600 -0.7332  0.0352 -0.3106
   36MOL   C59830068   6.992   2.007   6.456  0.5344 -0.3675  0.5839
   36MOL   C59930069   7.050   2.151   6.447 -0.3656  0.9287  0.6035
   36MOL   C60030070   7.134   2.176   6.321 -0.1616  0.2747 -0.1015
   36MOL   C60130071   7.262   2.258   6.349  0.2776  0.1792  0.0519
   36MOL   C60230072   7.326   2.296   6.218 -0.3774  0.3024 -0.8939
   36MOL   C60330073   7.434   2.398   6.261 -0.1337  0.3148  0.6535
   36MOL   H60430074   6.988   1.497   7.180 -0.2386 -1.7588  0.3425
   36MOL   H60530075   6.869   1.627   7.193 -0.9352 -0.5582  1.0210
   36MOL   H60630076   6.700   1.450   7.112  0.0830  0.4152 -1.7533
   36MOL   H60730077   6.794   1.457   6.858  2.8099  0.2629 -0.2098
   36MOL   H60830078   6.926   1.551   6.922 -0.6267  1.1613  0.0173
   36MOL   H60930079   6.785   1.734   6.996  1.1982 -0.4275  0.2686
   36MOL   H61030080   6.653   1.632   6.953 -0.1224  2.7180  1.0153
   36MOL   H61130081   6.693   1.791   6.764 -0.9862 -0.0254  0.8117
   36MOL   H61230082   6.737   1.631   6.699  2.1412  0.5823 -2.3161
   36MOL   H61330083   6.983   1.692   6.743 -0.0701  0.3963  1.6684
   36MOL   H61430084   6.916   1.840   6.809  2.5161 -1.5353  0.0010
   36MOL   H61530085   6.965   1.757   6.530 -1.4117  0.0949 -0.0505
   36MOL   H61630086   6.805   1.815   6.555 -0.3625  0.7972 -0.9418
   36MOL   H61730087   6.894   2.031   6.650 -0.2573 -0.2371  0.7167
   36MOL   H61830088   7.060   1.964   6.646 -1.9638 -1.4513  2.5632
   36MOL   H61930089   7.041   1.930   6.397  1.2148 -0.3825  1.1527
   36MOL   H62030090   6.900   2.024   6.401  1.1666  1.1005 -0.0334
   36MOL   H62130091   6.970   2.223   6.465  0.7534  1.9156  1.7496
   36MOL   H62230092   7.119   2.156   6.531  0.2573 -2.7850  0.3913
   36MOL   H62330093   7.075   2.228   6.245  1.1981  1.7972 -0.1648
   36MOL   H62430094   7.158   2.080   6.275 -2.2607  0.4437 -1.6475
   36MOL   H62530095   7.330   2.210   6.420 -1.2114  0.0261  1.3946
   36MOL   H62630096   7.225   2.350   6.393 -2.4634 -0.0430 -1.6531
   36MOL   H62730097   7.367   2.212   6.161  1.3365  0.9778 -0.6890
   36MOL   H62830098   7.258   2.333   6.142 -2.0681  1.2823  1.0343
   36MOL   H62930099   7.394   2.488   6.306 -0.0052  1.6276 -1.7818
   36MOL   H63030100   7.479   2.445   6.173 -0.2304 -0.2691  0.2894
   36MOL   H63130101   7.520   2.354   6.313  0.5950  1.6245  0.5784
   36MOL   C63230102   6.850   1.306   7.066 -0.3710  0.5916  0.2220
   36MOL   C63330103   6.746   1.196   7.050  0.7765  0.0644 -0.5199
   36MOL   C63430104   6.817   1.061   7.037  0.1556  0.0148 -0.0960
   36MOL   C63530105   6.878   0.996   7.162 -0.3123  0.2110  0.2968
   36MOL   C63630106   6.945   0.862   7.153  0.1444 -0.1415  0.5139
   36MOL   C63730107   7.055   0.843   7.038 -0.2000 -0.1468  0.2023
   36MOL   C63830108   7.138   0.713   7.061  0.1016  0.0852 -0.0605
   36MOL   C63930109   7.268   0.687   6.974  0.3094 -0.4571  0.1379
   36MOL   C64030110   7.248   0.705   6.825 -0.4315 -0.3332 -0.4668
   36MOL   C64130111   7.375   0.672   6.741 -0.6685 -0.4389 -0.9053
   36MOL   C64230112   7.464   0.792   6.702  0.1145 -0.7376 -0.2495
   36MOL   C64330113   7.558   0.753   6.592 -0.8852  0.1749 -0.9654
   36MOL   C64430114   7.591   0.879   6.512 -0.8002 -0.7242  0.1900
   36MOL   C64530115   7.490   0.921   6.407  0.4726  1.0501 -0.0831
   36MOL   H64630116   6.906   1.287   7.157 -0.0487 -3.1438 -0.7023
   36MOL   H64730117   6.925   1.299   6.987  0.6857  4.3502  0.7622
   36MOL   H64830118   6.691   1.221   6.959  0.0515 -0.1348 -0.1391
   36MOL   H64930119   6.742   0.991   6.999  1.4944 -0.3715 -2.1441
   36MOL   H65030120   6.889   1.075   6.956 -0.3317 -1.9945 -0.9131
   36MOL   H65130121   6.812   0.995   7.249  1.3014 -1.1652  1.5791
   36MOL   H65230122   6.958   1.061   7.200 -0.0722 -0.6374  1.2888
   36MOL   H65330123   6.869   0.787   7.130 -1.2636  2.0228 -2.2172
   36MOL   H65430124   6.977   0.834   7.253 -0.1901  0.8353  0.9011
   36MOL   H65530125   7.010   0.847   6.938  0.4614  1.5782 -0.0514
   36MOL   H65630126   7.125   0.926   7.047  0.5882 -0.6462 -1.1730
   36MOL   H65730127   7.157   0.694   7.166  0.8902 -0.5401 -0.3122
   36MOL   H65830128   7.065   0.636   7.035 -0.4426  0.6210 -0.1389
   36MOL   H65930129   7.307   0.589   7.001 -2.2006 -0.9317  2.2525
   36MOL   H66030130   7.335   0.760   7.018 -0.1142  0.6359 -0.9792
   36MOL   H66130131   7.199   0.799   6.801 -0.2003 -0.3169 -0.8818
   36MOL   H66230132   7.169   0.637   6.795 -0.6478  0.3370 -1.4382
   36MOL   H66330133   7.426   0.598   6.802  1.7470  1.9167 -0.0102
   36MOL   H66430134   7.353   0.604   6.658  1.6364 -2.0829 -0.2214
   36MOL   H66530135   7.391   0.865   6.666  0.3421  0.3479  1.4186
   36MOL   H66630136   7.510   0.851   6.781 -1.8431 -0.4708  0.7252
   36MOL   H66730137   7.503   0.685   6.527 -0.1168 -2.3065  0.9131
   36MOL   H66830138   7.644   0.706   6.639 -0.0573  1.0506 -1.5839
   36MOL   H66930139   7.678   0.838   6.461 -2.2843 -1.6869 -1.6129
   36MOL   H67030140   7.634   0.964   6.565 -1.0884 -0.8514  0.6340
   36MOL   H67130141   7.536   0.997   6.344  1.8925 -0.0940 -0.4638
   36MOL   H67230142   7.463   0.837   6.344  1.1626  0.2575  0.6639
   36MOL   H67330143   7.399   0.955   6.456 -0.9820  0.8477 -2.5996
   36MOL   C67430144   6.629   1.187   7.161  0.2812 -0.1774  0.5423
   36MOL   C67530145   6.532   1.063   7.147  0.4067 -0.0530  0.8380
   36MOL   C67630146   6.439   1.045   7.268 -0.0037  0.2398 -0.2134
   36MOL   C67730147   6.511   0.975   7.380  0.2535  0.1534 -0.5614
   36MOL   C67830148   6.419   0.891   7.472  0.1122 -0.5898 -0.3273
   36MOL   C67930149   6.505   0.810   7.572 -0.1397 -0.5068 -0.2945
   36MOL   C68030150   6.412   0.705   7.629  0.2665  0.0755 -0.2604
   36MOL   C68130151   6.478   0.625   0.044 -0.3460  0.4607  0.2033
   36MOL   C68230152   6.397   0.521   0.118 -0.0401  0.1646  0.7491
   36MOL   C68330153   6.474   0.440   0.223  0.1611 -0.3790  0.4624
   36MOL   C68430154   6.382   0.352   0.314 -0.2311 -0.2784 -0.6121
   36MOL   C68530155   6.451   0.308   0.445 -0.4925 -0.3092 -0.2706
   36MOL   C68630156   6.380   0.192   0.512 -0.1215  0.0528  0.2886
   36MOL   C68730157   6.384   0.059   0.445  0.5580  0.2889  0.8709
   36MOL   H68830158   6.565   1.275   7.161  1.7091  0.8800  0.5743
   36MOL   H68930159   6.679   1.192   7.258  2.2468  1.2605 -0.5167
   36MOL   H69030160   6.595   0.977   7.122 -1.6008 -0.9648 -1.2271
   36MOL   H69130161   6.395   1.142   7.292  0.0700  0.4600 -0.9563
   36MOL   H69230162   6.345   0.993   7.250 -0.3702  0.7943  0.0712
   36MOL   H69330163   6.590   0.912   7.340  0.9876  0.4448  0.4253
   36MOL   H69430164   6.556   1.060   7.430  0.6934 -0.0540 -0.6072
   36MOL   H69530165   6.356   0.962   7.525  0.2882 -0.2204 -0.6087
   36MOL   H69630166   6.358   0.825   7.411 -1.9720  1.6534 -0.7453
   36MOL   H69730167   6.589   0.752   7.535 -0.8272 -1.0921 -0.9615
   36MOL   H69830168   6.539   0.882   7.646 -0.5743  0.9530 -1.4811
   36MOL   H69930169   6.320   0.742   7.675  1.1065 -1.2556  2.6078
   36MOL   H70030170   6.372   0.643   7.549  1.7893 -0.2473 -0.7908
   36MOL   H70130171   6.571   0.586   0.003 -1.1715 -0.6110 -0.6882
   36MOL   H70230172   6.503   0.692   0.126 -1.5443 -0.8433  1.6854
   36MOL   H70330173   6.308   0.576   0.150  0.1283  1.1018 -0.3594
   36MOL   H70430174   6.347   0.442   0.062 -0.9000 -0.0558  1.8165
   36MOL   H70530175   6.534   0.507   0.285 -2.0952  0.9086  1.3409
   36MOL   H70630176   6.543   0.380   0.164 -0.7662 -2.3718  1.3769
   36MOL   H70730177   6.357   0.260   0.262  0.6953 -1.3307  0.7709
   36MOL   H70830178   6.292   0.407   0.342 -0.5520 -0.3059 -1.5745
   36MOL   H70930179   6.456   0.384   0.523  0.0095 -2.0196  1.3679
   36MOL   H71030180   6.555   0.280   0.426 -0.9668 -1.3424 -1.4147
   36MOL   H71130181   6.426   0.175   0.610  0.9662  1.1120 -0.0232
   36MOL   H71230182   6.276   0.219   0.533 -0.1675  0.2954 -0.2563
   36MOL   H71330183   6.330   7.677   0.499  2.2556 -0.1293  1.9911
   36MOL   H71430184   6.316   0.059   0.359  0.9591 -1.7264  0.5378
   36MOL   H71530185   6.488   0.035   0.425 -0.0112  0.6432 -3.0389
   36MOL   C71630186   6.441   1.092   7.026 -0.9828 -0.9822  0.0889
   36MOL   C71730187   6.373   0.974   6.956 -0.0244 -0.0710 -0.2385
   36MOL   C71830188   6.243   1.015   6.901 -0.1883  0.6872  0.0637
   36MOL   C71930189   6.137   1.045   7.004 -0.4284 -0.1856  0.3575
   36MOL   C72030190   5.995   1.019   6.949  0.5447  0.3340  0.4968
   36MOL   C72130191   5.893   1.052   7.055 -0.1848 -0.2791 -0.2337
   36MOL   C72230192   5.762   0.976   7.046 -0.3937  0.3708  0.4265
   36MOL   C72330193   5.659   1.011   7.147  0.0169 -0.4745 -0.0124
   36MOL   C72430194   5.543   0.922   7.154 -0.0584 -0.1123  0.2268
   36MOL   C72530195   5.559   0.774   7.184  0.1031  0.1516 -0.1397
   36MOL   C72630196   5.429   0.697   7.185  0.1428  0.5239 -0.5903
   36MOL   C72730197   5.424   0.575   7.279 -0.3039  0.5150  0.2262
   36MOL   C72830198   5.314   0.483   7.249  0.6020  0.2717 -0.7386
   36MOL   C72930199   5.293   0.375   7.353  0.5128 -0.3980 -0.5445
   36MOL   H73030200   6.362   1.163   7.051  0.7677  0.7647  0.8099
   36MOL   H73130201   6.498   1.140   6.946 -0.7226  0.0276  0.8774
   36MOL   H73230202   6.359   0.904   7.038  3.2928  1.3890  1.7035
   36MOL   H73330203   6.209   0.927   6.848 -0.0158  1.1104 -0.7574
   36MOL   H73430204   6.242   1.087   6.819 -0.1784  0.1016 -0.4561
   36MOL   H73530205   6.157   0.971   7.081  0.8019 -1.3826 -1.0839
   36MOL   H73630206   6.138   1.148   7.041  0.6353  0.0410 -0.2802
   36MOL   H73730207   5.977   1.063   6.851 -2.0762  0.4589  0.9956
   36MOL   H73830208   5.997   0.915   6.917 -1.0710  0.3859  0.1921
   36MOL   H73930209   5.925   1.026   7.156  0.9772  3.4546  0.4259
   36MOL   H74030210   5.873   1.159   7.049  2.0590  0.1753  0.0245
   36MOL   H74130211   5.717   0.989   6.947  1.7475 -0.7132 -0.7431
   36MOL   H74230212   5.782   0.869   7.047  0.1943  0.4028 -2.5350
   36MOL   H74330213   5.639   1.118   7.149  3.9663  0.3934 -2.5640
   36MOL   H74430214   5.716   1.006   7.240 -0.0233 -0.1396  0.0338
   36MOL   H74530215   5.472   0.951   7.231 -0.9113 -1.0646 -0.1868
   36MOL   H74630216   5.494   0.928   7.057  0.6175  1.8554 -0.0236
   36MOL   H74730217   5.628   0.733   7.110  0.6232 -1.0859  1.0130
   36MOL   H74830218   5.603   0.766   7.283 -0.6391  0.5216  0.2298
   36MOL   H74930219   5.344   0.761   7.207 -0.2867 -0.4522  0.6391
   36MOL   H75030220   5.411   0.648   7.090  1.0720  0.8024 -0.9191
   36MOL   H75130221   5.516   0.516   7.280 -0.5139  0.1437 -1.0635
   36MOL   H75230222   5.408   0.621   7.376 -2.3730 -2.0258  1.1426
   36MOL   H75330223   5.341   0.439   7.153 -1.0776  2.5082 -2.2585
   36MOL   H75430224   5.224   0.541   7.235 -0.1186 -0.6699 -0.0749
   36MOL   H75530225   5.213   0.308   7.321  1.7058 -2.1011 -0.0793
   36MOL   H75630226   5.263   0.424   7.445  0.1242  1.1781 -1.4870
   36MOL   H75730227   5.379   0.313   7.378  1.7751  1.6193  0.1778
   36MOL   C75830228   6.458   0.910   6.846  0.7561 -0.1952  0.6010
   36MOL   C75930229   6.413   0.764   6.827 -0.6818  0.3907 -0.2061
   36MOL   C76030230   6.360   0.749   6.687 -0.0678 -0.7076  0.0968
   36MOL   C76130231   6.301   0.610   6.661 -0.1412 -0.2484 -0.4142
   36MOL   C76230232   6.235   0.593   6.527 -0.3308 -0.5695 -0.1158
   36MOL   C76330233   6.342   0.583   6.410  0.4034 -0.1127  0.4435
   36MOL   C76430234   6.277   0.598   6.265 -0.8643 -0.2534 -0.9545
   36MOL   C76530235   6.375   0.562   6.148 -0.4584  0.2721  0.3440
   36MOL   C76630236   6.318   0.596   6.013 -0.5377 -0.5356 -0.0381
   36MOL   C76730237   6.421   0.571   5.905 -0.7068  0.1692  0.8711
   36MOL   C76830238   6.380   0.573   5.751 -0.2842  0.0280  0.1590
   36MOL   C76930239   6.354   0.708   5.695  0.3165  0.1577 -0.2048
   36MOL   C77030240   6.287   0.693   5.559  0.0557  0.4149  0.0736
   36MOL   C77130241   6.278   0.807   5.460 -0.8461 -0.3993  0.1885
   36MOL   H77230242   6.459   0.961   6.750  0.4612 -1.0361  0.1451
   36MOL   H77330243   6.561   0.901   6.882  1.6930  2.5841 -1.2255
   36MOL   H77430244   6.324   0.741   6.887  0.7488  1.2627  2.3121
   36MOL   H77530245   6.282   0.821   6.662 -0.7810 -1.0822  1.2373
   36MOL   H77630246   6.448   0.768   6.625  0.2209  2.0896  1.2924
   36MOL   H77730247   6.375   0.530   6.664 -1.4215 -1.4320  0.9903
   36MOL   H77830248   6.228   0.586   6.739  1.2740 -0.6724  0.8114
   36MOL   H77930249   6.161   0.672   6.515 -0.9381 -1.5232 -2.8369
   36MOL   H78030250   6.172   0.504   6.528 -1.5270  0.2691  0.2663
   36MOL   H78130251   6.394   0.487   6.408 -1.5700 -1.1891 -0.1525
   36MOL   H78230252   6.419   0.657   6.431 -1.4610  1.3850  2.1351
   36MOL   H78330253   6.180   0.547   6.267  0.3389 -2.5553  0.6289
   36MOL   H78430254   6.253   0.704   6.256  2.9457  0.6429 -1.1314
   36MOL   H78530255   6.395   0.455   6.152  0.9444  0.5100 -0.2339
   36MOL   H78630256   6.473   0.608   6.160 -0.7518  0.9216  0.3313
   36MOL   H78730257   6.290   0.701   6.006  1.5581 -0.0446 -1.1914
   36MOL   H78830258   6.220   0.548   6.002 -1.7864  1.7827  0.6368
   36MOL   H78930259   6.459   0.470   5.919  1.0738  0.8178  0.8515
   36MOL   H79030260   6.500   0.645   5.922  2.3414 -1.4839 -4.8734
   36MOL   H79130261   6.464   0.531   5.695 -1.1711 -0.1786 -1.0261
   36MOL   H79230262   6.293   0.510   5.733  1.5129 -2.4296 -0.1637
   36MOL   H79330263   6.289   0.770   5.757  0.1438 -0.9402  0.7221
   36MOL   H79430264   6.451   0.757   5.690  0.7735 -0.9437 -3.1942
   36MOL   H79530265   6.331   0.603   5.516 -0.3660  0.7291 -1.0232
   36MOL   H79630266   6.183   0.671   5.584 -0.5968  1.7097 -1.4342
   36MOL   H79730267   6.210   0.783   5.378  0.1399 -2.4369 -0.0620
   36MOL   H79830268   6.259   0.902   5.510 -0.8803  0.2794 -1.0787
   36MOL   H79930269   6.375   0.826   5.413 -1.1224  2.6517  0.7024
   36MOL   C80030270   6.524   0.664   6.873 -0.6433 -0.3058  0.8581
   36MOL   C80130271   6.551   0.670   7.027  0.0934 -0.5969 -0.7088
   36MOL   C80230272   6.643   0.558   7.087 -0.6930 -0.1523  0.0084
   36MOL   C80330273   6.649   0.588   7.235  0.6118 -0.2799 -0.3205
   36MOL   C80430274   6.726   0.483   7.310  0.5431  0.1145  0.6410
   36MOL   C80530275   6.657   0.350   7.318  0.2083 -0.0482  0.7078
   36MOL   C80630276   6.534   0.345   7.407 -0.4166 -0.6035  0.1242
   36MOL   C80730277   6.483   0.204   7.443 -0.0844  0.7547  0.1787
   36MOL   C80830278   6.346   0.207   7.524 -0.3996 -0.4701 -0.2244
   36MOL   C80930279   6.224   0.261   7.444 -0.1591  0.5680  0.2778
   36MOL   C81030280   6.090   0.247   7.521  0.3664  0.2674  0.0532
   36MOL   C81130281   5.959   0.273   7.447  0.3049 -0.1525  0.5404
   36MOL   C81230282   5.833   0.240   7.528 -0.0424  0.1775 -0.5565
   36MOL   C81330283   5.708   0.267   7.450  0.6387 -0.1917  1.1044
   36MOL   H81430284   6.620   0.681   6.823  0.1786  0.1656  2.5512
   36MOL   H81530285   6.498   0.562   6.844 -0.6498 -0.5393  1.6627
   36MOL   H81630286   6.453   0.667   7.076  1.0012  4.4416  1.7572
   36MOL   H81730287   6.737   0.564   7.033  0.5207 -1.1711  1.9269
   36MOL   H81830288   6.596   0.465   7.054  0.3006 -1.1645  1.3465
   36MOL   H81930289   6.549   0.598   7.278  1.5545 -1.3938  2.2255
   36MOL   H82030290   6.686   0.688   7.255 -1.1893  0.5820 -1.1981
   36MOL   H82130291   6.826   0.474   7.267  0.4581  2.9365 -0.2477
   36MOL   H82230292   6.745   0.514   7.412 -0.1840 -0.1748  0.8678
   36MOL   H82330293   6.731   0.285   7.365 -0.7914 -0.5501  1.6025
   36MOL   H82430294   6.625   0.302   7.226  0.0797  0.8415  0.2804
   36MOL   H82530295   6.560   0.395   7.500 -0.6093  1.4015 -0.8677
   36MOL   H82630296   6.455   0.406   7.363  0.2336  0.7536  0.8359
   36MOL   H82730297   6.475   0.140   7.355  0.6286  0.9208 -0.0096
   36MOL   H82830298   6.555   0.151   7.506  0.0991 -1.3806 -1.7402
   36MOL   H82930299   6.320   0.105   7.554  0.6081 -0.6606  0.0405
   36MOL   H83030300   6.362   0.271   7.611 -1.0262  0.1074 -0.5356
   36MOL   H83130301   6.213   0.212   7.348 -2.1472 -2.1983  1.8238
   36MOL   H83230302   6.240   0.368   7.430 -0.0484  0.4788 -0.2590
   36MOL   H83330303   6.086   0.147   7.564  0.8973 -0.3944 -1.3997
   36MOL   H83430304   6.086   0.311   7.609 -2.0666  2.4920 -1.6043
   36MOL   H83530305   5.945   0.218   7.353 -0.7036 -0.2009  0.7166
   36MOL   H83630306   5.947   0.378   7.421  0.0021 -0.2561  0.2593
   36MOL   H83730307   5.848   0.136   7.557  2.1875  0.2096 -1.4477
   36MOL   H83830308   5.839   0.299   7.620  2.7511 -0.4010 -0.2981
   36MOL   H83930309   5.705   0.199   7.365  1.9396  0.5473  0.4515
   36MOL   H84030310   5.621   0.255   7.515 -1.5085  2.7528 -1.0905
   36MOL   H84130311   5.697   0.363   7.400 -3.1535 -0.8417  0.5364
   36MOL   H84230312   6.601   0.760   7.064  0.8387 -1.0502 -0.6076
   37MOL     C130313   1.392   7.527   3.260  0.5474 -0.0863  0.4374
   37MOL     C230314   1.470   7.391   3.256 -0.0410 -0.0548  0.2950
   37MOL     C330315   1.613   7.417   3.308  0.3834  0.0395  0.0179
   37MOL     C430316   1.721   7.433   3.190 -0.2429 -0.3299 -0.7341
   37MOL     C530317   1.868   7.420   3.238 -0.2600 -0.3660 -0.3382
   37MOL     C630318   1.973   7.416   3.118 -0.3965 -0.2196 -0.1088
   37MOL     C730319   2.111   7.444   3.184  0.0132 -0.1950 -0.2099
   37MOL     C830320   2.228   7.434   3.083  0.0384 -0.4555  0.4136
   37MOL     C930321   2.368   7.471   3.127 -0.3105  0.3985  0.3159
   37MOL    C1030322   2.462   7.455   3.008 -0.2610 -0.3685 -0.1328
   37MOL    C1130323   2.611   7.439   3.040  0.0628  0.0350  0.5326
   37MOL    C1230324   2.678   7.554   3.116 -0.0082  0.2321 -0.0433
   37MOL    C1330325   2.690   7.688   3.042  0.7463  0.3072 -0.1365
   37MOL    C1430326   2.740   0.098   3.139  0.0182  0.1810 -0.4189
   37MOL    H1530327   1.439   7.589   3.184  2.9843 -0.8138  1.3107
   37MOL    H1630328   1.397   7.579   3.355  0.5291  2.3864 -0.8692
   37MOL    H1730329   1.467   7.370   3.149 -0.4030  0.5125  0.1913
   37MOL    H1830330   1.616   7.506   3.370  1.4060 -0.6234  0.9370
   37MOL    H1930331   1.660   7.353   3.383  2.6447  0.5470 -0.9270
   37MOL    H2030332   1.703   7.530   3.142 -0.9238 -0.0468  0.0824
   37MOL    H2130333   1.713   7.370   3.101  1.2871  0.0875 -1.1913
   37MOL    H2230334   1.883   7.337   3.306  1.0188  0.8635  0.9351
   37MOL    H2330335   1.886   7.510   3.297 -2.1216 -0.0815 -0.1844
   37MOL    H2430336   1.956   7.496   3.046  2.1211  0.2457 -0.2303
   37MOL    H2530337   1.964   7.318   3.071 -2.2071  0.4818 -1.2877
   37MOL    H2630338   2.105   7.545   3.225  1.1942  0.1528 -0.8724
   37MOL    H2730339   2.125   7.365   3.259  3.5069  0.7657  0.2567
   37MOL    H2830340   2.208   7.499   2.997 -0.1887  0.9194  1.5035
   37MOL    H2930341   2.230   7.330   3.049 -0.0956 -0.0669 -0.8222
   37MOL    H3030342   2.366   7.576   3.156 -0.6760  0.5452 -0.2075
   37MOL    H3130343   2.396   7.407   3.210  0.3352 -1.7053 -1.4603
   37MOL    H3230344   2.424   7.366   2.956 -1.0354 -0.7028  0.9927
   37MOL    H3330345   2.454   7.530   2.929 -1.4320 -0.5697 -0.2172
   37MOL    H3430346   2.638   7.344   3.085  0.6408 -0.5320 -0.9886
   37MOL    H3530347   2.658   7.427   2.943  0.1819 -0.8317  0.6914
   37MOL    H3630348   2.768   7.520   3.167 -0.6177 -2.4814 -0.6869
   37MOL    H3730349   2.617   7.567   3.206 -1.4652 -3.0294 -0.4603
   37MOL    H3830350   2.764   7.688   2.962 -0.0651 -0.9776 -0.9014
   37MOL    H3930351   2.593   0.025   3.005 -1.4301 -2.3744  2.9197
   37MOL    H4030352   2.745   0.178   3.065  1.5777  1.6393  1.2213
   37MOL    H4130353   2.656   0.124   3.203  1.3756 -0.0402  1.4655
   37MOL    H4230354   2.829   0.076   3.198  0.3860  1.3943 -0.5055
   37MOL    H4330355   1.286   7.508   3.244  0.2757  1.3056  0.5013
   37MOL    C4430356   1.384   7.297   3.350 -0.1558 -0.2834  0.4218
   37MOL    C4530357   1.438   7.154   3.363  0.3415 -1.1396  0.3849
   37MOL    C4630358   1.494   7.100   3.229  0.2582  0.7449  0.5163
   37MOL    C4730359   1.399   7.084   3.112  0.8561  0.6026  0.6742
   37MOL    C4830360   1.469   7.083   2.976  0.5632  0.5639  0.4300
   37MOL    C4930361   1.385   7.087   2.843  0.1483 -0.3125  0.4243
   37MOL    C5030362   1.333   6.949   2.799  0.2174 -0.6596  0.2750
   37MOL    C5130363   1.227   6.949   2.680  1.0584 -0.0788  0.1930
   37MOL    C5230364   1.139   6.829   2.658  0.2837  0.4201  0.0274
   37MOL    C5330365   1.024   6.845   2.555  0.0580  0.1164 -0.3535
   37MOL    C5430366   0.953   6.708   2.547 -0.0600  0.1150 -0.0083
   37MOL    C5530367   0.837   6.688   2.453  0.3051  0.3552  0.4660
   37MOL    C5630368   0.806   6.536   2.408  0.0874 -0.7809  0.0397
   37MOL    C5730369   0.691   6.523   2.302  0.5068 -0.5979  0.4654
   37MOL    H5830370   1.367   7.338   3.449 -1.0891  1.0472 -0.2815
   37MOL    H5930371   1.286   7.284   3.304  0.0081  0.1150 -0.0413
   37MOL    H6030372   1.515   7.162   3.440  0.0354  1.2864  0.4873
   37MOL    H6130373   1.590   7.147   3.204  0.1202 -0.3599 -2.2827
   37MOL    H6230374   1.528   6.998   3.242  2.1735  1.2636 -0.1341
   37MOL    H6330375   1.326   7.165   3.116  1.4747  1.2965 -1.3063
   37MOL    H6430376   1.346   6.990   3.119  3.6676 -0.9695  1.6811
   37MOL    H6530377   1.531   6.994   2.963  0.8475  0.8070  0.1188
   37MOL    H6630378   1.540   7.166   2.980 -0.3051  1.2565  2.3244
   37MOL    H6730379   1.296   7.146   2.863  0.0269 -1.3117  3.0661
   37MOL    H6830380   1.446   7.128   2.762 -1.0694  1.3104  0.2873
   37MOL    H6930381   1.420   6.892   2.767  0.3514  0.5566 -1.6410
   37MOL    H7030382   1.303   6.885   2.881 -0.4088 -1.4741 -0.5733
   37MOL    H7130383   1.289   6.965   2.592  0.5820 -2.9644 -0.7114
   37MOL    H7230384   1.157   7.031   2.691  0.4798  0.0845 -3.8852
   37MOL    H7330385   1.207   6.750   2.627 -0.7609 -0.8478  0.9679
   37MOL    H7430386   1.099   6.799   2.754  0.9489 -0.1280  0.1324
   37MOL    H7530387   1.076   6.866   2.462  4.5775 -0.6390  1.8315
   37MOL    H7630388   0.964   6.929   2.591  0.4914  0.2423  0.1020
   37MOL    H7730389   0.946   6.667   2.647 -0.0350 -1.2964 -0.5710
   37MOL    H7830390   1.039   6.657   2.503  1.3862  1.7115  0.9446
   37MOL    H7930391   0.747   6.723   2.504  0.9168  1.7799  0.5980
   37MOL    H8030392   0.855   6.753   2.367  3.1052  0.1900  0.8893
   37MOL    H8130393   0.789   6.473   2.495  0.2464 -3.7327 -2.0228
   37MOL    H8230394   0.900   6.495   2.370  1.0581  1.0454  0.3830
   37MOL    H8330395   0.683   6.423   2.259  2.0743 -0.5582  0.0775
   37MOL    H8430396   0.700   6.585   2.213  2.8648  0.7108  1.5802
   37MOL    H8530397   0.591   6.536   2.344 -0.3699 -0.9526 -1.4651
   37MOL    C8630398   1.320   7.065   3.424 -0.1669  0.8332 -0.5843
   37MOL    C8730399   1.379   6.933   3.479  0.2466  0.1979 -0.4559
   37MOL    C8830400   1.269   6.826   3.506 -0.9406  0.1074  0.3324
   37MOL    C8930401   1.150   6.873   3.595  0.1529  0.6668 -0.4969
   37MOL    C9030402   1.029   6.772   3.615  0.0698  0.9967  0.4432
   37MOL    C9130403   1.070   6.636   3.662  0.1068 -0.3184  0.3191
   37MOL    C9230404   0.960   6.538   3.712  0.1613  0.1959  0.1598
   37MOL    C9330405   0.883   6.475   3.597 -0.1078 -0.3044  0.3966
   37MOL    C9430406   0.754   6.408   3.656 -0.0000  0.3863  0.1459
   37MOL    C9530407   0.675   6.319   3.562  0.2657  0.0886 -0.0063
   37MOL    C9630408   0.606   6.401   3.458 -0.5934  0.0109  0.1276
   37MOL    C9730409   0.514   6.321   3.366  0.3822 -0.0667  0.4947
   37MOL    C9830410   0.427   6.404   3.273  0.1271 -0.5480  0.1608
   37MOL    C9930411   0.314   6.324   3.211  0.4428 -0.0743 -0.0298
   37MOL   H10030412   1.272   7.123   3.503  0.2303 -1.1103  1.1091
   37MOL   H10130413   1.237   7.043   3.357 -0.5905 -0.9243  0.4794
   37MOL   H10230414   1.442   6.904   3.395 -0.0867  1.5863 -1.1918
   37MOL   H10330415   1.234   6.793   3.408  0.0466  2.3342 -0.7971
   37MOL   H10430416   1.316   6.736   3.545 -0.9088 -0.0894 -0.1604
   37MOL   H10530417   1.187   6.913   3.689 -0.6741  1.1746 -0.3835
   37MOL   H10630418   1.104   6.959   3.546 -1.0269 -0.6142 -1.6950
   37MOL   H10730419   0.960   6.747   3.534  0.4989 -0.9341  0.6651
   37MOL   H10830420   0.962   6.822   3.686 -0.1116  0.7373  0.4562
   37MOL   H10930421   1.138   6.645   3.746 -0.3408  0.2604  0.6263
   37MOL   H11030422   1.125   6.582   3.585  1.6147 -0.1195  1.2398
   37MOL   H11130423   1.006   6.458   3.770 -1.3965  0.5724  1.9665
   37MOL   H11230424   0.895   6.597   3.777 -0.8409 -0.3591 -0.3339
   37MOL   H11330425   0.940   6.399   3.543 -0.3002  0.5413 -0.9994
   37MOL   H11430426   0.852   6.552   3.527 -0.4746 -0.2168  0.6516
   37MOL   H11530427   0.781   6.351   3.745  0.0166 -3.3411 -2.1519
   37MOL   H11630428   0.686   6.488   3.685  1.0737  1.6061 -0.6641
   37MOL   H11730429   0.608   6.258   3.623 -0.3362  0.8931  0.1442
   37MOL   H11830430   0.750   6.253   3.520 -0.8625 -1.4744  0.3675
   37MOL   H11930431   0.543   6.477   3.503 -0.7053  1.6102 -2.6465
   37MOL   H12030432   0.679   6.452   3.396 -0.7625  3.2779  2.5075
   37MOL   H12130433   0.571   6.261   3.294  1.7900  2.0406 -0.1869
   37MOL   H12230434   0.466   6.254   3.438 -1.8917  1.1135  0.1108
   37MOL   H12330435   0.496   6.433   3.194  0.1345 -1.1056 -0.0358
   37MOL   H12430436   0.384   6.493   3.320 -2.1098 -1.1556 -0.6921
   37MOL   H12530437   0.344   6.234   3.157  2.2120 -0.1395  1.0168
   37MOL   H12630438   0.249   6.284   3.289  1.1696 -1.0400  0.1007
   37MOL   H12730439   0.252   6.384   3.145 -0.3554 -2.1295 -1.1902
   37MOL   C12830440   1.472   6.953   3.600  0.5413 -0.6425  0.1336
   37MOL   C12930441   1.587   6.840   3.607  0.3425 -0.0180 -0.8542
   37MOL   C13030442   1.730   6.890   3.563 -0.3385 -0.4184 -0.2107
   37MOL   C13130443   1.751   6.944   3.424 -0.0442  0.0172  0.2794
   37MOL   C13230444   1.892   6.978   3.387 -0.1685 -0.2496  0.4315
   37MOL   C13330445   1.918   6.999   3.231  0.7593  0.1896 -0.4021
   37MOL   C13430446   2.064   7.019   3.199  0.0609  0.3306  0.0398
   37MOL   C13530447   2.102   7.013   3.051  0.1306 -0.3983  0.5292
   37MOL   C13630448   2.246   6.971   3.041 -0.3362  0.5321  0.0517
   37MOL   C13730449   2.345   7.082   3.076  0.0631  0.3124 -0.1330
   37MOL   C13830450   2.491   7.042   3.089 -0.0170  0.8380  0.2698
   37MOL   C13930451   2.548   6.988   2.964  0.0875 -0.1766 -0.0468
   37MOL   C14030452   2.691   6.959   2.965 -0.4549  0.0719 -0.1358
   37MOL   C14130453   2.737   6.901   2.829  0.1625 -0.2946  0.0412
   37MOL   H14230454   1.514   7.053   3.611  1.8162 -1.3686  2.1548
   37MOL   H14330455   1.415   6.960   3.693 -1.3687  2.0316 -1.1763
   37MOL   H14430456   1.557   6.752   3.550  0.3271 -0.8213  0.3472
   37MOL   H14530457   1.748   6.978   3.625  1.9378 -1.4095  0.5572
   37MOL   H14630458   1.802   6.812   3.585  1.1109  0.3499 -2.0599
   37MOL   H14730459   1.705   6.880   3.348  1.4369 -1.2056  0.4062
   37MOL   H14830460   1.695   7.038   3.425 -0.0327  0.0716 -1.7954
   37MOL   H14930461   1.938   7.064   3.434  0.0028  0.7224 -1.4671
   37MOL   H15030462   1.947   6.890   3.420 -1.3462  0.1283  3.6018
   37MOL   H15130463   1.877   6.913   3.178 -0.1371  1.6649 -2.1952
   37MOL   H15230464   1.855   7.077   3.188 -1.4414 -1.0877  0.4598
   37MOL   H15330465   2.097   7.109   3.251 -0.0407  0.9812 -1.0115
   37MOL   H15430466   2.126   6.945   3.250  2.8229  0.5097 -2.9175
   37MOL   H15530467   2.049   6.938   2.991  1.5810  0.4374 -1.8480
   37MOL   H15630468   2.096   7.110   3.002  1.6495 -0.2036  0.7253
   37MOL   H15730469   2.274   6.888   3.106  0.3239  1.0179  0.4019
   37MOL   H15830470   2.255   6.935   2.938 -1.0609 -0.9490  0.4883
   37MOL   H15930471   2.318   7.147   3.159  0.5968 -0.2433  0.4854
   37MOL   H16030472   2.344   7.158   2.998  0.7365 -0.5199 -0.9735
   37MOL   H16130473   2.540   7.125   3.141  1.5935 -0.9636  1.7217
   37MOL   H16230474   2.492   6.973   3.173 -0.4383 -1.4699 -1.5562
   37MOL   H16330475   2.493   6.897   2.938 -0.4050 -0.2662  1.2475
   37MOL   H16430476   2.514   7.057   2.887 -0.5049 -0.5357 -0.1096
   37MOL   H16530477   2.743   7.054   2.970 -0.2533  0.0117 -0.9654
   37MOL   H16630478   2.733   6.905   3.050  0.3537  0.6257 -0.1787
   37MOL   H16730479   2.684   6.811   2.801  2.0142 -1.5780  0.5722
   37MOL   H16830480   2.718   6.977   2.753  0.8398  0.4944  0.6463
   37MOL   H16930481   2.844   6.880   2.821  0.4707  1.6528 -1.4387
   37MOL   C17030482   1.613   6.770   3.748  0.1736  0.3175  0.9778
   37MOL   C17130483   1.503   6.683   3.804  0.2969  0.6359 -0.1798
   37MOL   C17230484   1.484   6.550   3.731  0.0455  0.4714  0.1844
   37MOL   C17330485   1.608   6.455   3.726  1.0523 -0.3159 -0.5778
   37MOL   C17430486   1.564   6.320   3.671  0.7185 -0.1705 -0.2748
   37MOL   C17530487   1.671   6.224   3.619 -0.6569 -0.8791  0.1325
   37MOL   C17630488   1.629   6.099   3.540  0.5469 -0.2562  0.3816
   37MOL   C17730489   1.747   6.015   3.499  0.2856  0.1352 -1.1220
   37MOL   C17830490   1.723   5.871   3.457  0.1026  0.7193 -0.5463
   37MOL   C17930491   1.858   5.802   3.415  0.3026  0.3174 -0.2628
   37MOL   C18030492   1.833   5.653   3.377  0.6096 -0.0617  0.5351
   37MOL   C18130493   1.958   5.572   3.331  0.9596 -0.4350 -0.3305
   37MOL   C18230494   1.928   5.424   3.303 -0.1447 -0.2042 -0.0261
   37MOL   C18330495   2.049   5.325   3.309 -0.2353  0.1474  0.4582
   37MOL   H18430496   1.637   6.850   3.818  2.9207  1.2247 -0.9305
   37MOL   H18530497   1.713   6.725   3.755  0.0577 -0.1890 -0.4380
   37MOL   H18630498   1.411   6.737   3.782 -0.3185 -0.3318  0.0153
   37MOL   H18730499   1.403   6.494   3.779  0.6222 -1.6817 -1.2582
   37MOL   H18830500   1.453   6.563   3.628 -2.2153  0.0015  0.7621
   37MOL   H18930501   1.687   6.499   3.665  1.2164  0.0548 -0.0937
   37MOL   H19030502   1.649   6.451   3.826 -1.0894 -1.4342  0.2967
   37MOL   H19130503   1.501   6.277   3.749  0.3843  0.8922  0.0477
   37MOL   H19230504   1.497   6.339   3.587  1.6650  2.2341 -0.5146
   37MOL   H19330505   1.735   6.195   3.703 -0.2372 -1.2767 -0.3232
   37MOL   H19430506   1.732   6.282   3.550 -2.0469  2.9251  1.9630
   37MOL   H19530507   1.572   6.124   3.450 -0.2266  0.1973  0.9913
   37MOL   H19630508   1.562   6.052   3.611  0.0170 -0.9036 -0.5290
   37MOL   H19730509   1.817   6.018   3.582 -2.2730  0.3138  1.1206
   37MOL   H19830510   1.796   6.063   3.415  0.4554 -2.0628 -2.3333
   37MOL   H19930511   1.661   5.875   3.367  0.1114  0.6657 -0.5551
   37MOL   H20030512   1.674   5.813   3.534 -2.3992 -0.5499 -3.0186
   37MOL   H20130513   1.935   5.811   3.492 -0.5583  1.7701  0.4576
   37MOL   H20230514   1.897   5.852   3.326  0.4238 -0.6821 -0.7720
   37MOL   H20330515   1.771   5.635   3.289  0.3131 -0.9094  0.9149
   37MOL   H20430516   1.790   5.608   3.466  0.2504  1.6772  1.2760
   37MOL   H20530517   1.996   5.615   3.238 -0.6294  1.5721 -0.0732
   37MOL   H20630518   2.033   5.581   3.410 -0.9381  2.6420  1.1778
   37MOL   H20730519   1.856   5.391   3.378 -0.3733  1.1528  0.3666
   37MOL   H20830520   1.877   5.393   3.211  0.4008 -0.6734 -0.1698
   37MOL   H20930521   2.081   5.293   3.210 -0.3010  0.0583  0.4656
   37MOL   H21030522   2.023   5.236   3.366  1.9746 -0.4886  0.5311
   37MOL   H21130523   2.133   5.367   3.364 -0.0353 -1.0033  1.0551
   37MOL   C21230524   1.505   6.666   3.960  0.0476 -0.0163 -0.5352
   37MOL   C21330525   1.471   6.784   4.057 -0.4386  0.3484  0.5348
   37MOL   C21430526   1.313   6.815   4.035 -0.0432 -0.1126 -0.0246
   37MOL   C21530527   1.259   6.921   4.130 -0.2513 -0.5568 -0.5850
   37MOL   C21630528   1.136   6.978   4.072 -0.6126 -0.2974 -0.5204
   37MOL   C21730529   1.163   7.088   3.962 -0.0515 -0.2005  0.1294
   37MOL   C21830530   1.039   7.129   3.889  0.0547  0.0966 -0.5240
   37MOL   C21930531   1.070   7.212   3.767 -0.0589  0.5707 -0.0527
   37MOL   C22030532   0.942   7.247   3.687 -0.0280  0.7691 -0.2661
   37MOL   C22130533   0.967   7.274   3.541 -0.0855  0.1880  1.0208
   37MOL   C22230534   0.859   7.352   3.462  0.0359 -0.2704  1.0219
   37MOL   C22330535   0.734   7.272   3.448  0.0652  0.2526  1.1066
   37MOL   C22430536   0.755   7.157   3.360  0.0779 -0.8446  0.1363
   37MOL   C22530537   0.631   7.089   3.325 -0.0533  0.7345  0.1126
   37MOL   H22630538   1.609   6.640   3.978  0.6257  2.0935 -0.8191
   37MOL   H22730539   1.438   6.586   3.993 -2.2596  2.6226  1.4215
   37MOL   H22830540   1.529   6.876   4.059 -1.9537  1.3123  1.1001
   37MOL   H22930541   1.290   6.853   3.936  2.5745 -0.1752 -0.7180
   37MOL   H23030542   1.246   6.729   4.040 -1.2845  0.9600  2.4177
   37MOL   H23130543   1.332   7.003   4.126 -1.2370  0.3158 -0.9235
   37MOL   H23230544   1.241   6.891   4.233  3.9094  1.5353  0.8844
   37MOL   H23330545   1.077   7.011   4.157  1.2878 -0.0649  0.7527
   37MOL   H23430546   1.074   6.899   4.029 -0.8498 -0.7237  0.5930
   37MOL   H23530547   1.245   7.068   3.894 -0.6294  0.1558 -0.6883
   37MOL   H23630548   1.202   7.169   4.023 -0.7634 -1.8378  2.8438
   37MOL   H23730549   1.015   7.029   3.854  0.4834  0.1988 -1.1243
   37MOL   H23830550   0.963   7.179   3.949  0.7421  0.0858  0.3811
   37MOL   H23930551   1.126   7.301   3.795  3.7662 -0.7063 -3.1186
   37MOL   H24030552   1.142   7.162   3.702  1.7624  2.5811  0.3719
   37MOL   H24130553   0.894   7.335   3.730 -0.9774  0.0757  0.1102
   37MOL   H24230554   0.869   7.167   3.695  1.0698 -0.1944  0.2580
   37MOL   H24330555   1.061   7.330   3.533  0.0314  0.1859  2.1894
   37MOL   H24430556   0.993   7.182   3.490  1.5328  0.4165  1.3739
   37MOL   H24530557   0.894   7.386   3.364  1.3723 -0.3441  1.4641
   37MOL   H24630558   0.822   7.438   3.517 -1.4182  0.4813 -1.0542
   37MOL   H24730559   0.650   7.327   3.407  1.9298  1.7141 -0.9080
   37MOL   H24830560   0.699   7.240   3.546  1.8373 -3.2248  0.6853
   37MOL   H24930561   0.818   7.084   3.411  2.1969  1.1482  0.4593
   37MOL   H25030562   0.795   7.199   3.268  1.1824 -0.2803  0.8627
   37MOL   H25130563   0.560   7.085   3.408  1.2625 -0.4678  1.1924
   37MOL   H25230564   0.585   7.162   3.258 -0.2368  2.2987  1.9023
   37MOL   H25330565   0.647   6.986   3.292 -3.5714  0.4235 -0.8891
   37MOL   C25430566   1.500   6.747   4.205  0.0308 -0.8953 -0.1178
   37MOL   C25530567   1.647   6.699   4.252  0.1038  0.0658  0.7536
   37MOL   C25630568   1.759   6.797   4.204 -0.2699 -0.2110  0.0168
   37MOL   C25730569   1.894   6.777   4.283  0.2266 -0.1240 -0.8907
   37MOL   C25830570   1.987   6.893   4.268 -0.2845 -0.3672 -0.2935
   37MOL   C25930571   2.120   6.880   4.350  0.1591  0.5886  0.2526
   37MOL   C26030572   2.192   7.022   4.362  0.6470  0.1175  0.0104
   37MOL   C26130573   2.269   7.071   4.236  0.4739  0.2098  0.1723
   37MOL   C26230574   2.334   7.213   4.255  0.4636 -0.6105 -0.3633
   37MOL   C26330575   2.424   7.249   4.131  1.1576  0.2891  0.2098
   37MOL   C26430576   2.541   7.350   4.162  0.1366 -0.2373 -0.7801
   37MOL   C26530577   2.601   7.402   4.029  0.3871 -0.4921 -0.0439
   37MOL   C26630578   2.709   7.514   4.041  0.1133 -0.4172 -0.0619
   37MOL   C26730579   2.767   7.555   3.904  0.0207 -0.4276 -0.4155
   37MOL   H26830580   1.428   6.668   4.228  0.0794 -0.6319  0.9691
   37MOL   H26930581   1.478   6.822   4.281 -0.4320 -0.8957 -0.2524
   37MOL   H27030582   1.671   6.606   4.202 -1.5537 -0.4704  0.9179
   37MOL   H27130583   1.725   6.899   4.222  2.9651  1.0925 -0.8368
   37MOL   H27230584   1.779   6.796   4.097 -1.2078  0.7916 -0.1791
   37MOL   H27330585   1.946   6.685   4.255 -1.4593 -1.0137 -1.1646
   37MOL   H27430586   1.877   6.773   4.390  0.4397  1.4567 -0.7931
   37MOL   H27530587   1.938   6.984   4.300  0.1706  0.2706 -1.3655
   37MOL   H27630588   2.015   6.913   4.164 -1.0874 -0.3726 -0.5157
   37MOL   H27730589   2.191   6.821   4.293 -1.8462 -0.4559 -1.2408
   37MOL   H27830590   2.112   6.830   4.446  1.7219 -3.0269 -1.4187
   37MOL   H27930591   2.121   7.103   4.380 -0.9491 -1.0983 -0.6337
   37MOL   H28030592   2.257   7.020   4.449 -1.6006 -0.3584  1.7222
   37MOL   H28130593   2.201   7.062   4.150  1.1644 -1.2558 -0.2284
   37MOL   H28230594   2.348   6.998   4.219  1.4425  1.5514 -1.3008
   37MOL   H28330595   2.245   7.275   4.269  1.3114  0.7039 -0.6957
   37MOL   H28430596   2.398   7.213   4.343  1.8444  0.7231 -1.3568
   37MOL   H28530597   2.357   7.282   4.051  0.0547  0.2968  1.1321
   37MOL   H28630598   2.466   7.158   4.087  0.3475 -0.9696  1.9901
   37MOL   H28730599   2.622   7.311   4.223 -0.3043 -1.1533 -0.7677
   37MOL   H28830600   2.505   7.441   4.210 -1.7855 -2.3560  1.9549
   37MOL   H28930601   2.644   7.318   3.974 -0.3236  0.7384 -2.5520
   37MOL   H29030602   2.518   7.436   3.968  0.5276 -1.1044 -0.5934
   37MOL   H29130603   2.657   7.599   4.086  0.0893 -1.0895  1.2164
   37MOL   H29230604   2.787   7.489   4.113  2.3998  3.1125 -1.2302
   37MOL   H29330605   2.848   7.628   3.911  0.1895 -0.7906  1.5559
   37MOL   H29430606   2.687   7.593   3.841  0.4892  1.5843  0.1684
   37MOL   H29530607   2.817   7.476   3.847  1.2961 -0.0843  0.2086
   37MOL   C29630608   1.645   6.670   4.406 -0.6562 -0.2464 -0.4964
   37MOL   C29730609   1.727   6.535   4.434  0.6794 -0.0387 -0.3692
   37MOL   C29830610   1.783   6.536   4.580 -0.1332  0.2650  0.2605
   37MOL   C29930611   1.677   6.547   4.688  0.2501 -0.0023  0.2345
   37MOL   C30030612   1.740   6.527   4.829 -0.5929 -0.4329  0.1695
   37MOL   C30130613   1.650   6.559   4.945 -0.0282  0.6609 -0.1943
   37MOL   C30230614   1.706   6.586   5.089 -0.2281  0.1069  0.3290
   37MOL   C30330615   1.596   6.630   5.192  0.7125 -0.1236  0.6918
   37MOL   C30430616   1.619   6.567   5.330  0.1764 -0.2225 -0.2027
   37MOL   C30530617   1.745   6.605   5.411 -0.3835 -0.1596 -0.1239
   37MOL   C30630618   1.754   6.557   5.555  0.1628  1.1151  0.5162
   37MOL   C30730619   1.890   6.585   5.625  0.4436 -0.1120  0.0902
   37MOL   C30830620   1.980   6.460   5.644 -1.1382 -0.6165 -0.1043
   37MOL   C30930621   1.896   6.338   5.716  0.0999 -0.0247  0.2434
   37MOL   H31030622   1.545   6.648   4.442 -0.9702 -1.2570 -1.9237
   37MOL   H31130623   1.681   6.760   4.455  1.1243 -0.8255 -0.6814
   37MOL   H31230624   1.815   6.536   4.370  1.8273 -1.4919  1.1371
   37MOL   H31330625   1.841   6.627   4.588 -0.6454  0.5668  0.5791
   37MOL   H31430626   1.848   6.452   4.605  0.1561  0.4074 -0.0218
   37MOL   H31530627   1.615   6.458   4.673  0.4509 -0.0817 -0.1444
   37MOL   H31630628   1.617   6.636   4.671 -0.6087 -0.5047  0.5837
   37MOL   H31730629   1.788   6.431   4.848 -1.5054 -0.8808  0.2884
   37MOL   H31830630   1.815   6.603   4.846 -1.7283  0.5680  0.8442
   37MOL   H31930631   1.566   6.490   4.952 -1.3345  2.3367  0.9654
   37MOL   H32030632   1.627   6.663   4.924  1.2163  1.0695  0.3937
   37MOL   H32130633   1.750   6.493   5.125 -0.2525  1.1553  3.2298
   37MOL   H32230634   1.795   6.648   5.094  1.0017 -1.6505  0.4854
   37MOL   H32330635   1.495   6.607   5.158  0.5216 -0.7096  1.6465
   37MOL   H32430636   1.593   6.738   5.211  0.8606 -0.1679  0.9623
   37MOL   H32530637   1.530   6.586   5.391  0.4416 -0.1227  0.1521
   37MOL   H32630638   1.617   6.459   5.312 -0.8115 -0.0246 -1.3406
   37MOL   H32730639   1.761   6.713   5.407 -2.6181  0.1798 -0.3623
   37MOL   H32830640   1.832   6.558   5.364 -0.4581 -1.0384  0.6130
   37MOL   H32930641   1.712   6.457   5.562  1.3100  0.5958  0.0409
   37MOL   H33030642   1.680   6.613   5.612 -0.6163  0.7207 -0.0995
   37MOL   H33130643   1.884   6.648   5.714  0.0633 -0.0549  0.0281
   37MOL   H33230644   1.943   6.651   5.556  1.7765 -0.0438  1.1566
   37MOL   H33330645   2.072   6.479   5.700 -0.6394  1.3800 -1.5662
   37MOL   H33430646   2.007   6.424   5.545  2.1128 -2.3600  1.3160
   37MOL   H33530647   1.966   6.255   5.725  0.6709  0.5233  0.9725
   37MOL   H33630648   1.862   6.359   5.817 -0.9880 -0.3022 -0.0629
   37MOL   H33730649   1.813   6.302   5.655  0.5086 -1.4235  0.4943
   37MOL   C33830650   1.645   6.402   4.399  0.5979 -0.1026  0.0227
   37MOL   C33930651   1.724   6.266   4.391  0.2841  0.6848  0.6812
   37MOL   C34030652   1.746   6.201   4.526 -0.8458 -0.0522 -0.5558
   37MOL   C34130653   1.896   6.183   4.557 -0.5587  0.8039  0.2808
   37MOL   C34230654   1.915   6.151   4.702 -0.6797 -0.6768  0.5605
   37MOL   C34330655   2.061   6.129   4.746  0.2706 -0.7264 -0.5026
   37MOL   C34430656   2.085   6.126   4.899  0.0063  0.4818 -0.3854
   37MOL   C34530657   2.056   6.247   4.974 -0.0248 -0.1065 -0.5705
   37MOL   C34630658   2.090   6.236   5.124  0.2946 -0.3571 -0.5571
   37MOL   C34730659   1.999   6.135   5.192 -0.3165 -0.3147 -0.3801
   37MOL   C34830660   1.989   6.153   5.344  0.0744  0.6127 -0.8809
   37MOL   C34930661   1.864   6.090   5.391  0.6302 -0.0886  0.2749
   37MOL   C35030662   1.747   6.187   5.380 -0.1722  0.6868  0.2490
   37MOL   C35130663   1.612   6.121   5.404 -0.4865 -1.2303  0.1274
   37MOL   H35230664   1.551   6.390   4.454 -0.0389  2.8304 -0.3418
   37MOL   H35330665   1.605   6.421   4.300  2.3940  0.3478 -0.6188
   37MOL   H35430666   1.820   6.294   4.348  0.1798 -0.1908 -0.1323
   37MOL   H35530667   1.718   6.269   4.606  0.7873  1.6756 -1.4049
   37MOL   H35630668   1.684   6.113   4.542 -1.7677  0.8510  0.8835
   37MOL   H35730669   1.942   6.277   4.527 -1.5098 -0.3680 -5.3919
   37MOL   H35830670   1.940   6.101   4.500  0.6497  0.9402  0.9964
   37MOL   H35930671   1.869   6.052   4.707 -0.1776 -0.8340  2.7624
   37MOL   H36030672   1.856   6.205   4.776 -1.2602  1.9722 -1.7816
   37MOL   H36130673   2.102   6.045   4.692  0.8317 -0.6358 -0.2200
   37MOL   H36230674   2.112   6.212   4.696 -0.4213  0.1959  0.2839
   37MOL   H36330675   2.026   6.042   4.936 -0.0362 -0.5093 -2.6329
   37MOL   H36430676   2.187   6.091   4.913  0.1069  1.3848  1.3000
   37MOL   H36530677   2.127   6.322   4.940 -0.6416  0.1536 -1.2905
   37MOL   H36630678   1.965   6.299   4.945 -0.2725 -0.5484 -0.5927
   37MOL   H36730679   2.192   6.210   5.151  0.4450 -0.0727 -0.8583
   37MOL   H36830680   2.071   6.335   5.166  4.0363 -0.8904  2.6880
   37MOL   H36930681   1.900   6.144   5.146  0.1930  0.7083 -1.2974
   37MOL   H37030682   2.024   6.032   5.169 -0.4068  0.2203 -3.0543
   37MOL   H37130683   2.001   6.259   5.367 -1.9242  0.0671  3.1292
   37MOL   H37230684   2.073   6.107   5.395  0.1790  0.3685 -1.2673
   37MOL   H37330685   1.880   6.068   5.497  1.4228  2.3852  0.6893
   37MOL   H37430686   1.840   5.995   5.342 -0.5361  0.4653 -0.2613
   37MOL   H37530687   1.756   6.270   5.449 -2.3332  0.7494  0.5056
   37MOL   H37630688   1.748   6.236   5.282 -2.5723  0.8514  0.2588
   37MOL   H37730689   1.621   6.092   5.509 -0.5338  2.1483  1.1214
   37MOL   H37830690   1.530   6.188   5.379  1.1403  0.1339 -1.6545
   37MOL   H37930691   1.606   6.042   5.330 -0.4778 -0.3365 -0.8389
   37MOL   C38030692   1.658   6.174   4.284  0.0484  0.4539  0.5803
   37MOL   C38130693   1.681   6.211   4.135 -0.0259  0.1598  0.0060
   37MOL   C38230694   1.827   6.169   4.097 -0.0662 -0.4362  0.3338
   37MOL   C38330695   1.868   6.020   4.122  0.1109  0.5004 -0.4999
   37MOL   C38430696   1.994   5.986   4.044 -0.1229  0.5499  1.3404
   37MOL   C38530697   1.964   5.942   3.902  0.4340  0.0493  0.5923
   37MOL   C38630698   2.081   5.885   3.827  0.1666  0.2359 -0.2863
   37MOL   C38730699   2.136   5.746   3.868  0.2885  0.1582  0.2588
   37MOL   C38830700   2.263   5.703   3.786 -0.1693  0.6045 -0.0204
   37MOL   C38930701   2.225   5.655   3.646 -0.2327 -0.2448 -0.4827
   37MOL   C39030702   2.342   5.605   3.556  0.9193 -0.7144 -0.8844
   37MOL   C39130703   2.411   5.730   3.488 -0.2451  0.0278  0.1774
   37MOL   C39230704   2.520   5.683   3.390  0.7527 -0.4252 -0.0514
   37MOL   C39330705   2.608   5.811   3.364  0.0703 -0.1551 -0.4295
   37MOL   H39430706   1.552   6.171   4.306  0.0149  2.5245  0.8170
   37MOL   H39530707   1.687   6.070   4.295 -1.3889 -0.0407 -0.2367
   37MOL   H39630708   1.667   6.319   4.130  0.6026  0.3059  1.3040
   37MOL   H39730709   1.903   6.239   4.132 -1.2569  0.0379  2.0313
   37MOL   H39830710   1.842   6.192   3.991  1.1768  0.6861  0.7454
   37MOL   H39930711   1.786   5.948   4.118  1.4175 -1.2220  2.4122
   37MOL   H40030712   1.891   6.006   4.227 -2.0601 -0.4207 -0.1214
   37MOL   H40130713   2.049   5.907   4.095 -0.4449 -1.4328 -1.2882
   37MOL   H40230714   2.069   6.066   4.047 -1.1577  1.5485  0.9529
   37MOL   H40330715   1.929   6.025   3.841 -1.3561  0.7031  2.4597
   37MOL   H40430716   1.880   5.873   3.891 -0.6787  1.7816 -2.5128
   37MOL   H40530717   2.047   5.873   3.724  0.0220 -0.6175 -0.1423
   37MOL   H40630718   2.163   5.957   3.818  0.1870 -0.1379 -3.3008
   37MOL   H40730719   2.163   5.760   3.972  1.5371 -0.3208  0.0119
   37MOL   H40830720   2.056   5.672   3.874 -0.3478  0.7850 -0.2752
   37MOL   H40930721   2.326   5.792   3.781 -1.4836  1.4987 -1.1695
   37MOL   H41030722   2.321   5.625   3.835 -1.8736 -2.0802 -2.0899
   37MOL   H41130723   2.178   5.733   3.586  0.1710  1.1145  0.9162
   37MOL   H41230724   2.147   5.579   3.655 -1.0870  0.6437 -0.2321
   37MOL   H41330725   2.411   5.541   3.612 -0.9900 -0.2402  2.1314
   37MOL   H41430726   2.300   5.542   3.478 -0.6402 -0.0493 -0.5964
   37MOL   H41530727   2.455   5.791   3.568  1.9610  0.5687 -1.4080
   37MOL   H41630728   2.342   5.797   3.439  2.1127  1.6986 -0.9607
   37MOL   H41730729   2.587   5.602   3.419 -0.6412 -0.9864  1.7149
   37MOL   H41830730   2.484   5.642   3.296 -1.2277 -0.7777  0.8248
   37MOL   H41930731   2.671   5.778   3.282 -2.3294 -1.6364 -1.7175
   37MOL   H42030732   2.671   5.841   3.448  0.9061  0.6602 -1.3331
   37MOL   H42130733   2.546   5.894   3.331 -2.0618 -1.2827  0.6373
   37MOL   C42230734   1.579   6.140   4.040  0.2683 -0.1617  0.6464
   37MOL   C42330735   1.427   6.149   4.070  0.2997  0.3983  1.3572
   37MOL   C42430736   1.377   6.300   4.070  0.6562  0.5945  0.2657
   37MOL   C42530737   1.235   6.315   4.124  0.0814 -0.1674  0.1248
   37MOL   C42630738   1.183   6.457   4.091  0.3369  0.0131  1.0981
   37MOL   C42730739   1.041   6.474   4.147 -0.5153  0.9984  0.4515
   37MOL   C42830740   0.980   6.606   4.109  0.0297 -0.1879  0.3254
   37MOL   C42930741   0.834   6.608   4.155 -0.8086  0.6704 -0.0094
   37MOL   C43030742   0.773   6.746   4.131  0.6611 -0.2605 -0.8075
   37MOL   C43130743   0.630   6.757   4.175  0.5125  0.1718 -0.3590
   37MOL   C43230744   0.582   6.903   4.185 -0.1065 -0.2704  0.6509
   37MOL   C43330745   0.452   6.918   4.261  0.1832 -0.3303  0.1658
   37MOL   C43430746   0.320   6.898   4.179 -0.5656 -0.2977  0.0922
   37MOL   C43530747   0.279   6.758   4.139  0.4512 -0.0671 -0.1642
   37MOL   H43630748   1.609   6.037   4.022 -1.2486 -0.7437  1.3624
   37MOL   H43730749   1.593   6.179   3.939 -0.4412 -2.0872 -0.2136
   37MOL   H43830750   1.409   6.110   4.171 -0.3573 -0.5886  0.8692
   37MOL   H43930751   1.394   6.340   3.970 -1.0835  0.2522 -0.1836
   37MOL   H44030752   1.443   6.350   4.141  1.3818  0.4322 -0.2947
   37MOL   H44130753   1.172   6.233   4.089 -0.3191  0.1038  0.2126
   37MOL   H44230754   1.255   6.309   4.231 -0.1415 -2.8653  0.0575
   37MOL   H44330755   1.187   6.475   3.984  0.7802  0.6796  1.2263
   37MOL   H44430756   1.263   6.523   4.124 -1.2061  2.0935  0.7953
   37MOL   H44530757   1.056   6.467   4.255 -0.4821 -2.0951  0.2960
   37MOL   H44630758   0.984   6.388   4.111  3.9505 -1.4667 -1.1080
   37MOL   H44730759   1.029   6.691   4.157  1.4523 -1.6976  1.6092
   37MOL   H44830760   0.983   6.624   4.002  1.5771 -0.3873  0.3257
   37MOL   H44930761   0.774   6.528   4.110  0.1943  0.4844 -1.0528
   37MOL   H45030762   0.842   6.575   4.258  2.2705 -1.6321 -0.9206
   37MOL   H45130763   0.833   6.821   4.182 -2.2712  1.3799  0.3767
   37MOL   H45230764   0.778   6.774   4.026 -0.9648  1.3280 -0.4895
   37MOL   H45330765   0.565   6.700   4.109  0.0447 -1.3500  1.3788
   37MOL   H45430766   0.623   6.705   4.271  2.3832  0.1519 -0.2042
   37MOL   H45530767   0.662   6.960   4.232 -1.0798  1.3401  0.3888
   37MOL   H45630768   0.566   6.944   4.086  0.6808  0.8270  0.9759
   37MOL   H45730769   0.442   7.023   4.287 -1.8289 -0.6538  0.8055
   37MOL   H45830770   0.446   6.860   4.353  1.1394 -1.5339 -0.5048
   37MOL   H45930771   0.233   6.946   4.224 -3.7163 -2.2379 -3.5912
   37MOL   H46030772   0.324   6.959   4.088  0.5860 -0.6324 -0.0808
   37MOL   H46130773   0.278   6.695   4.228  3.2071 -1.9652 -1.4202
   37MOL   H46230774   0.357   6.724   4.072  0.6089  0.1124 -0.0731
   37MOL   H46330775   0.185   6.742   4.085 -0.2118 -0.4163  1.0720
   37MOL   C46430776   1.348   6.064   3.958 -0.1020  0.3716 -0.7371
   37MOL   C46530777   1.365   5.912   3.963  0.2063 -0.8035  0.1040
   37MOL   C46630778   1.359   5.845   4.094 -0.2504 -0.9381 -0.5464
   37MOL   C46730779   1.225   5.861   4.165 -0.5999 -1.1795  0.2780
   37MOL   C46830780   1.210   5.762   4.272 -0.0309  0.1367 -0.3842
   37MOL   C46930781   1.096   5.791   4.369 -0.0541  0.5142 -0.3386
   37MOL   C47030782   1.058   5.668   4.455  0.3987  0.5087 -0.2199
   37MOL   C47130783   0.960   5.704   4.574 -0.0408 -0.5304  0.3527
   37MOL   C47230784   1.013   5.821   4.662  0.4630  1.0316  0.0289
   37MOL   C47330785   0.930   5.855   4.788  0.6848 -0.0529  1.0575
   37MOL   C47430786   0.990   5.976   4.858  0.3219 -0.1698 -0.2417
   37MOL   C47530787   0.897   6.035   4.961 -0.3586  0.0579 -0.5157
   37MOL   C47630788   0.975   6.128   5.053  0.2909  0.0008  0.1274
   37MOL   C47730789   0.867   6.204   5.130  0.4485  0.0383 -0.2720
   37MOL   H47830790   1.396   6.098   3.866 -0.8907  0.0933 -1.2590
   37MOL   H47930791   1.243   6.095   3.957  0.1871  1.4018 -0.1786
   37MOL   H48030792   1.469   5.922   3.932  0.2079  3.0424  1.0592
   37MOL   H48130793   1.373   5.740   4.069 -1.8278 -0.9910 -1.2917
   37MOL   H48230794   1.441   5.871   4.161  0.0438 -0.9117 -0.9146
   37MOL   H48330795   1.142   5.870   4.095 -2.6336 -0.5080  2.7053
   37MOL   H48430796   1.223   5.958   4.214 -0.7281  0.2511 -2.4221
   37MOL   H48530797   1.301   5.759   4.332  0.6932  2.1078 -1.3468
   37MOL   H48630798   1.195   5.666   4.221 -1.2165 -0.5417  1.2215
   37MOL   H48730799   1.126   5.873   4.434  1.4537 -0.4483  0.2099
   37MOL   H48830800   1.014   5.820   4.304  0.6370  0.2829 -1.3221
   37MOL   H48930801   1.020   5.583   4.399  0.7961 -2.7699  4.2005
   37MOL   H49030802   1.152   5.629   4.495  1.3602  2.8858 -0.0758
   37MOL   H49130803   0.873   5.734   4.516  0.3361  0.2904  0.1979
   37MOL   H49230804   0.930   5.615   4.628 -2.4787  1.0763  1.7156
   37MOL   H49330805   1.116   5.796   4.686  0.3030  1.2327  0.9440
   37MOL   H49430806   1.023   5.913   4.603  0.9958  0.4335 -0.8297
   37MOL   H49530807   0.828   5.883   4.759  0.0944 -1.3434  1.8557
   37MOL   H49630808   0.919   5.764   4.847  2.9533 -0.5086  0.8035
   37MOL   H49730809   1.082   5.938   4.903 -0.4983 -1.3015  0.5087
   37MOL   H49830810   1.027   6.051   4.789  1.6461 -0.4300  0.1675
   37MOL   H49930811   0.844   5.960   5.020  1.1609 -0.2949  0.4174
   37MOL   H50030812   0.819   6.085   4.902 -0.4588 -0.0437 -0.4706
   37MOL   H50130813   1.026   6.072   5.131  0.4948  1.4178  1.0251
   37MOL   H50230814   1.048   6.196   5.010  1.0639 -0.8847  0.0466
   37MOL   H50330815   0.920   6.272   5.197  1.8159  2.3955 -3.5988
   37MOL   H50430816   0.803   6.272   5.074 -1.7350  0.1335  2.2154
   37MOL   H50530817   0.807   6.142   5.196  0.4480 -0.3706 -0.6498
   37MOL   C50630818   1.275   5.849   3.859  0.5399 -0.2001 -0.2065
   37MOL   C50730819   1.341   5.838   3.718  0.2489 -0.5372 -0.8756
   37MOL   C50830820   1.421   5.702   3.693 -0.3491 -0.1682  0.2482
   37MOL   C50930821   1.544   5.685   3.777  0.1911  0.1426  0.1033
   37MOL   C51030822   1.594   5.542   3.742  0.1362  0.8424  0.0896
   37MOL   C51130823   1.732   5.512   3.803 -0.0149  0.0233 -0.1879
   37MOL   C51230824   1.728   5.523   3.962  0.1584  0.4122 -0.3049
   37MOL   C51330825   1.860   5.549   4.024 -0.4363 -0.4796  0.0992
   37MOL   C51430826   1.852   5.546   4.177  0.5822 -0.2051 -0.0027
   37MOL   C51530827   1.967   5.614   4.246  0.2307 -0.1195  0.1814
   37MOL   C51630828   1.926   5.663   4.388 -0.4422 -0.1307 -0.7516
   37MOL   C51730829   2.023   5.753   4.459  0.2153 -0.5560  0.1656
   37MOL   C51830830   2.152   5.683   4.494 -0.6462 -0.0014  0.0643
   37MOL   C51930831   2.259   5.764   4.550  0.4347  0.3819 -0.7189
   37MOL   H52030832   1.173   5.886   3.854  1.1125  1.4905  0.2783
   37MOL   H52130833   1.253   5.746   3.887 -4.3567  0.8199  0.2092
   37MOL   H52230834   1.406   5.921   3.691 -2.0276  1.4950 -0.3048
   37MOL   H52330835   1.356   5.619   3.722  0.3997 -1.0674 -0.5993
   37MOL   H52430836   1.443   5.687   3.587 -1.0878 -0.3602  0.1139
   37MOL   H52530837   1.621   5.761   3.762 -0.9148  1.1931 -0.2817
   37MOL   H52630838   1.520   5.704   3.881  2.4534 -0.3332  0.7462
   37MOL   H52730839   1.611   5.536   3.634 -1.1867 -0.1762 -0.0776
   37MOL   H52830840   1.515   5.471   3.766 -0.8068  1.2663 -1.6446
   37MOL   H52930841   1.826   5.557   3.771  1.3052 -1.0210  2.1343
   37MOL   H53030842   1.760   5.408   3.784  1.6955  0.7384 -1.6410
   37MOL   H53130843   1.676   5.611   3.997 -1.3856  0.1987 -1.9851
   37MOL   H53230844   1.688   5.431   4.005 -1.2307  0.5442 -1.3162
   37MOL   H53330845   1.883   5.652   3.998 -1.1511  0.1832  2.0120
   37MOL   H53430846   1.941   5.488   3.984  0.7569  2.0752 -1.4900
   37MOL   H53530847   1.818   5.452   4.221  1.3448  0.8127  2.8528
   37MOL   H53630848   1.766   5.610   4.195  0.6149 -0.0912 -0.2444
   37MOL   H53730849   2.049   5.542   4.255  0.9709  0.4234 -1.9919
   37MOL   H53830850   2.006   5.690   4.179  0.5104 -0.9582 -0.6222
   37MOL   H53930851   1.825   5.706   4.387 -0.4242  0.1304  2.5792
   37MOL   H54030852   1.906   5.572   4.444 -1.6310  0.9218  0.5991
   37MOL   H54130853   1.987   5.794   4.553  0.9129  0.2597  0.0814
   37MOL   H54230854   2.050   5.846   4.410 -1.3819 -1.1246 -1.8787
   37MOL   H54330855   2.194   5.670   4.395  0.4426 -1.8593  0.7477
   37MOL   H54430856   2.142   5.591   4.552  1.0120  0.4109  1.0512
   37MOL   H54530857   2.352   5.708   4.545  1.2998  1.5151  1.7041
   37MOL   H54630858   2.266   5.860   4.499  0.5365  1.1486  0.6935
   37MOL   H54730859   2.234   5.790   4.653 -1.1473 -2.4120 -0.3692
   37MOL   C54830860   1.228   5.834   3.615 -0.4243  0.6365 -0.1783
   37MOL   C54930861   1.164   5.971   3.577 -0.4166 -0.0108 -0.7747
   37MOL   C55030862   1.250   6.043   3.472  0.0758 -1.0916  0.0437
   37MOL   C55130863   1.259   6.198   3.484 -0.3012  0.6178  0.0158
   37MOL   C55230864   1.300   6.280   3.362  0.6335 -0.2516 -0.8417
   37MOL   C55330865   1.287   6.434   3.385 -0.3027 -0.4458  0.3494
   37MOL   C55430866   1.372   6.517   3.283 -0.1774  0.1466  0.1603
   37MOL   C55530867   1.342   6.496   3.135  0.1525  0.6666 -0.6462
   37MOL   C55630868   1.427   6.591   3.050  0.2221 -0.1610 -0.2544
   37MOL   C55730869   1.447   6.554   2.903 -0.0459  0.0994  0.8865
   37MOL   C55830870   1.583   6.608   2.847  0.0760  0.5643  0.4241
   37MOL   C55930871   1.587   6.628   2.697 -0.0459  0.2418 -0.3951
   37MOL   C56030872   1.720   6.685   2.649 -0.1681 -0.4432  0.9058
   37MOL   C56130873   1.729   6.837   2.663 -0.4286  0.1583 -0.2303
   37MOL   H56230874   1.265   5.795   3.520  0.3427 -1.5604  0.9860
   37MOL   H56330875   1.152   5.765   3.652  2.0270 -0.6311  2.6165
   37MOL   H56430876   1.171   6.031   3.668 -0.5966 -1.5180  0.2565
   37MOL   H56530877   1.354   6.013   3.460  0.2352 -0.6050  0.1659
   37MOL   H56630878   1.213   6.022   3.372  0.1554 -0.0912 -0.2029
   37MOL   H56730879   1.331   6.219   3.563 -2.3159 -0.3310  2.1573
   37MOL   H56830880   1.163   6.231   3.523 -0.8144 -1.8863  0.9390
   37MOL   H56930881   1.404   6.248   3.349  0.7975 -0.5725  1.1443
   37MOL   H57030882   1.236   6.252   3.278 -0.4326  0.9433 -0.4314
   37MOL   H57130883   1.313   6.454   3.489  0.2637 -1.4007  0.4080
   37MOL   H57230884   1.185   6.471   3.391  0.9003  2.4419  5.2240
   37MOL   H57330885   1.371   6.623   3.311  0.0914  0.6378 -1.6291
   37MOL   H57430886   1.477   6.491   3.287  0.5367  3.0274  1.5635
   37MOL   H57530887   1.236   6.519   3.119 -0.0415 -0.4851 -1.0429
   37MOL   H57630888   1.363   6.392   3.111 -0.4126  0.2554  0.6091
   37MOL   H57730889   1.527   6.600   3.094  0.0782 -1.0338  0.2644
   37MOL   H57830890   1.393   6.694   3.056 -0.0479 -0.1936 -1.2000
   37MOL   H57930891   1.450   6.446   2.885  1.9013  0.6243 -2.2806
   37MOL   H58030892   1.369   6.598   2.842  0.4244  1.1498  1.0332
   37MOL   H58130893   1.667   6.544   2.875 -0.7428 -1.4683 -1.6188
   37MOL   H58230894   1.603   6.709   2.885 -0.9522  1.1366 -0.5226
   37MOL   H58330895   1.567   6.536   2.643 -1.8960  0.7294 -0.6039
   37MOL   H58430896   1.501   6.690   2.670  0.1474  0.6870  0.0074
   37MOL   H58530897   1.797   6.620   2.691 -0.8842 -2.3614 -0.6650
   37MOL   H58630898   1.717   6.662   2.542 -3.5576 -1.8102  1.2451
   37MOL   H58730899   1.806   6.890   2.606  1.5264  0.2586  2.4335
   37MOL   H58830900   1.641   6.897   2.640 -0.2941 -0.5554 -2.8015
   37MOL   H58930901   1.756   6.860   2.766 -0.1307 -1.4888  0.0638
   37MOL   C59030902   1.020   5.964   3.531 -0.5826  0.0572 -0.6657
   37MOL   C59130903   0.918   5.922   3.639 -0.4855 -0.4217  0.7021
   37MOL   C59230904   0.872   6.048   3.714  0.2291  0.5610  0.2855
   37MOL   C59330905   0.830   6.007   3.857  0.2450 -0.0258 -0.3642
   37MOL   C59430906   0.803   6.127   3.946 -0.3379 -0.4236  0.5671
   37MOL   C59530907   0.735   6.113   4.084  0.3240 -0.2204 -0.2882
   37MOL   C59630908   0.836   6.053   4.180 -0.1890  0.2547  0.4850
   37MOL   C59730909   0.787   6.067   4.321  0.2576  1.2501 -0.7168
   37MOL   C59830910   0.789   6.210   4.373 -0.7202  0.5525 -0.2369
   37MOL   C59930911   0.773   6.220   4.525  0.4856  0.9071 -0.3635
   37MOL   C60030912   0.760   6.368   4.560 -0.4881 -0.4045  0.0541
   37MOL   C60130913   0.783   6.392   4.710 -0.3993 -0.3510 -0.4306
   37MOL   C60230914   0.782   6.540   4.759 -0.4798  0.3383  0.8144
   37MOL   C60330915   0.824   6.565   4.901  0.5873 -1.2889  0.4252
   37MOL   H60430916   1.022   5.897   3.445 -1.7576 -2.2959  1.0655
   37MOL   H60530917   0.997   6.063   3.494  2.2143  1.9789  2.4649
   37MOL   H60630918   0.964   5.855   3.713 -0.1181 -0.7913  0.1425
   37MOL   H60730919   0.781   6.085   3.665  0.9000  2.1956  0.2361
   37MOL   H60830920   0.951   6.122   3.708  1.2719 -0.4217  1.7149
   37MOL   H60930921   0.908   5.952   3.910 -0.4719 -2.4640 -1.7840
   37MOL   H61030922   0.750   5.933   3.855  0.8357 -0.7257  1.2081
   37MOL   H61130923   0.739   6.190   3.884  2.9823  1.3294 -1.2138
   37MOL   H61230924   0.898   6.179   3.962  0.2526 -1.4633  0.5236
   37MOL   H61330925   0.637   6.065   4.076  0.3003 -0.0801 -0.8585
   37MOL   H61430926   0.717   6.218   4.106 -1.7644 -0.0679 -2.5091
   37MOL   H61530927   0.834   5.945   4.165 -0.6741  0.2715  0.4301
   37MOL   H61630928   0.939   6.088   4.176  0.1774 -0.8347  0.3015
   37MOL   H61730929   0.686   6.025   4.328  0.9901 -0.6177 -1.0338
   37MOL   H61830930   0.861   6.009   4.377 -0.1400  2.2205  0.8429
   37MOL   H61930931   0.875   6.268   4.338  0.8630 -0.1606  2.2777
   37MOL   H62030932   0.700   6.254   4.328 -0.6105  0.5397 -0.4698
   37MOL   H62130933   0.680   6.167   4.541  1.1885 -0.0440  0.6490
   37MOL   H62230934   0.852   6.171   4.582 -1.3236 -2.0779 -0.3400
   37MOL   H62330935   0.668   6.419   4.533  0.0414  0.0309 -0.9282
   37MOL   H62430936   0.843   6.415   4.509 -0.4777  1.6482  1.8871
   37MOL   H62530937   0.875   6.340   4.737  0.6570  1.9422  0.5451
   37MOL   H62630938   0.692   6.353   4.755 -0.0812  1.3190  1.7942
   37MOL   H62730939   0.856   6.593   4.699 -2.1105 -0.0906 -1.6141
   37MOL   H62830940   0.687   6.585   4.731 -0.0637 -0.4328 -1.9565
   37MOL   H62930941   0.743   6.527   4.963 -0.4755 -0.0217 -0.1684
   37MOL   H63030942   0.839   6.668   4.930 -0.8273 -1.1932  0.8580
   37MOL   H63130943   0.918   6.518   4.930 -0.2232 -1.0992  3.5423
   37MOL   C63230944   0.804   5.836   3.577 -0.3364 -0.3276 -0.4394
   37MOL   C63330945   0.836   5.691   3.532  0.0915  0.6243  0.0243
   37MOL   C63430946   0.841   5.601   3.658 -0.5034  0.2552 -0.0226
   37MOL   C63530947   0.912   5.465   3.640  0.4708 -0.1260 -0.6394
   37MOL   C63630948   1.065   5.475   3.625 -0.3500  0.4957  0.5440
   37MOL   C63730949   1.142   5.347   3.586  0.3528  0.0713  0.1179
   37MOL   C63830950   1.268   5.376   3.502  0.6937  0.0926 -0.3075
   37MOL   C63930951   1.347   5.240   3.475 -0.0019  0.6687  0.2623
   37MOL   C64030952   1.492   5.257   3.420 -0.3437  0.1502 -0.3539
   37MOL   C64130953   1.562   5.121   3.405  0.1534 -0.3820 -0.2176
   37MOL   C64230954   1.673   5.114   3.295 -0.7587 -0.0462 -0.2842
   37MOL   C64330955   1.742   4.980   3.268 -0.3519  0.0156 -0.2757
   37MOL   C64430956   1.849   4.971   3.153  0.2078  0.2800  0.1301
   37MOL   C64530957   1.906   4.833   3.159  0.3701  0.0617 -0.3792
   37MOL   H64630958   0.766   5.880   3.485 -1.3142 -1.1893 -0.4602
   37MOL   H64730959   0.724   5.833   3.651 -0.9167 -2.4554 -1.1367
   37MOL   H64830960   0.937   5.692   3.491  0.0013 -1.4791 -0.3054
   37MOL   H64930961   0.894   5.641   3.744  1.1094 -1.2724 -0.2564
   37MOL   H65030962   0.742   5.599   3.704 -1.0903  0.5438 -1.2547
   37MOL   H65130963   0.868   5.412   3.556 -2.9704  0.3105  0.8077
   37MOL   H65230964   0.891   5.401   3.726 -0.5228  0.7935 -0.1842
   37MOL   H65330965   1.113   5.524   3.710 -1.9464  2.4221  0.3883
   37MOL   H65430966   1.089   5.540   3.540 -2.7830 -0.2378 -0.7735
   37MOL   H65530967   1.158   5.293   3.679 -3.5562 -0.0839  0.7742
   37MOL   H65630968   1.073   5.284   3.529  0.3090 -0.3073  0.5827
   37MOL   H65730969   1.239   5.433   3.414  1.2136  1.4038  0.3545
   37MOL   H65830970   1.339   5.432   3.564  2.4704 -2.3905 -0.0050
   37MOL   H65930971   1.276   5.185   3.413 -0.1461 -1.3656  2.1898
   37MOL   H66030972   1.348   5.196   3.575  1.6444 -2.0816 -0.9045
   37MOL   H66130973   1.562   5.317   3.479 -0.3236 -1.3806  1.2306
   37MOL   H66230974   1.495   5.304   3.322  2.0260 -0.9227 -0.8293
   37MOL   H66330975   1.598   5.070   3.494  1.4377  0.4620 -0.2403
   37MOL   H66430976   1.486   5.059   3.357  1.9217 -1.5902 -1.5362
   37MOL   H66530977   1.631   5.144   3.199  0.8457  0.0672 -0.9685
   37MOL   H66630978   1.741   5.198   3.309 -1.3288  0.0883  1.8404
   37MOL   H66730979   1.666   4.904   3.248  0.2755 -0.3613 -1.3005
   37MOL   H66830980   1.791   4.950   3.360  0.7232 -1.5599 -1.3349
   37MOL   H66930981   1.923   5.051   3.152  0.9233 -0.3900 -0.9515
   37MOL   H67030982   1.795   4.987   3.059  0.3243  0.0568  0.0264
   37MOL   H67130983   1.829   4.756   3.147 -1.4960  1.7424  0.6164
   37MOL   H67230984   1.975   4.826   3.075 -0.3006  1.0081 -1.0158
   37MOL   H67330985   1.957   4.820   3.254 -1.3175  0.3774  0.5910
   37MOL   C67430986   0.735   5.634   3.429  0.8404 -0.0624 -0.3490
   37MOL   C67530987   0.766   5.696   3.291 -0.7402 -0.5315  0.2770
   37MOL   C67630988   0.812   5.576   3.190 -0.4934 -0.4184 -0.6854
   37MOL   C67730989   0.919   5.479   3.233 -0.0118 -0.0762  0.1764
   37MOL   C67830990   0.955   5.389   3.114  0.0554  0.0612 -0.7312
   37MOL   C67930991   1.071   5.301   3.160  0.2382  0.4211 -0.0863
   37MOL   C68030992   1.150   5.245   3.039 -0.4177  0.1696  0.3576
   37MOL   C68130993   1.280   5.165   3.073 -0.3956  0.1115 -0.9416
   37MOL   C68230994   1.331   5.064   2.968  0.2406  0.5747  1.0761
   37MOL   C68330995   1.450   4.979   3.010 -0.6285 -0.8747  0.1142
   37MOL   C68430996   1.473   4.860   2.912 -0.3914 -0.1617  0.5665
   37MOL   C68530997   1.578   4.761   2.954 -1.0801 -0.1350 -0.2810
   37MOL   C68630998   1.597   4.649   2.856  0.1540 -0.1136 -0.3745
   37MOL   C68730999   1.706   4.547   2.884 -0.0942  0.6900  0.2530
   37MOL   H68831000   0.633   5.661   3.457  1.4318  1.9971 -0.0851
   37MOL   H68931001   0.735   5.525   3.420  3.1862 -0.0092 -1.3430
   37MOL   H69031002   0.858   5.755   3.287 -1.1507  0.0299 -0.9288
   37MOL   H69131003   0.729   5.510   3.163  0.1386 -2.4831  2.2652
   37MOL   H69231004   0.833   5.628   3.096 -0.5301 -1.4610 -1.2688
   37MOL   H69331005   1.001   5.537   3.274 -1.9803  2.5414  0.5567
   37MOL   H69431006   0.887   5.415   3.315  1.2499 -0.8813  0.0432
   37MOL   H69531007   0.869   5.338   3.071 -0.0994  1.1551 -1.7217
   37MOL   H69631008   0.981   5.461   3.036 -0.6203  1.2964  0.1690
   37MOL   H69731009   1.132   5.350   3.236 -0.7620 -0.7778  1.5133
   37MOL   H69831010   1.025   5.223   3.221 -0.1741  0.6400 -0.1099
   37MOL   H69931011   1.081   5.180   2.984 -0.4469 -1.5164  2.3460
   37MOL   H70031012   1.181   5.332   2.980  0.4092  0.6539  1.4804
   37MOL   H70131013   1.357   5.234   3.109  1.8330 -2.6558 -0.2425
   37MOL   H70231014   1.255   5.115   3.166 -1.3350  0.1490 -1.1756
   37MOL   H70331015   1.253   5.003   2.922  1.4121 -0.9005  0.9969
   37MOL   H70431016   1.368   5.115   2.880 -0.4142  0.5883  0.8043
   37MOL   H70531017   1.435   4.942   3.111  1.0764 -1.8371  0.0234
   37MOL   H70631018   1.537   5.043   3.016 -0.9492 -0.6181  2.7785
   37MOL   H70731019   1.490   4.894   2.810  0.4148 -1.7525  0.1532
   37MOL   H70831020   1.380   4.803   2.906  2.0600 -4.0510 -3.8709
   37MOL   H70931021   1.555   4.716   3.051 -0.2862 -0.2529 -0.1423
   37MOL   H71031022   1.674   4.811   2.964 -0.4241 -2.0053  3.8425
   37MOL   H71131023   1.497   4.604   2.856  0.4494 -0.7766 -0.3311
   37MOL   H71231024   1.612   4.683   2.753  1.9656 -1.9422 -0.7388
   37MOL   H71331025   1.730   4.554   2.990 -2.2076  0.3730  0.7743
   37MOL   H71431026   1.688   4.443   2.857  2.3841  0.5935 -1.2153
   37MOL   H71531027   1.801   4.581   2.841 -0.1896 -0.7677 -1.1517
   37MOL   C71631028   0.649   5.778   3.240 -0.4076  0.1489  0.6505
   37MOL   C71731029   0.660   5.895   3.136 -0.1858 -1.0962  0.3893
   37MOL   C71831030   0.760   6.005   3.187 -0.1092 -0.1214 -0.2961
   37MOL   C71931031   0.744   6.142   3.105 -0.3705  0.7099  1.0655
   37MOL   C72031032   0.829   6.253   3.168  0.8480  0.2214  0.4232
   37MOL   C72131033   0.813   6.390   3.092 -0.3244  0.6234 -0.2965
   37MOL   C72231034   0.887   6.516   3.158 -0.5703  0.0713  0.0042
   37MOL   C72331035   0.904   6.626   3.069 -0.6186 -0.6691 -0.3355
   37MOL   C72431036   0.964   6.747   3.144 -0.9310 -0.2589  0.2967
   37MOL   C72531037   0.995   6.863   3.050 -0.3041  0.6305  0.6570
   37MOL   C72631038   0.969   6.995   3.122  0.3145  0.0825 -0.3943
   37MOL   C72731039   0.987   7.107   3.025  0.7267  0.1954  0.1326
   37MOL   C72831040   0.889   7.106   2.910 -0.7815 -0.3853 -0.0203
   37MOL   C72931041   0.738   7.094   2.955 -0.1764  0.2026 -0.1593
   37MOL   H73031042   0.559   5.725   3.207  0.7779 -0.5136 -1.6235
   37MOL   H73131043   0.608   5.832   3.325  0.9402 -0.0099  1.4028
   37MOL   H73231044   0.565   5.947   3.130  0.6987  0.8503  2.4103
   37MOL   H73331045   0.860   5.970   3.164  0.3071 -0.1821  1.5202
   37MOL   H73431046   0.745   6.028   3.293  1.0417  1.7867 -0.5269
   37MOL   H73531047   0.769   6.125   3.000 -0.1850 -1.4579  1.4360
   37MOL   H73631048   0.636   6.156   3.100 -0.4133 -0.1595 -1.7118
   37MOL   H73731049   0.791   6.263   3.269  0.5041 -0.8523  0.4134
   37MOL   H73831050   0.934   6.227   3.161  0.5721 -0.6632 -0.6950
   37MOL   H73931051   0.860   6.375   2.995 -1.1321 -2.4058 -0.2779
   37MOL   H74031052   0.708   6.416   3.080 -0.1490  1.7659  0.5533
   37MOL   H74131053   0.832   6.541   3.249 -0.8876  1.4536 -0.5519
   37MOL   H74231054   0.984   6.487   3.199 -1.0726 -0.8178  0.5618
   37MOL   H74331055   0.815   6.662   3.017 -0.6338 -0.1759  0.0289
   37MOL   H74431056   0.984   6.608   2.997  3.6571  2.9347  3.1848
   37MOL   H74531057   0.888   6.774   3.218 -0.3064 -1.2835  1.3351
   37MOL   H74631058   1.055   6.721   3.199 -0.0619  1.1192 -0.4568
   37MOL   H74731059   1.095   6.855   3.008 -0.2118 -0.4684  1.0652
   37MOL   H74831060   0.927   6.847   2.966  1.7577 -0.1988 -0.8957
   37MOL   H74931061   0.868   6.991   3.164  0.4358 -1.0473 -0.2083
   37MOL   H75031062   1.040   6.996   3.204 -0.5167  1.1444  0.3312
   37MOL   H75131063   0.965   7.200   3.078  0.2876 -0.2955  0.8346
   37MOL   H75231064   1.083   7.110   2.974 -1.8001  0.9469 -4.8660
   37MOL   H75331065   0.905   7.025   2.838  2.0997 -2.0216  2.4002
   37MOL   H75431066   0.904   7.195   2.849 -2.9924 -1.5389 -2.3698
   37MOL   H75531067   0.665   7.107   2.875  0.4311  1.5755 -0.5132
   37MOL   H75631068   0.710   7.173   3.025 -2.0055  0.1751 -0.8366
   37MOL   H75731069   0.726   6.990   2.986  0.6383  0.4710  1.0777
   37MOL   C75831070   0.701   5.850   2.996 -0.5346  0.4356 -0.0672
   37MOL   C75931071   0.603   5.754   2.923  0.5827 -0.3352 -0.2230
   37MOL   C76031072   0.460   5.811   2.895  0.6811  0.5020 -0.2212
   37MOL   C76131073   0.458   5.928   2.795  0.4643  0.0759 -0.1757
   37MOL   C76231074   0.336   6.011   2.811 -0.0571  0.3596  0.0377
   37MOL   C76331075   0.355   6.157   2.762  0.9217  0.6603 -0.2900
   37MOL   C76431076   0.455   6.242   2.846 -0.2738 -0.4152  0.5141
   37MOL   C76531077   0.500   6.379   2.774 -0.0031 -0.2379 -0.2554
   37MOL   C76631078   0.388   6.487   2.778  0.2430  0.6237  0.0011
   37MOL   C76731079   0.396   6.604   2.675 -0.5353  0.4995  0.8528
   37MOL   C76831080   0.281   6.707   2.670 -0.0293  0.2963  0.5711
   37MOL   C76931081   0.286   6.811   2.784 -0.3800 -0.0671  0.2566
   37MOL   C77031082   0.171   6.906   2.776  0.7038  0.0335  0.6935
   37MOL   C77131083   0.203   7.016   2.666 -0.1349  0.0551 -0.6641
   37MOL   H77231084   0.709   5.939   2.933 -1.1963  1.1303  0.8232
   37MOL   H77331085   0.804   5.814   2.997 -0.2916  1.0853  2.8506
   37MOL   H77431086   0.582   5.669   2.988  0.1353 -0.3622 -0.4029
   37MOL   H77531087   0.395   5.730   2.863 -0.4395  0.2781  2.4848
   37MOL   H77631088   0.426   5.850   2.991 -0.0162 -1.1527  0.2261
   37MOL   H77731089   0.552   5.983   2.789  0.3032  0.5212  1.1444
   37MOL   H77831090   0.451   5.879   2.698 -1.2755  0.3528 -0.1999
   37MOL   H77931091   0.307   6.019   2.915 -1.4666  1.0085 -0.3878
   37MOL   H78031092   0.248   5.962   2.767 -0.7835 -0.8454  2.7507
   37MOL   H78131093   0.255   6.197   2.775 -0.7303 -3.3700  0.0711
   37MOL   H78231094   0.379   6.151   2.656  2.4343 -1.6975  0.1528
   37MOL   H78331095   0.409   6.278   2.938  0.9661  2.0441  0.2164
   37MOL   H78431096   0.546   6.185   2.870  0.1600  0.0557 -0.0082
   37MOL   H78531097   0.541   6.359   2.675  1.1615 -0.2308  0.2199
   37MOL   H78631098   0.584   6.425   2.825  1.5228 -0.6962 -2.3269
   37MOL   H78731099   0.392   6.534   2.876 -1.4228 -0.4626  0.6177
   37MOL   H78831100   0.288   6.443   2.777 -0.1181  1.3607  1.6915
   37MOL   H78931101   0.406   6.556   2.577 -1.3942 -0.7918  1.3879
   37MOL   H79031102   0.495   6.650   2.682  0.3478 -1.0686 -0.8052
   37MOL   H79131103   0.284   6.762   2.576 -1.2446  1.1025  0.9837
   37MOL   H79231104   0.188   6.652   2.659 -1.2703  2.0293  2.0426
   37MOL   H79331105   0.278   6.764   2.882 -0.0197  1.3445  0.9824
   37MOL   H79431106   0.376   6.872   2.778 -0.7373  0.3758 -0.7176
   37MOL   H79531107   0.080   6.851   2.753  1.3572  0.0502 -2.0610
   37MOL   H79631108   0.158   6.949   2.876  2.5997 -1.0867  1.4367
   37MOL   H79731109   0.203   6.979   2.564 -1.6389 -3.0693  0.4125
   37MOL   H79831110   0.147   7.110   2.674  1.1295  0.6453  2.3868
   37MOL   H79931111   0.305   7.049   2.688 -1.0567  2.2320  0.5770
   37MOL   C80031112   0.658   5.699   2.794  0.5129  0.2056  0.3386
   37MOL   C80131113   0.779   5.602   2.806  0.7210 -0.3704  0.3411
   37MOL   C80231114   0.812   5.499   2.693 -0.1318 -0.3691  0.0866
   37MOL   C80331115   0.921   5.398   2.741  0.6342 -0.3834  0.0609
   37MOL   C80431116   0.974   5.323   2.615  0.4436 -0.0228 -0.1228
   37MOL   C80531117   1.096   5.237   2.646  0.5067 -0.0668  0.6020
   37MOL   C80631118   1.149   5.150   2.531  0.2724  0.3295  0.0803
   37MOL   C80731119   1.220   5.030   2.580  0.2538  0.3947 -0.0071
   37MOL   C80831120   1.273   4.932   2.485  0.4727  0.1256  0.1936
   37MOL   C80931121   1.338   4.808   2.553 -0.3350  0.5001  0.9231
   37MOL   C81031122   1.370   4.688   2.458 -0.0111  0.4758  0.3805
   37MOL   C81131123   1.447   4.573   2.529  0.5474  0.0909  0.8151
   37MOL   C81231124   1.440   4.446   2.446 -0.5765  0.1631 -0.1014
   37MOL   C81331125   1.528   4.451   2.323  1.2391  0.2805 -0.4097
   37MOL   H81431126   0.668   5.777   2.718  0.6381  0.8607  1.0208
   37MOL   H81531127   0.584   5.639   2.741 -0.7690  1.3897  0.7525
   37MOL   H81631128   0.768   5.547   2.900 -1.2565  0.4537  0.6317
   37MOL   H81731129   0.847   5.551   2.604 -2.0213  0.6376 -0.0926
   37MOL   H81831130   0.724   5.441   2.667 -2.0581  1.5649  2.0839
   37MOL   H81931131   0.869   5.336   2.814 -0.4474  0.5716  0.1167
   37MOL   H82031132   0.999   5.458   2.788 -0.8521  0.8403  1.0535
   37MOL   H82131133   0.900   5.251   2.579 -0.0618  1.1050 -1.4116
   37MOL   H82231134   0.982   5.388   2.528  0.7102  1.8616  1.2726
   37MOL   H82331135   1.083   5.168   2.730 -0.2760 -1.8436 -0.9271
   37MOL   H82431136   1.176   5.301   2.681 -0.1819  0.3598  1.3907
   37MOL   H82531137   1.064   5.098   2.486  2.1090 -1.7504 -1.0867
   37MOL   H82631138   1.204   5.205   2.455  1.5640 -0.3139  0.5364
   37MOL   H82731139   1.302   5.071   2.639  0.2459  1.1396 -0.5057
   37MOL   H82831140   1.154   4.975   2.647  1.8268 -1.0799  0.3593
   37MOL   H82931141   1.188   4.902   2.424 -0.5618  1.1169  1.1234
   37MOL   H83031142   1.349   4.976   2.420  0.1361  2.3072  1.2225
   37MOL   H83131143   1.281   4.777   2.640 -0.8139  3.4361  1.6775
   37MOL   H83231144   1.432   4.838   2.600  0.6985 -0.3948 -0.5185
   37MOL   H83331145   1.280   4.656   2.405 -0.0259  1.2582 -0.0744
   37MOL   H83431146   1.427   4.733   2.377 -2.3004 -0.5942 -1.9099
   37MOL   H83531147   1.405   4.556   2.628  1.0563  1.4624  1.2759
   37MOL   H83631148   1.548   4.614   2.539  0.5195  0.2821  0.3231
   37MOL   H83731149   1.482   4.371   2.512 -1.7247 -0.1102  0.3423
   37MOL   H83831150   1.333   4.433   2.428 -0.6169  0.4605 -0.0782
   37MOL   H83931151   1.629   4.470   2.360  0.9509  0.6547  0.2026
   37MOL   H84031152   1.536   4.363   2.259 -0.0745  0.7875 -1.2738
   37MOL   H84131153   1.499   4.532   2.257  1.6327  0.2247 -0.6534
   37MOL   H84231154   0.869   5.661   2.825 -0.6345  1.8015  0.2977
   38MOL     C131155   1.169   4.373   0.897  1.1413  0.2977 -0.4717
   38MOL     C231156   1.079   4.412   1.020  0.2690 -0.2762 -0.3481
   38MOL     C331157   1.143   4.528   1.107 -0.4332 -0.2424  0.3113
   38MOL     C431158   1.242   4.479   1.208 -0.4500  0.2443 -0.3077
   38MOL     C531159   1.304   4.591   1.296  0.1720 -0.3508 -0.8067
   38MOL     C631160   1.406   4.549   1.403  0.0244  0.1841  0.2639
   38MOL     C731161   1.518   4.459   1.350 -1.2394  0.6327  0.2412
   38MOL     C831162   1.641   4.432   1.436 -0.0491  0.0471 -0.4525
   38MOL     C931163   1.742   4.333   1.369 -0.2779 -0.5414 -0.0784
   38MOL    C1031164   1.854   4.290   1.467 -0.1733 -0.3083 -0.2559
   38MOL    C1131165   1.955   4.200   1.402 -0.2904 -1.2860  0.5229
   38MOL    C1231166   2.050   4.119   1.495 -0.1953 -0.3474 -0.1592
   38MOL    C1331167   2.148   4.211   1.573 -0.3044 -0.5644  0.5029
   38MOL    C1431168   2.265   4.141   1.641 -0.0975 -0.5443 -0.2962
   38MOL    H1531169   1.135   4.276   0.861 -0.5399  0.5819  0.3059
   38MOL    H1631170   1.273   4.371   0.928  1.8290  0.1834 -2.7609
   38MOL    H1731171   1.086   4.320   1.078  0.2873  0.3777  0.6762
   38MOL    H1831172   1.192   4.592   1.033 -0.6271 -0.4728 -0.0170
   38MOL    H1931173   1.069   4.603   1.138 -1.1739 -1.8887  2.6468
   38MOL    H2031174   1.323   4.432   1.152 -1.6986 -1.6693 -0.5371
   38MOL    H2131175   1.217   4.395   1.273 -0.8747  1.0439  0.5736
   38MOL    H2231176   1.229   4.655   1.343  0.7998 -0.1560 -0.0577
   38MOL    H2331177   1.358   4.655   1.226  0.2096  1.8884  1.1809
   38MOL    H2431178   1.346   4.490   1.473 -0.4491  0.4069  0.0483
   38MOL    H2531179   1.445   4.643   1.442  0.4526 -0.3787  1.1925
   38MOL    H2631180   1.473   4.361   1.330  0.0618  0.2547 -0.8945
   38MOL    H2731181   1.543   4.505   1.254  0.4672 -1.3257 -0.3037
   38MOL    H2831182   1.600   4.383   1.525 -1.4403 -0.7149 -1.4849
   38MOL    H2931183   1.686   4.528   1.461  4.0780 -2.0046  0.3590
   38MOL    H3031184   1.688   4.244   1.337 -1.5621  0.4746 -0.7970
   38MOL    H3131185   1.791   4.375   1.281  1.0227 -0.3487  0.7280
   38MOL    H3231186   1.914   4.377   1.493 -1.6305  0.9030 -0.9467
   38MOL    H3331187   1.817   4.241   1.557 -0.5243  0.4035 -0.0181
   38MOL    H3431188   1.907   4.128   1.336  0.8536 -1.9761  0.4396
   38MOL    H3531189   2.014   4.254   1.327  0.1221 -2.2908  0.1048
   38MOL    H3631190   2.104   4.056   1.425  1.5575  1.4731 -0.4864
   38MOL    H3731191   2.000   4.048   1.561 -0.4485 -0.6090 -0.6313
   38MOL    H3831192   2.182   4.290   1.506 -2.7269  0.5738  0.5571
   38MOL    H3931193   2.091   4.268   1.647  3.7429  2.8341  1.2204
   38MOL    H4031194   2.310   4.225   1.693 -0.5487 -1.0204  0.8818
   38MOL    H4131195   2.236   4.055   1.701 -2.1847  0.4162  0.0882
   38MOL    H4231196   2.333   4.108   1.562  0.2399 -0.3488 -0.0888
   38MOL    H4331197   1.165   4.438   0.810  1.6754  0.7905 -0.1352
   38MOL    C4431198   0.937   4.446   0.981 -0.2511 -0.3612 -0.3394
   38MOL    C4531199   0.849   4.339   0.914 -0.3221  0.1904  0.5152
   38MOL    C4631200   0.723   4.406   0.865 -0.2813  0.3466  0.7605
   38MOL    C4731201   0.629   4.467   0.980  0.3670  0.0874 -0.2679
   38MOL    C4831202   0.490   4.526   0.928  0.0651  0.1940 -0.3381
   38MOL    C4931203   0.441   4.626   1.035 -0.1290 -0.4764  0.0530
   38MOL    C5031204   0.311   4.697   0.993  0.3104 -0.2349 -0.0843
   38MOL    C5131205   0.255   4.789   1.098 -0.0020 -0.3855  0.9415
   38MOL    C5231206   0.122   4.859   1.055 -0.1579 -0.0738  0.0556
   38MOL    C5331207   0.131   4.946   0.932  0.2004 -0.3157  0.0981
   38MOL    C5431208   0.201   5.090   0.968  0.3074 -0.3928 -0.0711
   38MOL    C5531209   0.195   5.188   0.857 -0.2865 -0.5760 -0.0179
   38MOL    C5631210   0.246   5.329   0.895 -0.4656 -0.4167 -0.3848
   38MOL    C5731211   0.265   5.420   0.765 -0.2421  0.0181  1.0598
   38MOL    H5831212   0.892   4.474   1.076 -0.7534 -0.5199 -0.5268
   38MOL    H5931213   0.938   4.537   0.921  3.1700 -1.1878 -1.6964
   38MOL    H6031214   0.898   4.296   0.827  0.8883  3.5239 -0.5318
   38MOL    H6131215   0.734   4.488   0.794 -1.6949 -1.0150 -1.0881
   38MOL    H6231216   0.673   4.332   0.802  0.6745  0.6239 -0.3406
   38MOL    H6331217   0.667   4.551   1.037 -1.2524  0.9925 -0.5066
   38MOL    H6431218   0.596   4.401   1.060 -2.2252  1.7479  0.0721
   38MOL    H6531219   0.425   4.445   0.895 -0.5846  1.6079 -2.5658
   38MOL    H6631220   0.513   4.571   0.832  0.0714 -1.0454 -0.9372
   38MOL    H6731221   0.418   4.569   1.125  2.1407 -1.0185  0.3223
   38MOL    H6831222   0.523   4.696   1.051  0.7298 -1.5014  0.2196
   38MOL    H6931223   0.326   4.742   0.895  2.0932  0.0728  0.3113
   38MOL    H7031224   0.235   4.626   0.960 -1.0020  0.8060  0.6374
   38MOL    H7131225   0.328   4.863   1.128  1.6407 -0.5672 -2.3790
   38MOL    H7231226   0.244   4.723   1.184 -1.5822 -0.1689  0.9363
   38MOL    H7331227   0.049   4.778   1.050 -0.3929  0.1255  0.3069
   38MOL    H7431228   0.093   4.929   1.133  2.6408 -0.2329  1.3374
   38MOL    H7531229   0.029   4.971   0.903  0.2669 -0.5009 -0.2969
   38MOL    H7631230   0.171   4.898   0.843  2.0299  0.1455  0.6492
   38MOL    H7731231   0.305   5.076   0.998  1.4058 -0.4858 -3.5949
   38MOL    H7831232   0.153   5.150   1.044  0.1977  1.5396 -1.6246
   38MOL    H7931233   0.247   5.137   0.776  2.1483  0.6799  0.6869
   38MOL    H8031234   0.097   5.206   0.813 -1.4338 -3.3178  1.3437
   38MOL    H8131235   0.346   5.320   0.938 -0.4042  2.0067  0.0687
   38MOL    H8231236   0.186   5.372   0.975  2.1449  0.5939  1.1338
   38MOL    H8331237   0.175   5.479   0.744  0.6006  0.7602 -0.5089
   38MOL    H8431238   0.288   5.364   0.675 -0.6237 -0.8745  1.5176
   38MOL    H8531239   0.346   5.493   0.776 -0.0589  0.0336 -0.3217
   38MOL    C8631240   0.825   4.222   1.007  0.5691  0.2880 -0.1756
   38MOL    C8731241   0.760   4.094   0.936 -0.4130 -1.4051 -0.0257
   38MOL    C8831242   0.601   4.092   0.957  0.3416 -0.4149  0.3041
   38MOL    C8931243   0.535   3.987   0.862  0.0872  0.3211 -0.7747
   38MOL    C9031244   0.524   4.035   0.718 -0.2735  0.5241  0.1557
   38MOL    C9131245   0.452   4.164   0.698  0.0861  0.1385 -0.4908
   38MOL    C9231246   0.444   4.189   0.546  0.6231 -0.6558 -0.0049
   38MOL    C9331247   0.406   4.333   0.509 -0.1943  0.3490 -0.3411
   38MOL    C9431248   0.263   4.376   0.537  0.1728 -0.2629 -0.3955
   38MOL    C9531249   0.163   4.307   0.442 -0.8824  0.6479  0.0260
   38MOL    C9631250   0.028   4.387   0.431 -0.2712  0.0367  0.5073
   38MOL    C9731251   7.608   4.297   0.375 -0.2034 -1.1537 -0.5677
   38MOL    C9831252   7.473   4.367   0.346  0.0564 -0.6626 -0.5525
   38MOL    C9931253   7.349   4.281   0.371 -0.2668  0.0569  0.4589
   38MOL   H10031254   0.920   4.189   1.048  0.1941  0.2477  0.6557
   38MOL   H10131255   0.772   4.262   1.093  1.7225 -1.4291  1.3734
   38MOL   H10231256   0.771   4.101   0.828  2.1346 -0.1093  0.2828
   38MOL   H10331257   0.583   4.068   1.062 -1.1610 -1.8880 -0.2749
   38MOL   H10431258   0.564   4.193   0.940 -0.1883 -0.3016  2.0099
   38MOL   H10531259   0.589   3.893   0.850 -3.7690 -1.8950 -1.6327
   38MOL   H10631260   0.438   3.954   0.900  0.1818 -0.9429 -1.5962
   38MOL   H10731261   0.470   3.960   0.661  0.1210  1.0797 -0.9627
   38MOL   H10831262   0.625   4.041   0.678 -1.6753  0.3334 -3.5837
   38MOL   H10931263   0.499   4.247   0.750  0.4294 -0.8007  0.7240
   38MOL   H11031264   0.348   4.156   0.729 -0.3833 -2.9481 -2.6347
   38MOL   H11131265   0.542   4.161   0.508 -0.6472 -1.5009 -2.7962
   38MOL   H11231266   0.375   4.111   0.513 -0.2399 -1.1609  2.9250
   38MOL   H11331267   0.425   4.339   0.402  1.8197 -1.0120 -0.0997
   38MOL   H11431268   0.478   4.406   0.546 -1.4021  0.3269  2.1580
   38MOL   H11531269   0.239   4.362   0.643  3.0595 -1.6083  0.1395
   38MOL   H11631270   0.255   4.484   0.522  1.3201 -0.1230 -0.0875
   38MOL   H11731271   0.137   4.214   0.491  1.7466 -0.2371 -0.1601
   38MOL   H11831272   0.209   4.292   0.344 -1.1533  0.8437 -0.1307
   38MOL   H11931273   0.009   4.414   0.535 -0.2831  0.6807  0.3375
   38MOL   H12031274   0.040   4.482   0.379  0.2618 -0.4277 -0.2266
   38MOL   H12131275   7.643   4.254   0.281  0.4345 -1.0462 -0.3802
   38MOL   H12231276   7.585   4.218   0.446  2.0571  0.0725  1.5793
   38MOL   H12331277   7.480   4.380   0.238  1.6498 -1.5788 -0.5804
   38MOL   H12431278   7.484   4.465   0.393  0.7238 -0.6001 -0.8232
   38MOL   H12531279   7.372   4.192   0.313 -1.6300  0.7223 -1.1307
   38MOL   H12631280   7.326   4.252   0.473 -2.9649  1.8566  0.4103
   38MOL   H12731281   7.255   4.329   0.344  0.5594  0.8660 -1.0190
   38MOL   C12831282   0.838   3.960   0.990  0.0843 -0.8849 -0.4065
   38MOL   C12931283   0.987   3.941   0.930 -0.1649 -0.5806  0.9851
   38MOL   C13031284   1.097   3.891   1.029 -0.7852 -0.6927 -0.9537
   38MOL   C13131285   1.115   3.985   1.150  0.0153 -0.3030 -0.4430
   38MOL   C13231286   1.232   3.938   1.233  0.3158 -0.3971  0.7547
   38MOL   C13331287   1.246   4.031   1.356  0.2778 -0.2945  0.2815
   38MOL   C13431288   1.379   4.013   1.425  0.5746  0.2085 -0.5713
   38MOL   C13531289   1.399   4.112   1.546 -0.3134 -0.5375  0.1956
   38MOL   C13631290   1.536   4.095   1.613 -0.4616  0.0291 -0.4037
   38MOL   C13731291   1.542   3.961   1.687 -0.0843  0.8027  0.0374
   38MOL   C13831292   1.658   3.952   1.783 -0.7339  0.0526 -0.8378
   38MOL   C13931293   1.690   3.821   1.832  0.1473  0.1640  0.5684
   38MOL   C14031294   1.791   3.829   1.946  0.1235 -0.2464 -0.5205
   38MOL   C14131295   1.739   3.893   2.072  0.0052 -0.5407 -1.1094
   38MOL   H14231296   0.842   3.948   1.099  0.2124 -1.6124 -0.4855
   38MOL   H14331297   0.784   3.871   0.956 -0.0762 -0.0107 -2.4899
   38MOL   H14431298   1.024   4.037   0.897  0.5429 -1.5781 -1.2024
   38MOL   H14531299   1.081   3.792   1.072  0.2620 -0.7515 -0.6999
   38MOL   H14631300   1.192   3.879   0.978 -0.1201 -2.3584  0.5981
   38MOL   H14731301   1.127   4.084   1.106  1.1814 -1.0341 -1.8090
   38MOL   H14831302   1.029   3.981   1.216 -0.1467  1.5877 -0.5185
   38MOL   H14931303   1.217   3.838   1.273 -1.1141 -0.9237 -1.0198
   38MOL   H15031304   1.325   3.936   1.177 -1.2590  1.0761 -2.0227
   38MOL   H15131305   1.247   4.133   1.316  1.2771 -0.4194 -0.0499
   38MOL   H15231306   1.168   4.027   1.431 -0.9679 -1.9943 -1.0759
   38MOL   H15331307   1.375   3.912   1.467 -2.3480 -0.1812 -1.6277
   38MOL   H15431308   1.467   4.006   1.362  0.0015  1.6496 -1.5583
   38MOL   H15531309   1.382   4.215   1.516 -0.0106  0.5846  3.6174
   38MOL   H15631310   1.314   4.095   1.612 -1.7085 -0.8298 -1.6242
   38MOL   H15731311   1.615   4.110   1.540  0.9479  0.9541  1.2558
   38MOL   H15831312   1.545   4.168   1.694  0.7897 -0.8377  0.2568
   38MOL   H15931313   1.544   3.878   1.617 -0.2704 -0.3156  1.3408
   38MOL   H16031314   1.452   3.939   1.745  1.1816 -3.0698  0.6535
   38MOL   H16131315   1.736   3.980   1.712 -2.0584  0.0518 -2.3261
   38MOL   H16231316   1.643   4.017   1.870 -1.4244  0.0122 -0.9252
   38MOL   H16331317   1.601   3.763   1.856  0.0953  0.1245  0.2801
   38MOL   H16431318   1.725   3.776   1.739  0.2488  0.4239  0.4807
   38MOL   H16531319   1.829   3.729   1.971  0.7305 -0.1744 -1.1290
   38MOL   H16631320   1.879   3.881   1.909  0.1840 -0.9517 -1.3740
   38MOL   H16731321   1.706   3.996   2.061  2.2230  0.6105  2.3415
   38MOL   H16831322   1.644   3.849   2.102  0.4073 -1.7080 -1.5233
   38MOL   H16931323   1.810   3.892   2.155 -3.1179 -0.1121  1.6665
   38MOL   C17031324   0.985   3.843   0.809  0.6322 -0.5950  0.3226
   38MOL   C17131325   0.898   3.890   0.686  1.1411 -0.0945  0.1226
   38MOL   C17231326   0.961   4.021   0.624  0.0374 -0.1260  0.5266
   38MOL   C17331327   0.873   4.087   0.514  0.5444 -1.0459  0.2541
   38MOL   C17431328   0.953   4.201   0.457 -0.0096  0.2031  0.4556
   38MOL   C17531329   0.859   4.290   0.372  0.0919  0.0421  0.3861
   38MOL   C17631330   0.831   4.229   0.233 -0.1264  0.6607  0.6091
   38MOL   C17731331   0.706   4.279   0.158 -0.2113 -0.0570  0.0823
   38MOL   C17831332   0.701   4.223   0.018 -0.6685 -0.5679  0.4124
   38MOL   C17931333   0.567   4.244   7.636  0.2612 -0.5982 -0.5714
   38MOL   C18031334   0.554   4.147   7.518 -0.6018  0.0868  0.5307
   38MOL   C18131335   0.457   4.197   7.410  0.3133 -0.3035  0.3551
   38MOL   C18231336   0.517   4.311   7.336 -0.4318  0.2711 -0.1001
   38MOL   C18331337   0.480   4.328   7.193 -0.8671 -0.6847 -0.5105
   38MOL   H18431338   0.939   3.749   0.838 -0.3010 -0.7821 -1.7015
   38MOL   H18531339   1.083   3.806   0.779 -0.1731 -1.5513 -1.2090
   38MOL   H18631340   0.794   3.913   0.711 -0.6548 -3.3905 -3.6382
   38MOL   H18731341   0.989   4.091   0.703 -1.2422 -0.2672  1.1216
   38MOL   H18831342   1.053   3.985   0.578 -1.3256 -0.7361 -1.7776
   38MOL   H18931343   0.864   4.011   0.437  1.5209  0.0830 -1.0099
   38MOL   H19031344   0.773   4.117   0.545  1.1509 -0.1348  1.3611
   38MOL   H19131345   0.994   4.266   0.534 -0.2078  2.0782 -0.9588
   38MOL   H19231346   1.032   4.171   0.388 -0.5219 -0.4548  0.1475
   38MOL   H19331347   0.909   4.387   0.372  1.3167 -0.5368 -2.3358
   38MOL   H19431348   0.765   4.309   0.425  0.2652 -1.6758  1.3268
   38MOL   H19531349   0.820   4.122   0.251 -3.0973  0.5690 -1.4357
   38MOL   H19631350   0.923   4.251   0.179 -2.0398  0.3696 -2.9041
   38MOL   H19731351   0.697   4.387   0.152 -0.9272 -0.1469 -0.4638
   38MOL   H19831352   0.614   4.251   0.208  1.2135 -1.4148  2.0546
   38MOL   H19931353   0.728   4.117   0.015  0.2040 -0.3070 -3.6290
   38MOL   H20031354   0.781   4.272   7.657 -1.8527 -0.9624 -1.6539
   38MOL   H20131355   0.575   4.351   7.614  0.1114 -0.7917 -1.5591
   38MOL   H20231356   0.484   4.229   0.009  1.1057 -1.2846  0.3230
   38MOL   H20331357   0.532   4.046   7.553 -1.6721  0.4980  1.0843
   38MOL   H20431358   0.652   4.132   7.474 -1.2768 -2.8296 -0.0396
   38MOL   H20531359   0.445   4.120   7.333  0.9018 -0.4205  0.3789
   38MOL   H20631360   0.360   4.216   7.454  0.2056  0.4032 -0.1836
   38MOL   H20731361   0.508   4.401   7.396  1.0111 -0.0657  0.6500
   38MOL   H20831362   0.626   4.300   7.339 -0.5926 -1.2126  0.9325
   38MOL   H20931363   0.493   4.244   7.125  0.4178 -0.5436 -0.4378
   38MOL   H21031364   0.525   4.421   7.160 -1.1057  0.5089  2.3940
   38MOL   H21131365   0.376   4.356   7.174 -0.6919 -0.8059 -1.6279
   38MOL   C21231366   0.902   3.773   0.578  0.0309  0.2925 -0.3017
   38MOL   C21331367   0.801   3.659   0.616  0.0408 -0.0026  0.1529
   38MOL   C21431368   0.660   3.685   0.584 -0.0337 -0.1183 -0.0227
   38MOL   C21531369   0.560   3.597   0.672 -0.3563  0.1937  0.7423
   38MOL   C21631370   0.414   3.613   0.648 -0.3911 -0.1450  0.1048
   38MOL   C21731371   0.376   3.561   0.511  0.0276 -0.4530 -0.1111
   38MOL   C21831372   0.225   3.577   0.490 -0.1287 -0.0311  0.2676
   38MOL   C21931373   0.170   3.520   0.358 -0.8051  0.2905  0.9411
   38MOL   C22031374   0.196   3.596   0.228  0.4187 -0.3201  0.2302
   38MOL   C22131375   0.143   3.534   0.101  0.2084  0.2911 -0.1356
   38MOL   C22231376   7.690   3.537   0.080 -0.0325  0.5615 -0.3976
   38MOL   C22331377   7.646   3.453   7.654 -0.3382  0.2627 -0.9681
   38MOL   C22431378   7.495   3.466   7.631 -0.9072  0.4244  0.3412
   38MOL   C22531379   7.409   3.347   0.002 -0.0871  0.1536  0.2253
   38MOL   H22631380   1.004   3.734   0.577 -0.4371 -0.9694 -0.2725
   38MOL   H22731381   0.864   3.805   0.482 -1.1048  1.0007  0.3708
   38MOL   H22831382   0.806   3.648   0.724 -1.9983  0.9886  0.3812
   38MOL   H22931383   0.639   3.792   0.595  0.2923  0.1269 -1.6563
   38MOL   H23031384   0.650   3.666   0.477  0.0999 -0.5862  0.0498
   38MOL   H23131385   0.582   3.613   0.777 -0.7188 -1.7020  1.1375
   38MOL   H23231386   0.581   3.490   0.665 -0.9531 -0.0017  1.9249
   38MOL   H23331387   0.382   3.717   0.652 -0.8054 -0.2413 -0.6325
   38MOL   H23431388   0.366   3.543   0.716 -0.1640  1.3154  1.8090
   38MOL   H23531389   0.416   3.460   0.499  0.5846 -0.4052  1.2126
   38MOL   H23631390   0.423   3.626   0.437  2.7208 -1.4048  0.6940
   38MOL   H23731391   0.171   3.534   0.575 -3.1199 -1.0042 -2.0362
   38MOL   H23831392   0.195   3.682   0.481  0.7222  0.0832 -1.3817
   38MOL   H23931393   0.220   3.424   0.346 -0.1824  0.7428 -0.2097
   38MOL   H24031394   0.062   3.504   0.362 -0.9624  1.5725  2.4110
   38MOL   H24131395   0.304   3.611   0.219  0.2287  1.3529  0.5212
   38MOL   H24231396   0.154   3.696   0.239 -1.3535 -0.8720 -1.2935
   38MOL   H24331397   0.190   3.589   0.019 -0.5355 -1.3218 -1.6630
   38MOL   H24431398   0.179   3.432   0.086  0.2622  0.1601  0.8377
   38MOL   H24531399   7.652   3.637   0.059 -1.7296  0.2040  0.8048
   38MOL   H24631400   7.644   3.513   0.176 -1.2632  1.5083 -0.7431
   38MOL   H24731401   7.676   3.348   7.657  2.9838  1.1804  1.8543
   38MOL   H24831402   7.686   3.498   7.563  0.8087 -4.2607 -2.8498
   38MOL   H24931403   7.468   3.456   7.526  0.4280 -1.9093  0.1799
   38MOL   H25031404   7.455   3.555   7.680 -0.3003  1.2233 -0.5926
   38MOL   H25131405   7.443   3.251   7.658  0.1636 -0.4355  1.8426
   38MOL   H25231406   7.421   3.334   0.110  0.9440 -1.2102 -0.0401
   38MOL   H25331407   7.304   3.354   7.669  0.5454  2.0904 -1.7435
   38MOL   C25431408   0.858   3.532   0.548 -0.4063  0.0859  0.1572
   38MOL   C25531409   0.966   3.451   0.624  0.7097 -0.6547  0.8358
   38MOL   C25631410   0.905   3.356   0.727  0.3886 -0.3529  0.1071
   38MOL   C25731411   1.000   3.304   0.836 -0.1974 -0.4797  0.2099
   38MOL   C25831412   1.040   3.407   0.942 -0.5227  0.6835 -0.0907
   38MOL   C25931413   1.062   3.360   1.083  0.0218 -0.0276 -0.4525
   38MOL   C26031414   1.105   3.478   1.166  0.3226 -0.2981 -0.1695
   38MOL   C26131415   1.140   3.435   1.307  0.0021 -0.0410  0.1238
   38MOL   C26231416   1.143   3.556   1.398  0.1209 -0.0723  0.1550
   38MOL   C26331417   1.197   3.532   1.547 -0.4798 -0.2835  0.3013
   38MOL   C26431418   1.354   3.539   1.547 -0.4082  0.1423  0.0343
   38MOL   C26531419   1.414   3.456   1.665 -0.0990 -0.2272 -1.1391
   38MOL   C26631420   1.562   3.462   1.674 -1.0177 -0.5710 -0.7220
   38MOL   C26731421   1.616   3.387   1.796  0.1377 -0.0161  0.2582
   38MOL   H26831422   0.887   3.562   0.447 -0.4083  0.8485  0.3838
   38MOL   H26931423   0.778   3.467   0.513  1.0530 -0.8770 -1.4879
   38MOL   H27031424   1.015   3.528   0.684  0.4914  0.5139 -0.4590
   38MOL   H27131425   0.879   3.259   0.687  1.3465 -0.6308  0.1426
   38MOL   H27231426   0.817   3.402   0.772  0.3559 -0.6976  0.4000
   38MOL   H27331427   1.082   3.242   0.800 -0.1273  0.4397 -1.2329
   38MOL   H27431428   0.943   3.223   0.883 -1.2978  1.1973  1.7946
   38MOL   H27531429   0.955   3.474   0.953 -2.5383 -1.7818 -0.1989
   38MOL   H27631430   1.122   3.472   0.910  0.9251 -0.3184  1.4653
   38MOL   H27731431   1.135   3.279   1.091 -0.9969 -1.0161 -1.0855
   38MOL   H27831432   0.979   3.307   1.130  0.4370  0.2223  0.5988
   38MOL   H27931433   1.200   3.525   1.141  1.6894 -1.9447  1.7562
   38MOL   H28031434   1.031   3.557   1.172  0.3893 -0.1874 -0.7529
   38MOL   H28131435   1.231   3.375   1.308  0.0293 -0.0708 -1.9621
   38MOL   H28231436   1.055   3.372   1.334  0.1010 -1.5320 -2.8026
   38MOL   H28331437   1.216   3.624   1.354  1.2111 -0.5025  1.2659
   38MOL   H28431438   1.050   3.611   1.403 -0.5552 -1.2329  0.5628
   38MOL   H28531439   1.172   3.429   1.573  1.5172 -0.9470 -0.3516
   38MOL   H28631440   1.149   3.609   1.608  0.1252 -0.9540  1.6174
   38MOL   H28731441   1.394   3.641   1.549 -0.4991  0.1724  0.3224
   38MOL   H28831442   1.393   3.482   1.463  2.4955 -1.5783  2.4691
   38MOL   H28931443   1.376   3.501   1.757  0.5429 -0.4249 -0.7693
   38MOL   H29031444   1.372   3.356   1.666  2.7116 -1.4641 -1.0513
   38MOL   H29131445   1.611   3.414   1.589 -0.9711 -1.8801  0.0239
   38MOL   H29231446   1.603   3.562   1.666  1.4358 -1.7056 -3.1219
   38MOL   H29331447   1.564   3.419   1.886 -1.0057 -2.5547  0.5450
   38MOL   H29431448   1.722   3.398   1.820  0.1689  0.0941  0.0688
   38MOL   H29531449   1.607   3.280   1.778 -0.3614 -0.0226  0.5410
   38MOL   C29631450   1.069   3.380   0.527 -0.0698 -0.4029 -0.0567
   38MOL   C29731451   1.214   3.395   0.591 -0.1632 -0.1320 -0.4285
   38MOL   C29831452   1.304   3.283   0.545  0.0052 -0.7684 -0.1978
   38MOL   C29931453   1.261   3.139   0.580 -0.4200 -0.3580  0.2839
   38MOL   C30031454   1.378   3.045   0.631 -1.0697  0.4171  0.0290
   38MOL   C30131455   1.479   3.018   0.519 -0.3841  0.1747 -0.0900
   38MOL   C30231456   1.584   2.916   0.563  0.9360 -0.1071 -0.1219
   38MOL   C30331457   1.691   2.870   0.463 -0.3944  0.2563  0.0246
   38MOL   C30431458   1.643   2.791   0.341 -0.2321 -0.1235  0.2305
   38MOL   C30531459   1.758   2.771   0.251 -0.4434  0.3961  0.1557
   38MOL   C30631460   1.722   2.692   0.123  0.1802 -0.1628 -0.2905
   38MOL   C30731461   1.807   2.728   7.693  0.6625  0.5421  0.0671
   38MOL   C30831462   1.782   2.638   7.571 -0.5075 -0.7410  0.7775
   38MOL   C30931463   1.835   2.701   7.443 -0.0423  0.5682  0.0648
   38MOL   H31031464   1.070   3.420   0.426  0.7359 -2.1406 -0.7504
   38MOL   H31131465   1.036   3.277   0.515 -2.0163  0.2192 -0.1961
   38MOL   H31231466   1.205   3.389   0.700  3.0613 -1.3047 -0.1808
   38MOL   H31331467   1.403   3.306   0.585 -0.3063 -0.2530  0.2840
   38MOL   H31431468   1.314   3.295   0.437  0.7608  0.5362 -0.0076
   38MOL   H31531469   1.222   3.071   0.504  0.1562  0.8882 -1.1567
   38MOL   H31631470   1.175   3.137   0.647 -0.8162 -1.2235 -0.2318
   38MOL   H31731471   1.418   3.082   0.725 -4.1241 -1.2822  2.1012
   38MOL   H31831472   1.331   2.949   0.654 -1.5549  1.2654  2.7742
   38MOL   H31931473   1.528   3.107   0.481  2.7853 -0.6397  1.8457
   38MOL   H32031474   1.432   2.974   0.432 -0.3725 -1.2648  0.6097
   38MOL   H32131475   1.627   2.957   0.655  1.3959 -0.7687 -0.0368
   38MOL   H32231476   1.530   2.827   0.596  0.4813  0.4977  0.7888
   38MOL   H32331477   1.756   2.808   0.526 -1.1877  0.0536  0.6456
   38MOL   H32431478   1.748   2.960   0.438 -1.3139  0.3009 -1.9526
   38MOL   H32531479   1.604   2.699   0.386 -0.4926  0.2574  0.7810
   38MOL   H32631480   1.561   2.838   0.287 -1.5414 -2.9103 -0.3091
   38MOL   H32731481   1.840   2.719   0.302  0.7835 -0.8846 -3.0334
   38MOL   H32831482   1.786   2.871   0.218 -0.1606  0.7195  1.3380
   38MOL   H32931483   1.620   2.714   0.093  0.9208  2.6603 -0.8284
   38MOL   H33031484   1.724   2.585   0.144  1.8081  0.2517  1.8363
   38MOL   H33131485   1.911   2.723   0.030  1.0686 -1.0996 -1.3548
   38MOL   H33231486   1.790   2.829   7.657  0.4369  0.5913  0.3167
   38MOL   H33331487   1.676   2.626   7.551 -1.0243  2.5446  1.3783
   38MOL   H33431488   1.819   2.537   7.590  3.3737  0.4619  0.0908
   38MOL   H33531489   1.817   2.646   7.350 -0.8101 -1.1157  1.1945
   38MOL   H33631490   1.797   2.803   7.434 -1.8904 -0.2071 -1.1574
   38MOL   H33731491   1.940   2.731   7.441 -0.1180  0.9462  1.2205
   38MOL   C33831492   1.270   3.536   0.559  0.6387 -0.4239  0.1590
   38MOL   C33931493   1.402   3.572   0.629  0.1979 -0.7052 -0.2108
   38MOL   C34031494   1.439   3.711   0.578  0.0698  0.4749 -0.7180
   38MOL   C34131495   1.508   3.723   0.443 -0.0232 -0.6842  0.0956
   38MOL   C34231496   1.579   3.862   0.406  0.0359  0.1794 -0.0779
   38MOL   C34331497   1.673   3.840   0.292  0.0788 -0.0981 -0.2631
   38MOL   C34431498   1.613   3.787   0.161 -0.6157 -0.1162  0.5687
   38MOL   C34531499   1.725   3.752   0.066  0.1365  0.0587 -0.1122
   38MOL   C34631500   1.676   3.677   7.633  0.2869  0.1304  0.9276
   38MOL   C34731501   1.784   3.678   7.520 -0.5551 -0.1938  0.5979
   38MOL   C34831502   1.805   3.538   7.445  0.4813 -0.5188  0.5370
   38MOL   C34931503   1.895   3.555   7.328 -0.2785  0.1842  0.1982
   38MOL   C35031504   1.904   3.444   7.209  0.6974  0.8981 -0.5734
   38MOL   C35131505   1.826   3.500   7.093 -0.1751 -0.3190  0.5246
   38MOL   H35231506   1.281   3.541   0.451 -0.6635 -0.7140  0.0005
   38MOL   H35331507   1.202   3.620   0.573 -0.1311 -0.6982 -1.8267
   38MOL   H35431508   1.473   3.495   0.600  0.1512 -2.1512  3.2849
   38MOL   H35531509   1.353   3.776   0.590  1.2256  1.5856  2.1553
   38MOL   H35631510   1.507   3.760   0.648 -1.6887  2.4802 -0.3575
   38MOL   H35731511   1.423   3.708   0.377  0.1557 -0.9483 -0.0737
   38MOL   H35831512   1.575   3.640   0.420  1.7230  1.5151 -3.1850
   38MOL   H35931513   1.633   3.907   0.489  0.6380  0.3903 -0.5742
   38MOL   H36031514   1.506   3.938   0.377  0.6089  0.0105 -2.0418
   38MOL   H36131515   1.732   3.929   0.266  1.3017 -0.7029  0.3957
   38MOL   H36231516   1.746   3.772   0.335  0.1425  0.2395  0.1649
   38MOL   H36331517   1.563   3.691   0.166 -0.1995 -0.3278  0.7637
   38MOL   H36431518   1.543   3.858   0.118 -0.4281 -0.7564 -0.8072
   38MOL   H36531519   1.761   3.852   0.042  0.4460  0.4997  2.0697
   38MOL   H36631520   1.805   3.699   0.117  1.9210  1.6140 -1.2227
   38MOL   H36731521   1.671   3.573   7.667  0.8244 -0.4218 -0.6236
   38MOL   H36831522   1.584   3.719   7.593 -0.2632 -0.6663  1.3508
   38MOL   H36931523   1.762   3.751   7.442  1.1520 -0.6140 -0.2899
   38MOL   H37031524   1.879   3.707   7.564  0.8535 -0.4109 -2.2317
   38MOL   H37131525   1.709   3.497   7.414 -0.7210  1.0366  2.1139
   38MOL   H37231526   1.846   3.460   7.510 -1.3453  0.1313  2.5369
   38MOL   H37331527   1.999   3.573   7.355 -1.0202  4.3368  0.5897
   38MOL   H37431528   1.879   3.652   7.282 -0.3280 -0.2549 -0.7178
   38MOL   H37531529   2.008   3.419   7.185  0.1428 -1.0404 -1.0584
   38MOL   H37631530   1.857   3.352   7.243  1.1148  0.8298 -0.1601
   38MOL   H37731531   1.814   3.416   7.024  0.3648  1.0038 -1.2333
   38MOL   H37831532   1.724   3.532   7.111 -0.5873 -0.9890 -0.5549
   38MOL   H37931533   1.881   3.578   7.039  1.4808 -1.0610  1.0931
   38MOL   C38031534   1.388   3.579   0.786 -0.3515  0.4134  0.4105
   38MOL   C38131535   1.518   3.580   0.873  0.5231  0.2558 -0.4561
   38MOL   C38231536   1.466   3.612   1.018 -0.4475  0.2691  0.7164
   38MOL   C38331537   1.585   3.638   1.113  0.5866  0.0951 -0.2768
   38MOL   C38431538   1.540   3.712   1.238 -0.0603  0.2814 -0.2361
   38MOL   C38531539   1.647   3.710   1.346 -1.6221 -0.3302 -0.5398
   38MOL   C38631540   1.763   3.804   1.301  0.4582  0.2033  0.5428
   38MOL   C38731541   1.875   3.805   1.405 -0.6936 -0.0080 -0.8083
   38MOL   C38831542   1.920   3.669   1.464  0.5935 -0.1381  0.8149
   38MOL   C38931543   2.050   3.673   1.543  0.1714  0.0572  0.3449
   38MOL   C39031544   2.048   3.748   1.669 -0.8848 -0.1332  0.4266
   38MOL   C39131545   2.195   3.748   1.725  0.4970 -0.0538  0.0114
   38MOL   C39231546   2.219   3.626   1.815 -0.2051  1.1852 -0.1408
   38MOL   C39331547   2.156   3.621   1.956 -0.4165 -0.2006  0.4010
   38MOL   H39431548   1.333   3.498   0.834  2.0127 -0.8098  1.1014
   38MOL   H39531549   1.330   3.671   0.791 -1.2484 -0.0654 -0.7614
   38MOL   H39631550   1.567   3.668   0.831  1.0978  0.4320  0.5568
   38MOL   H39731551   1.406   3.534   1.064  0.4332  0.0288  1.4710
   38MOL   H39831552   1.394   3.694   1.014  0.6448  1.1782 -0.6023
   38MOL   H39931553   1.662   3.702   1.071 -1.1385  1.7722 -0.9477
   38MOL   H40031554   1.630   3.543   1.143  2.1503  0.2293 -2.0852
   38MOL   H40131555   1.452   3.659   1.276  0.3119 -0.9095 -1.0121
   38MOL   H40231556   1.516   3.811   1.198 -0.9273  0.9090  1.7543
   38MOL   H40331557   1.677   3.607   1.360 -0.3752  0.1638  0.4443
   38MOL   H40431558   1.621   3.750   1.445  1.5265  2.0909 -0.6209
   38MOL   H40531559   1.806   3.792   1.202  1.2240  1.2197  0.7462
   38MOL   H40631560   1.724   3.906   1.298 -2.6021 -0.9572 -1.5648
   38MOL   H40731561   1.955   3.872   1.375 -2.6696  1.3838 -3.1934
   38MOL   H40831562   1.841   3.864   1.490  1.2859  0.4580 -0.3199
   38MOL   H40931563   1.835   3.641   1.526  0.7493 -1.8129  0.2932
   38MOL   H41031564   1.925   3.595   1.385  1.1679  0.8299 -0.0509
   38MOL   H41131565   2.124   3.712   1.472  0.1998  0.4808  0.6039
   38MOL   H41231566   2.084   3.576   1.577  2.4646  0.5707 -0.3590
   38MOL   H41331567   2.000   3.845   1.657 -1.8542 -0.6229  0.2315
   38MOL   H41431568   1.976   3.693   1.730 -0.1094  1.1570  2.5355
   38MOL   H41531569   2.196   3.838   1.786 -0.7116 -0.4953  0.6973
   38MOL   H41631570   2.273   3.755   1.648  0.4890  1.6008  0.1420
   38MOL   H41731571   2.192   3.533   1.763  0.7422  1.0523 -0.3944
   38MOL   H41831572   2.326   3.621   1.830 -0.4692 -0.6448  1.3851
   38MOL   H41931573   2.187   3.549   2.032  0.8369 -1.6710 -1.4529
   38MOL   H42031574   2.047   3.620   1.947 -0.3467  1.3278 -0.6784
   38MOL   H42131575   2.172   3.721   1.996 -1.1491  0.2985 -0.5158
   38MOL   C42231576   1.591   3.450   0.861 -0.2264  0.3278  0.3785
   38MOL   C42331577   1.738   3.470   0.816  0.2898 -0.2107 -0.0796
   38MOL   C42431578   1.829   3.350   0.873 -0.1366  0.6180  0.3873
   38MOL   C42531579   1.797   3.206   0.822 -0.3236 -0.2217  0.2675
   38MOL   C42631580   1.893   3.095   0.866  0.1132  0.0777  0.0513
   38MOL   C42731581   2.017   3.085   0.770 -0.0493  0.3315  0.0174
   38MOL   C42831582   1.987   3.028   0.625 -0.7215 -0.7960  0.7166
   38MOL   C42931583   2.111   2.975   0.550 -0.3309  0.1188 -0.6991
   38MOL   C43031584   2.080   2.918   0.409  0.3542 -0.3378 -0.3351
   38MOL   C43131585   2.204   2.876   0.326 -0.7353  0.3229 -0.2314
   38MOL   C43231586   2.177   2.833   0.186  0.7698  0.1243 -0.5028
   38MOL   C43331587   2.303   2.837   0.090  0.8987 -0.4045  0.0397
   38MOL   C43431588   2.273   2.761   7.655  0.4474 -0.3337 -0.6033
   38MOL   C43531589   2.392   2.735   7.565 -0.4071 -0.3074 -0.4212
   38MOL   H43631590   1.539   3.375   0.801  0.7557  0.7178 -0.9917
   38MOL   H43731591   1.587   3.402   0.958 -1.4556 -1.1400 -0.3728
   38MOL   H43831592   1.776   3.560   0.865 -1.8913  0.4615  0.4077
   38MOL   H43931593   1.819   3.343   0.981 -0.2979  2.2266  0.4833
   38MOL   H44031594   1.933   3.377   0.854 -0.6677  2.7678  0.3596
   38MOL   H44131595   1.699   3.176   0.861 -1.3223 -0.8455 -2.5466
   38MOL   H44231596   1.778   3.202   0.715  0.2180  1.5630  0.0945
   38MOL   H44331597   1.843   3.001   0.887 -0.0640 -0.2760 -1.7941
   38MOL   H44431598   1.941   3.119   0.960  1.1132  0.5684 -0.5712
   38MOL   H44531599   2.083   3.011   0.816 -0.3281 -0.5323 -0.9552
   38MOL   H44631600   2.069   3.180   0.776  0.9212 -0.2250  0.5761
   38MOL   H44731601   1.933   2.934   0.640 -2.3277  0.0605  0.4635
   38MOL   H44831602   1.918   3.088   0.566  1.3288  2.3806  1.4308
   38MOL   H44931603   2.192   3.046   0.540  0.6203 -1.3045 -3.8746
   38MOL   H45031604   2.159   2.898   0.610 -0.0967  1.9978  1.5880
   38MOL   H45131605   2.010   2.837   0.430 -0.5997  0.8846  1.2457
   38MOL   H45231606   2.020   2.990   0.354 -2.4394 -2.1075  0.2574
   38MOL   H45331607   2.254   2.973   0.318 -0.6905  0.1946 -1.5096
   38MOL   H45431608   2.278   2.818   0.382  0.0526 -1.6721 -3.2580
   38MOL   H45531609   2.142   2.729   0.188  1.9719 -0.2715  1.2376
   38MOL   H45631610   2.094   2.886   0.140 -0.1433 -0.2657  0.6637
   38MOL   H45731611   2.386   2.791   0.142  1.0138 -1.3788 -0.9981
   38MOL   H45831612   2.323   2.940   0.059  1.3127 -0.5879 -0.3102
   38MOL   H45931613   2.223   2.669   7.686  1.1410 -1.6041 -3.1070
   38MOL   H46031614   2.190   2.799   7.595 -1.1509 -0.3407  1.5404
   38MOL   H46131615   2.462   2.658   7.597  1.2203  2.1938  2.3266
   38MOL   H46231616   2.460   2.820   7.564 -0.1505 -0.4460  1.8813
   38MOL   H46331617   2.356   2.721   7.463  0.5227 -2.7759 -0.4367
   38MOL   C46431618   1.748   3.475   0.659 -0.6433 -0.4337 -0.0326
   38MOL   C46531619   1.886   3.525   0.593 -0.2826 -0.6013 -0.0975
   38MOL   C46631620   1.881   3.509   0.442 -0.1127 -0.0666  0.8537
   38MOL   C46731621   1.899   3.361   0.400  0.0291  0.3220  0.1641
   38MOL   C46831622   1.908   3.349   0.246 -0.4417  0.0451  0.2733
   38MOL   C46931623   1.967   3.220   0.200  0.3419  0.7915 -0.1364
   38MOL   C47031624   1.997   3.209   0.059 -0.9125 -0.3708  0.1460
   38MOL   C47131625   2.094   3.322   0.011  0.5800  0.2611  0.3151
   38MOL   C47231626   2.133   3.290   7.570 -0.2323 -0.7647 -0.3836
   38MOL   C47331627   2.206   3.405   7.512  0.4232  0.2805  0.6497
   38MOL   C47431628   2.309   3.371   7.400  0.0329 -0.0748 -0.5718
   38MOL   C47531629   2.350   3.488   7.305 -0.2943  0.0384 -0.7134
   38MOL   C47631630   2.414   3.603   7.379 -1.0942 -0.5567  0.2899
   38MOL   C47731631   2.483   3.709   7.295 -0.1760  0.7712  0.6999
   38MOL   H47831632   1.684   3.561   0.636 -0.1817 -0.0867 -0.0145
   38MOL   H47931633   1.699   3.388   0.614 -0.0340 -0.6033 -0.3629
   38MOL   H48031634   1.975   3.470   0.623  1.3921  2.1862  0.2033
   38MOL   H48131635   1.789   3.558   0.410 -0.3524 -1.7496 -1.1111
   38MOL   H48231636   1.965   3.563   0.400  0.0310 -0.5566  0.5064
   38MOL   H48331637   1.806   3.310   0.422 -0.1325  0.6532  0.2461
   38MOL   H48431638   1.968   3.303   0.462 -1.0416 -0.2352  0.8416
   38MOL   H48531639   1.975   3.419   0.195  2.1057 -2.0235  0.6563
   38MOL   H48631640   1.810   3.354   0.199 -0.2720  1.1020  0.0133
   38MOL   H48731641   2.059   3.207   0.257  0.8632  0.1418 -1.1092
   38MOL   H48831642   1.901   3.138   0.229  0.1136  1.2523  0.6488
   38MOL   H48931643   2.039   3.112   0.033 -0.2106  0.3865 -1.5991
   38MOL   H49031644   1.905   3.217   0.002 -1.9304 -0.1094  1.7964
   38MOL   H49131645   2.041   3.415   7.685  2.2879  0.8578 -1.4416
   38MOL   H49231646   2.172   3.342   0.085  1.3817 -1.0586 -0.1622
   38MOL   H49331647   2.200   3.205   7.579  0.5188 -0.2484 -0.9869
   38MOL   H49431648   2.042   3.272   7.513  0.4158 -1.4382 -1.2223
   38MOL   H49531649   2.138   3.483   7.478  0.5400 -0.5335 -1.5414
   38MOL   H49631650   2.261   3.456   7.591  3.2049  1.0134 -1.7028
   38MOL   H49731651   2.396   3.340   7.457 -0.5313  0.4313  0.5814
   38MOL   H49831652   2.285   3.289   7.333  0.1329 -1.3963  0.9724
   38MOL   H49931653   2.258   3.518   7.254 -1.8886 -0.6825  1.6251
   38MOL   H50031654   2.425   3.457   7.233  0.6772  2.6280 -0.8582
   38MOL   H50131655   2.338   3.658   7.434 -0.3225  2.1976 -1.3013
   38MOL   H50231656   2.489   3.563   7.447 -2.5685 -1.3053  1.5111
   38MOL   H50331657   2.548   3.674   7.215 -0.5373  2.2910 -0.2864
   38MOL   H50431658   2.417   3.771   7.234  1.3368  1.9566  0.2336
   38MOL   H50531659   2.539   3.771   7.365  0.7406 -1.6174  2.1500
   38MOL   C50631660   1.904   3.670   0.638  0.4458  1.0578 -0.2695
   38MOL   C50731661   2.038   3.746   0.599 -0.2517 -0.0712  0.1725
   38MOL   C50831662   1.997   3.893   0.548 -0.2420  0.4744  0.8237
   38MOL   C50931663   2.120   3.953   0.466  0.1839 -0.4673 -0.0497
   38MOL   C51031664   2.100   4.104   0.441  0.4957  0.1579 -0.9415
   38MOL   C51131665   2.242   4.172   0.426  0.3081 -0.0780  0.0378
   38MOL   C51231666   2.247   4.328   0.407 -0.0669 -0.5784  0.4191
   38MOL   C51331667   2.265   4.415   0.534  0.8202  0.0678 -0.1739
   38MOL   C51431668   2.139   4.410   0.622 -0.2765  0.4411  0.4581
   38MOL   C51531669   2.124   4.514   0.735 -0.5544  0.2197 -0.4615
   38MOL   C51631670   2.201   4.455   0.863 -0.2063  0.2044 -1.0408
   38MOL   C51731671   2.185   4.543   0.985 -0.1119 -0.8125  0.0844
   38MOL   C51831672   2.247   4.483   1.110 -0.6311 -0.3661 -0.0893
   38MOL   C51931673   2.285   4.586   1.219  0.4617  0.1577  0.8653
   38MOL   H52031674   1.899   3.677   0.746  0.1556 -0.0196 -0.2120
   38MOL   H52131675   1.816   3.722   0.602  0.5119  0.2009 -1.7414
   38MOL   H52231676   2.091   3.697   0.517 -2.4066 -2.0820 -0.0656
   38MOL   H52331677   1.921   3.899   0.471  0.1742 -1.6204  0.2112
   38MOL   H52431678   1.967   3.956   0.631  0.1359 -1.5567  2.5578
   38MOL   H52531679   2.208   3.939   0.528 -0.2761 -1.0061  0.4928
   38MOL   H52631680   2.150   3.897   0.377 -0.0990 -0.1874 -0.3234
   38MOL   H52731681   2.050   4.140   0.531  1.5124 -3.2435  1.0857
   38MOL   H52831682   2.034   4.133   0.359  0.1405  1.8149 -0.0844
   38MOL   H52931683   2.290   4.132   0.337 -0.6606 -0.6739 -0.2197
   38MOL   H53031684   2.296   4.148   0.517  0.6531  2.5042  0.5562
   38MOL   H53131685   2.320   4.361   0.333  0.3104 -1.2791  0.4736
   38MOL   H53231686   2.154   4.359   0.358  0.1323  1.0765  1.0638
   38MOL   H53331687   2.279   4.516   0.496  2.6683 -0.9846 -2.3982
   38MOL   H53431688   2.356   4.384   0.585  1.4015 -1.5404 -2.1217
   38MOL   H53531689   2.114   4.312   0.663  0.0028  0.7542  1.3926
   38MOL   H53631690   2.057   4.432   0.554  0.2149 -1.5464 -0.8335
   38MOL   H53731691   2.157   4.614   0.708  2.8846 -1.1688 -1.6554
   38MOL   H53831692   2.015   4.519   0.746 -0.4523  2.4674 -0.2613
   38MOL   H53931693   2.165   4.353   0.876  3.0827 -1.0114 -0.9817
   38MOL   H54031694   2.307   4.449   0.839  0.3778  1.4744  1.0483
   38MOL   H54131695   2.078   4.551   1.000  0.2342 -0.0289  2.2489
   38MOL   H54231696   2.230   4.641   0.970 -0.8706 -0.1712  1.9433
   38MOL   H54331697   2.347   4.443   1.095  0.0371  0.2380  2.4626
   38MOL   H54431698   2.178   4.407   1.148 -0.2562  0.5921  2.5880
   38MOL   H54531699   2.201   4.653   1.239 -0.0389 -0.3513  0.4917
   38MOL   H54631700   2.317   4.542   1.314  0.1026 -2.7043 -0.3173
   38MOL   H54731701   2.369   4.644   1.182  1.1942  0.1651  2.4917
   38MOL   C54831702   2.131   3.764   0.728  0.2215  0.1297  0.1591
   38MOL   C54931703   2.186   3.634   0.790  0.3281 -0.3932  1.2718
   38MOL   C55031704   2.280   3.566   0.692 -0.7295 -0.0510 -0.3847
   38MOL   C55131705   2.315   3.423   0.737 -0.3227  0.0570 -0.0547
   38MOL   C55231706   2.409   3.359   0.629  0.3220  0.9244 -0.1264
   38MOL   C55331707   2.432   3.212   0.657  0.0530  0.0233  0.6035
   38MOL   C55431708   2.500   3.144   0.535 -0.4264  0.0164 -0.0227
   38MOL   C55531709   2.533   3.002   0.573 -0.3860  0.3065 -0.1697
   38MOL   C55631710   2.615   2.944   0.453 -0.0518 -0.1562 -1.4284
   38MOL   C55731711   2.615   2.789   0.445  0.7349 -0.1522  0.2645
   38MOL   C55831712   2.675   2.726   0.569  0.0018  0.4223 -0.3969
   38MOL   C55931713   2.687   2.577   0.555  0.2715 -0.0990  0.4585
   38MOL   C56031714   2.775   2.499   0.656 -0.4283  0.1540  0.3356
   38MOL   C56131715   2.847   2.377   0.615 -0.2369  0.4395  0.3497
   38MOL   H56231716   2.219   3.824   0.704  0.0921  0.0197 -0.5775
   38MOL   H56331717   2.086   3.832   0.800  0.9559  0.0883  0.6720
   38MOL   H56431718   2.111   3.560   0.817 -1.7627  1.1024 -0.2400
   38MOL   H56531719   2.239   3.568   0.591  2.0634  3.8246 -1.5431
   38MOL   H56631720   2.373   3.622   0.689 -1.0904  0.5336 -0.6039
   38MOL   H56731721   2.221   3.369   0.746 -0.2629  0.0193  0.3293
   38MOL   H56831722   2.360   3.414   0.836 -0.6530  1.9732  0.2744
   38MOL   H56931723   2.363   3.369   0.531 -1.2303  0.3426  0.5278
   38MOL   H57031724   2.501   3.417   0.618  0.1793  1.6356  2.0873
   38MOL   H57131725   2.340   3.156   0.674 -0.1421  0.0026 -0.5314
   38MOL   H57231726   2.495   3.200   0.746  2.0268  0.9617 -0.6411
   38MOL   H57331727   2.433   3.156   0.450 -1.7139 -2.1764  0.6574
   38MOL   H57431728   2.592   3.198   0.509 -1.0498  1.2059  0.2121
   38MOL   H57531729   2.446   2.941   0.594 -0.6333 -0.1351 -2.3872
   38MOL   H57631730   2.599   2.993   0.659 -1.7979 -0.6635  0.8304
   38MOL   H57731731   2.716   2.985   0.446 -1.1270  2.5378 -1.7546
   38MOL   H57831732   2.560   2.984   0.367 -1.2405 -1.7952 -1.4486
   38MOL   H57931733   2.514   2.749   0.443  0.6152  0.1956 -2.6879
   38MOL   H58031734   2.662   2.754   0.353 -1.5379  2.7390 -2.1135
   38MOL   H58131735   2.620   2.753   0.659  0.3212 -0.3063  0.0195
   38MOL   H58231736   2.776   2.767   0.572 -0.3427  1.3792 -1.6506
   38MOL   H58331737   2.593   2.522   0.548  0.3546 -0.0710 -1.0790
   38MOL   H58431738   2.727   2.559   0.456  0.4184 -0.2035  0.5374
   38MOL   H58531739   2.859   2.552   0.701 -1.0646  0.1419  1.5356
   38MOL   H58631740   2.703   2.477   0.734 -0.3610 -2.0722 -0.1961
   38MOL   H58731741   2.774   2.309   0.571 -2.0074  1.6757  1.3474
   38MOL   H58831742   2.937   2.393   0.556 -0.0026  2.2569  1.1675
   38MOL   H58931743   2.879   2.327   0.706 -0.0822  1.2697  0.7566
   38MOL   C59031744   2.262   3.666   0.917  0.4568 -0.0421 -0.2370
   38MOL   C59131745   2.170   3.695   1.039 -0.1191 -0.7195  0.4330
   38MOL   C59231746   2.185   3.574   1.137  0.4986  0.3132  0.0177
   38MOL   C59331747   2.099   3.452   1.088 -0.3159 -0.0610 -0.6558
   38MOL   C59431748   2.094   3.332   1.173 -0.2201 -0.0101 -0.3411
   38MOL   C59531749   2.007   3.347   1.298  0.0019  0.1361  0.2319
   38MOL   C59631750   1.991   3.231   1.392 -0.2980  0.4366  0.1426
   38MOL   C59731751   1.915   3.268   1.520  0.1636 -0.0589  0.3703
   38MOL   C59831752   1.863   3.151   1.603 -0.1665 -0.2462  0.3640
   38MOL   C59931753   1.967   3.068   1.676 -0.6383  0.2299  0.4354
   38MOL   C60031754   1.994   3.121   1.815  0.1007  0.7641  0.1037
   38MOL   C60131755   2.109   3.053   1.892  0.2288  0.1721  0.3828
   38MOL   C60231756   2.132   3.087   2.035  0.0863  0.3949 -0.5717
   38MOL   C60331757   2.163   3.236   2.057  0.1469  0.3856 -0.6595
   38MOL   H60431758   2.333   3.748   0.903 -0.3109  0.7994  0.6905
   38MOL   H60531759   2.336   3.594   0.950 -1.2147 -1.4228  0.5667
   38MOL   H60631760   2.069   3.704   0.999  1.2791  1.5307 -2.7085
   38MOL   H60731761   2.142   3.596   1.235  1.6209  0.5536  0.4601
   38MOL   H60831762   2.288   3.550   1.159  0.6351  0.0294 -0.8977
   38MOL   H60931763   2.132   3.428   0.987 -1.7764 -0.7689 -0.9755
   38MOL   H61031764   1.998   3.490   1.071 -0.2622  0.4195  0.0669
   38MOL   H61131765   2.193   3.289   1.190 -1.1533 -2.2222 -0.4035
   38MOL   H61231766   2.042   3.257   1.114 -0.2433 -0.4716  0.2646
   38MOL   H61331767   1.908   3.378   1.264 -0.2680 -0.5494  0.3922
   38MOL   H61431768   2.050   3.428   1.357  1.8236 -0.3804 -0.3620
   38MOL   H61531769   1.937   3.154   1.336  1.3477 -0.3555 -0.3791
   38MOL   H61631770   2.087   3.191   1.423  0.4888  2.7543  0.8321
   38MOL   H61731771   1.985   3.332   1.574 -0.5718  1.8562 -0.8902
   38MOL   H61831772   1.833   3.333   1.489  0.8695  1.7893  2.2123
   38MOL   H61931773   1.792   3.207   1.664  0.7907  1.4863 -0.0838
   38MOL   H62031774   1.809   3.087   1.533  0.9403 -0.1224 -0.6059
   38MOL   H62131775   1.935   2.964   1.676 -1.1272  0.3704 -0.5299
   38MOL   H62231776   2.061   3.076   1.622 -1.1567  0.7192 -0.4111
   38MOL   H62331777   1.903   3.100   1.871 -1.9371  1.4588 -2.8070
   38MOL   H62431778   2.018   3.228   1.815  1.9801  0.3777  1.8746
   38MOL   H62531779   2.200   3.073   1.836  1.4109  2.7072  3.1176
   38MOL   H62631780   2.099   2.944   1.886  0.6448  0.1986 -0.9959
   38MOL   H62731781   2.043   3.055   2.089  0.2771 -0.4705 -0.7610
   38MOL   H62831782   2.222   3.036   2.070  0.0511  2.1118  2.1406
   38MOL   H62931783   2.246   3.264   1.993 -0.0072 -2.8614 -2.3942
   38MOL   H63031784   2.180   3.258   2.163 -2.1208  0.7944 -0.3595
   38MOL   H63131785   2.083   3.301   2.021 -1.0534 -1.1559 -0.8281
   38MOL   C63231786   2.214   3.820   1.107  0.6049  0.0817  0.0594
   38MOL   C63331787   2.175   3.958   1.049  0.7039 -0.3925 -0.5118
   38MOL   C63431788   2.017   3.979   1.035  0.0192  0.0182  0.1239
   38MOL   C63531789   1.970   4.082   0.935  0.2305 -0.2396 -0.2996
   38MOL   C63631790   1.913   4.200   0.998 -0.6759 -0.7748 -0.4374
   38MOL   C63731791   1.844   4.291   0.900 -0.0025 -0.0752 -0.7497
   38MOL   C63831792   1.774   4.414   0.969 -0.2895  0.4140  0.1961
   38MOL   C63931793   1.664   4.472   0.867 -0.0736  0.4752 -0.2683
   38MOL   C64031794   1.607   4.600   0.922  0.2230 -0.8459 -0.8504
   38MOL   C64131795   1.519   4.680   0.828 -0.4902 -0.1611  0.0100
   38MOL   C64231796   1.483   4.814   0.878 -0.1466 -0.6578  0.4909
   38MOL   C64331797   1.356   4.871   0.815  0.0905 -0.5981  0.7917
   38MOL   C64431798   1.301   4.994   0.888  0.5803 -0.5263 -0.4970
   38MOL   C64531799   1.166   5.049   0.830  0.0788 -0.5071 -0.4331
   38MOL   H64631800   2.320   3.808   1.133  0.2210 -1.1970  1.0757
   38MOL   H64731801   2.167   3.823   1.205 -2.2816 -0.2206 -1.2700
   38MOL   H64831802   2.222   3.967   0.951  1.3639  3.0600  0.0816
   38MOL   H64931803   1.974   3.890   0.989 -2.2382  1.8314 -1.3743
   38MOL   H65031804   1.970   3.978   1.133 -1.6248 -1.2331 -0.6537
   38MOL   H65131805   1.894   4.046   0.865  0.8251  1.6733 -2.0051
   38MOL   H65231806   2.050   4.106   0.864 -2.8904 -0.2160 -3.9958
   38MOL   H65331807   1.984   4.260   1.054 -1.6918  0.1862 -0.1432
   38MOL   H65431808   1.837   4.173   1.071 -0.3768 -0.7260 -0.1124
   38MOL   H65531809   1.924   4.316   0.830  0.2004  1.7831  0.1364
   38MOL   H65631810   1.772   4.235   0.839  0.8462 -1.3138 -0.6338
   38MOL   H65731811   1.738   4.393   1.070 -0.6047 -1.7024 -0.3317
   38MOL   H65831812   1.839   4.500   0.987 -0.8973  1.0756 -0.6726
   38MOL   H65931813   1.579   4.406   0.853  0.6521 -0.5250  0.0486
   38MOL   H66031814   1.717   4.506   0.778  0.3407 -0.6171 -0.4428
   38MOL   H66131815   1.686   4.662   0.964 -0.8354 -0.1793  0.1932
   38MOL   H66231816   1.557   4.575   1.016  1.4733  0.3241  0.1484
   38MOL   H66331817   1.567   4.687   0.731  1.0730 -0.7095  0.7337
   38MOL   H66431818   1.428   4.623   0.806  0.9141 -2.0864 -0.9461
   38MOL   H66531819   1.473   4.794   0.985 -1.5952 -1.7758  0.1618
   38MOL   H66631820   1.567   4.882   0.872 -0.4176  0.1269  4.3409
   38MOL   H66731821   1.279   4.795   0.807 -0.9154  0.5900 -1.2023
   38MOL   H66831822   1.385   4.902   0.714 -0.1928 -0.0394  0.8798
   38MOL   H66931823   1.371   5.077   0.882  1.1020 -0.8662  0.7713
   38MOL   H67031824   1.289   4.969   0.994 -0.5829 -1.9123 -0.9382
   38MOL   H67131825   1.135   5.143   0.875  1.8549 -0.2275  0.2456
   38MOL   H67231826   1.170   5.062   0.722 -4.3292 -1.2794 -0.7849
   38MOL   H67331827   1.085   4.981   0.857  1.6902 -1.1320  3.0660
   38MOL   C67431828   2.239   4.075   1.130 -0.8614 -0.7285 -0.2591
   38MOL   C67531829   2.388   4.069   1.151  0.0789  0.0973 -0.5989
   38MOL   C67631830   2.483   4.073   1.027 -0.0781  0.4536 -0.7473
   38MOL   C67731831   2.439   4.173   0.918 -0.8045 -0.2394 -0.1879
   38MOL   C67831832   2.508   4.160   0.786 -0.1188 -0.0363 -0.0110
   38MOL   C67931833   2.501   4.016   0.725 -0.2929 -0.0200 -0.0216
   38MOL   C68031834   2.584   4.005   0.599  0.5468  0.2923 -0.0514
   38MOL   C68131835   2.527   3.902   0.504  0.0703  0.7050  0.4023
   38MOL   C68231836   2.613   3.885   0.374  0.0519 -0.0145 -0.2861
   38MOL   C68331837   2.610   4.007   0.281 -0.3927 -0.0918  0.8850
   38MOL   C68431838   2.687   3.991   0.157  0.3954 -0.0819 -0.8388
   38MOL   C68531839   2.604   3.926   0.038  0.5404  0.1109 -0.3155
   38MOL   C68631840   2.684   3.925   7.608 -0.5543 -0.4459  0.3793
   38MOL   C68731841   2.751   4.063   7.567 -0.7514 -0.0061 -0.0272
   38MOL   H68831842   2.185   4.065   1.224  0.4805  1.3511  0.7609
   38MOL   H68931843   2.206   4.171   1.091  0.7704  0.1360  0.4289
   38MOL   H69031844   2.409   3.970   1.193 -2.4052 -0.2048 -0.0004
   38MOL   H69131845   2.585   4.084   1.062  0.7872 -1.0160 -2.7729
   38MOL   H69231846   2.471   3.973   0.987 -1.1718  0.7810 -1.2620
   38MOL   H69331847   2.331   4.178   0.905 -0.7812  2.5105  0.3422
   38MOL   H69431848   2.448   4.276   0.952 -0.8823 -0.1837 -0.3350
   38MOL   H69531849   2.460   4.231   0.718 -0.9277 -0.6668 -0.1087
   38MOL   H69631850   2.608   4.197   0.806 -1.1632  2.7879  0.2006
   38MOL   H69731851   2.540   3.939   0.792  0.7779  0.2451 -0.3338
   38MOL   H69831852   2.395   3.994   0.710 -0.0914 -1.3585  0.3995
   38MOL   H69931853   2.592   4.102   0.550  0.0505 -0.9659 -2.7246
   38MOL   H70031854   2.687   3.980   0.621  0.8856 -0.3025 -2.2713
   38MOL   H70131855   2.518   3.807   0.556  1.7994  0.1293 -0.3052
   38MOL   H70231856   2.422   3.924   0.485 -0.7724 -1.8177  1.9502
   38MOL   H70331857   2.712   3.840   0.386  0.2821  0.1565 -1.4314
   38MOL   H70431858   2.558   3.810   0.317 -0.9321  1.1565 -0.9066
   38MOL   H70531859   2.643   4.095   0.337  1.4198 -0.5616  0.5769
   38MOL   H70631860   2.507   4.040   0.265 -0.6943 -0.4934  1.9732
   38MOL   H70731861   2.774   3.928   0.170 -0.2033 -0.4276  1.8417
   38MOL   H70831862   2.718   4.090   0.122 -0.4556 -0.2922 -2.2421
   38MOL   H70931863   2.506   3.968   0.018 -0.0077  0.9438  3.6771
   38MOL   H71031864   2.589   3.820   0.062  0.7616  0.1770  0.1241
   38MOL   H71131865   2.751   3.840   7.597 -0.8008 -0.4802 -0.9043
   38MOL   H71231866   2.617   3.901   7.526  1.7434  0.8959 -1.9660
   38MOL   H71331867   2.679   4.145   7.570 -1.0842 -0.3191  0.5866
   38MOL   H71431868   2.841   4.081   7.627  0.0902 -0.0401 -1.2705
   38MOL   H71531869   2.789   4.035   7.469 -0.2150  0.1303  0.1348
   38MOL   C71631870   2.442   4.167   1.256  0.7584 -0.5533 -0.4085
   38MOL   C71731871   2.565   4.119   1.332 -0.1890 -0.8737  0.3426
   38MOL   C71831872   2.620   4.246   1.405  0.2328 -0.3493 -0.0182
   38MOL   C71931873   2.769   4.238   1.442  0.1252 -0.6256 -0.8706
   38MOL   C72031874   2.824   4.360   1.517 -0.3503  0.5829  0.3647
   38MOL   C72131875   2.975   4.342   1.561 -0.4010 -0.7093 -0.4915
   38MOL   C72231876   3.009   4.255   1.679 -0.7279 -0.3028 -0.4813
   38MOL   C72331877   3.157   4.200   1.670 -0.0159  0.4272  0.2734
   38MOL   C72431878   3.205   4.120   1.787 -0.0848 -0.2037  0.1349
   38MOL   C72531879   3.356   4.077   1.765 -0.2404 -0.3534 -0.4118
   38MOL   C72631880   3.467   4.187   1.765  0.3567 -0.2029 -0.2424
   38MOL   C72731881   3.613   4.140   1.786 -0.4487  0.5641  0.0066
   38MOL   C72831882   3.716   4.252   1.755  0.1866  0.0589 -0.5025
   38MOL   C72931883   3.861   4.208   1.764  0.2644 -0.7612  0.1954
   38MOL   H73031884   2.464   4.259   1.201 -0.7817 -0.7474 -1.3894
   38MOL   H73131885   2.358   4.188   1.321  0.4620 -1.2468 -0.5531
   38MOL   H73231886   2.642   4.097   1.258 -0.9781 -1.7070 -0.2468
   38MOL   H73331887   2.556   4.256   1.491  1.3707  0.3949  0.7595
   38MOL   H73431888   2.610   4.329   1.335  2.6188 -0.1462 -0.1942
   38MOL   H73531889   2.796   4.157   1.511 -0.0282  0.5862  0.6518
   38MOL   H73631890   2.831   4.219   1.355  1.9292  1.0172  0.0116
   38MOL   H73731891   2.827   4.442   1.445 -0.8073  1.3721  1.2371
   38MOL   H73831892   2.752   4.406   1.585 -0.7343  1.1837 -0.4384
   38MOL   H73931893   3.039   4.333   1.474  0.6944 -2.4973  0.4559
   38MOL   H74031894   3.010   4.435   1.606 -1.3149 -0.9288  0.6979
   38MOL   H74131895   2.984   4.308   1.771 -0.5275 -2.2752  0.7484
   38MOL   H74231896   2.952   4.162   1.688  0.8438 -1.1086  1.4786
   38MOL   H74331897   3.216   4.286   1.639 -1.3051  1.5163  0.7925
   38MOL   H74431898   3.171   4.128   1.590 -2.5244 -0.4377  0.5695
   38MOL   H74531899   3.207   4.181   1.877 -2.3283  0.6055 -0.3204
   38MOL   H74631900   3.147   4.028   1.795 -0.4705  0.0036 -0.2354
   38MOL   H74731901   3.395   4.008   1.840  2.5728 -0.2286 -1.7026
   38MOL   H74831902   3.365   4.018   1.674 -0.0699  0.8513 -1.1814
   38MOL   H74931903   3.463   4.249   1.675 -0.7435  0.3104  0.1480
   38MOL   H75031904   3.447   4.247   1.854 -0.9195 -1.8421  0.5908
   38MOL   H75131905   3.633   4.110   1.889 -0.1530 -1.1158 -0.5270
   38MOL   H75231906   3.635   4.052   1.726  0.4477 -0.3388  1.6255
   38MOL   H75331907   3.681   4.328   1.826  3.2927 -1.7287  3.0928
   38MOL   H75431908   3.698   4.297   1.657 -0.5711  0.4952 -0.1735
   38MOL   H75531909   3.890   4.169   1.862 -0.8051 -1.8414  0.0941
   38MOL   H75631910   3.935   4.286   1.747 -0.0661  0.1125  2.4968
   38MOL   H75731911   3.876   4.121   1.701  1.5196 -1.0901  0.9367
   38MOL   C75831912   2.533   4.006   1.430  0.1866 -0.2744  0.2775
   38MOL   C75931913   2.584   3.871   1.395  1.1450  0.7949  0.0548
   38MOL   C76031914   2.741   3.852   1.394 -0.1089  0.2035  0.1923
   38MOL   C76131915   2.805   3.845   1.534  0.7483  0.0973  0.3567
   38MOL   C76231916   2.955   3.898   1.550 -0.1970  0.3051  0.0812
   38MOL   C76331917   3.062   3.835   1.455 -1.2061  0.3200 -0.3325
   38MOL   C76431918   3.079   3.684   1.482 -0.2749 -0.4201  0.1437
   38MOL   C76531919   3.198   3.625   1.392  0.8196  0.6406 -0.0148
   38MOL   C76631920   3.186   3.466   1.384  0.0238  0.2690  0.0619
   38MOL   C76731921   3.256   3.422   1.258  0.1620  0.1071 -0.0171
   38MOL   C76831922   3.249   3.275   1.239  0.1424 -0.1169 -0.3365
   38MOL   C76931923   3.300   3.238   1.098  0.2171 -0.4409 -0.1404
   38MOL   C77031924   3.243   3.093   1.057 -0.2247 -0.2733  0.1877
   38MOL   C77131925   3.295   3.060   0.922 -0.0732 -0.0727  0.0180
   38MOL   H77231926   2.550   4.029   1.535  0.7431 -1.5019  0.4715
   38MOL   H77331927   2.425   3.991   1.421  0.2650  1.2896 -4.4516
   38MOL   H77431928   2.549   3.859   1.292 -1.9368  1.3095  0.9810
   38MOL   H77531929   2.772   3.768   1.330  1.3733 -0.0479  1.2100
   38MOL   H77631930   2.782   3.934   1.335 -0.6832 -0.6658 -1.4352
   38MOL   H77731931   2.748   3.901   1.608  0.8119  1.9313 -0.9433
   38MOL   H77831932   2.805   3.741   1.567 -1.3460  0.2408  0.9076
   38MOL   H77931933   2.996   3.872   1.648 -0.1621  1.0064  0.2568
   38MOL   H78031934   2.958   4.006   1.534  0.3775  0.3520  0.4678
   38MOL   H78131935   3.156   3.882   1.483  0.2402 -2.4728 -0.3070
   38MOL   H78231936   3.039   3.863   1.352  2.0241 -2.1925 -1.8447
   38MOL   H78331937   3.103   3.677   1.588 -0.6401  2.1312  0.4195
   38MOL   H78431938   2.987   3.627   1.468 -1.5828  1.4357  1.1054
   38MOL   H78531939   3.293   3.652   1.438 -0.2347  1.5534  1.6791
   38MOL   H78631940   3.196   3.677   1.296  0.2071  2.1193  0.7845
   38MOL   H78731941   3.083   3.432   1.387  0.4492 -0.9564  1.2444
   38MOL   H78831942   3.233   3.424   1.473 -1.5087  0.1937  0.8441
   38MOL   H78931943   3.362   3.448   1.249  0.3976 -0.8370  0.0116
   38MOL   H79031944   3.211   3.472   1.172 -0.5248 -4.5510 -2.4959
   38MOL   H79131945   3.296   3.223   1.323  0.0356  2.6171  1.4819
   38MOL   H79231946   3.146   3.241   1.247  0.1757 -0.8257 -2.6885
   38MOL   H79331947   3.258   3.304   1.022  2.9355 -0.3609 -1.6399
   38MOL   H79431948   3.407   3.252   1.083  0.5461 -2.7270 -0.0956
   38MOL   H79531949   3.262   3.009   1.124 -1.5450  0.4000  1.4442
   38MOL   H79631950   3.135   3.085   1.051 -0.1364 -0.3495 -1.5831
   38MOL   H79731951   3.404   3.059   0.934 -0.0813 -0.6379  0.0719
   38MOL   H79831952   3.273   2.960   0.884 -0.0649  0.4106 -1.2631
   38MOL   H79931953   3.274   3.134   0.846 -2.9043  1.7673  2.4764
   38MOL   C80031954   2.506   3.757   1.477 -0.4374 -0.3447 -0.1160
   38MOL   C80131955   2.507   3.624   1.403 -0.0270  0.5360 -0.1372
   38MOL   C80231956   2.456   3.513   1.492  0.5296 -0.1920  0.1174
   38MOL   C80331957   2.491   3.374   1.446 -0.3735  0.2536  0.4015
   38MOL   C80431958   2.455   3.265   1.544  0.3862  0.0733 -0.2422
   38MOL   C80531959   2.541   3.270   1.672  0.0413 -0.0689  0.0185
   38MOL   C80631960   2.494   3.180   1.784  0.4569 -0.5636 -0.1147
   38MOL   C80731961   2.593   3.158   1.900 -0.2093  0.4080 -0.8841
   38MOL   C80831962   2.540   3.084   2.021  0.1777 -0.3462  0.2323
   38MOL   C80931963   2.528   2.935   2.007 -0.2706 -0.0546 -0.0535
   38MOL   C81031964   2.507   2.854   2.138 -0.2835  0.0023 -0.4214
   38MOL   C81131965   2.496   2.697   2.112 -0.1935  0.5623  0.1477
   38MOL   C81231966   2.617   2.629   2.050 -0.0402  0.6307  0.7566
   38MOL   C81331967   2.614   2.479   2.067  0.5111 -0.9756 -0.7021
   38MOL   H81431968   2.404   3.786   1.501  0.2494 -0.5447  3.3269
   38MOL   H81531969   2.558   3.753   1.573 -1.2651 -0.3070  0.3348
   38MOL   H81631970   2.601   3.604   1.350 -1.6260  0.7259 -3.1417
   38MOL   H81731971   2.347   3.513   1.495  0.5377 -0.2738  0.5127
   38MOL   H81831972   2.491   3.532   1.594  0.9452  3.8494 -0.7006
   38MOL   H81931973   2.593   3.364   1.408  0.5938  2.4974  2.2523
   38MOL   H82031974   2.430   3.343   1.361  1.2454 -0.3279 -0.5729
   38MOL   H82131975   2.347   3.271   1.553  0.3243 -0.4961 -0.6183
   38MOL   H82231976   2.478   3.168   1.500 -2.1185 -0.2853 -0.7806
   38MOL   H82331977   2.546   3.372   1.712 -1.3957 -0.6058  1.6326
   38MOL   H82431978   2.644   3.243   1.649  0.7334  0.9790  1.7575
   38MOL   H82531979   2.402   3.213   1.832 -0.2388 -1.0727 -1.0716
   38MOL   H82631980   2.466   3.080   1.752  0.3350 -0.0603 -1.6600
   38MOL   H82731981   2.686   3.108   1.870 -0.0184 -0.3801  0.9287
   38MOL   H82831982   2.628   3.258   1.926 -0.0103 -0.2018  1.3503
   38MOL   H82931983   2.602   3.091   2.110 -0.5509 -0.5841  0.7641
   38MOL   H83031984   2.453   3.138   2.060 -1.4280 -0.5712 -2.8681
   38MOL   H83131985   2.623   2.914   1.958  1.4111  1.9257  2.2219
   38MOL   H83231986   2.457   2.916   1.926  0.3770  1.1558 -0.9257
   38MOL   H83331987   2.581   2.873   2.216  1.3663  1.1184 -2.2037
   38MOL   H83431988   2.411   2.898   2.166 -0.2789 -0.9072  1.0560
   38MOL   H83531989   2.410   2.684   2.046 -0.2005 -2.7155  0.7218
   38MOL   H83631990   2.464   2.656   2.207 -0.7901 -2.5590 -1.3354
   38MOL   H83731991   2.613   2.658   1.945  1.1169  0.4967  0.6656
   38MOL   H83831992   2.713   2.664   2.090 -0.8412  0.0333  3.2876
   38MOL   H83931993   2.661   2.457   2.163 -0.6569 -1.6360 -0.2652
   38MOL   H84031994   2.518   2.427   2.059  1.5470 -3.1133  0.2757
   38MOL   H84131995   2.683   2.433   1.997  1.1493  1.4780 -1.7384
   38MOL   H84231996   2.431   3.633   1.325 -0.0505  2.1168  0.0508
   39MOL     C131997   3.272   5.291   7.146 -0.3425  0.6365 -0.3220
   39MOL     C231998   3.406   5.266   7.208 -1.2182 -0.8295 -1.0618
   39MOL     C331999   3.447   5.393   7.284  0.3464  0.7655  0.6965
   39MOL     C432000   3.594   5.398   7.340 -0.1171  0.7904 -0.7805
   39MOL     C532001   3.627   5.532   7.398  0.0203 -0.1926  0.1342
   39MOL     C632002   3.766   5.538   7.464 -0.3847  0.5514 -0.2973
   39MOL     C732003   3.793   5.681   7.503 -0.2277  0.3813  0.3848
   39MOL     C832004   3.710   5.737   7.618  0.6020 -0.2306 -0.4601
   39MOL     C932005   3.733   5.879   7.655  1.0042  0.2486 -0.5935
   39MOL    C1032006   3.679   5.907   0.103 -0.1224  0.1225 -0.0506
   39MOL    C1132007   3.694   6.058   0.131 -0.2828 -0.1627  0.7698
   39MOL    C1232008   3.651   6.096   0.270 -0.2110 -0.4166 -0.3630
   39MOL    C1332009   3.663   6.244   0.304  0.2074 -0.7311 -0.3419
   39MOL    C1432010   3.646   6.282   0.449 -0.3296 -0.2444 -0.3816
   39MOL    H1532011   3.196   5.298   7.225  1.1524 -1.9121  1.3996
   39MOL    H1632012   3.249   5.204   7.084 -0.1046 -0.3897  1.0064
   39MOL    H1732013   3.479   5.248   7.129  2.7332 -1.4502  2.5439
   39MOL    H1832014   3.424   5.476   7.218 -1.7471 -0.3769 -0.0894
   39MOL    H1932015   3.381   5.390   7.371  0.0007 -2.5138  0.4015
   39MOL    H2032016   3.672   5.366   7.270  0.5861 -3.2193  1.6787
   39MOL    H2132017   3.585   5.327   7.422  2.5698  2.8728  1.4107
   39MOL    H2232018   3.551   5.562   7.470  0.2692 -0.2499  0.4178
   39MOL    H2332019   3.620   5.608   7.320 -1.7034 -0.1175  0.3386
   39MOL    H2432020   3.843   5.510   7.393  0.0017 -0.3350  0.4485
   39MOL    H2532021   3.779   5.464   7.543 -0.0310  0.3692 -0.5272
   39MOL    H2632022   3.898   5.693   7.533  0.0226 -0.6702 -0.0385
   39MOL    H2732023   3.783   5.743   7.413  2.3695 -2.5091 -2.0349
   39MOL    H2832024   3.732   5.661   7.693 -2.0411  0.0444  0.6404
   39MOL    H2932025   3.604   5.711   7.608  0.4592  0.8260 -1.9067
   39MOL    H3032026   3.839   5.903   7.648  1.2967 -0.4294  1.1564
   39MOL    H3132027   3.687   5.948   7.584 -2.3296 -2.2271 -0.9905
   39MOL    H3232028   3.571   5.894   0.112 -0.1703  1.0212  0.7562
   39MOL    H3332029   3.737   5.843   0.170 -0.9294  1.6473  2.1586
   39MOL    H3432030   3.798   6.085   0.113 -1.0160 -0.1402 -4.1249
   39MOL    H3532031   3.647   6.116   0.051 -0.0742  1.2776  1.6767
   39MOL    H3632032   3.711   6.036   0.339 -0.1439 -0.8596 -0.8051
   39MOL    H3732033   3.547   6.071   0.289  0.3243 -1.3394  1.5454
   39MOL    H3832034   3.755   6.279   0.258 -0.0938 -1.1507 -1.2850
   39MOL    H3932035   3.590   6.303   0.250 -0.6813  1.8837  3.4745
   39MOL    H4032036   3.660   6.390   0.453 -0.9309 -0.1187 -1.4967
   39MOL    H4132037   3.552   6.252   0.496 -0.1835  1.9125  1.4066
   39MOL    H4232038   3.720   6.238   0.516 -0.3788 -2.1709 -1.5623
   39MOL    H4332039   3.265   5.371   7.073 -0.3151  1.4171  0.5121
   39MOL    C4432040   3.402   5.138   7.289  0.2130 -0.0816 -0.0835
   39MOL    C4532041   3.532   5.049   7.277 -0.3186 -0.0842  0.6247
   39MOL    C4632042   3.525   4.976   7.140 -0.1344 -0.8375  0.5983
   39MOL    C4732043   3.661   4.929   7.084  0.6146 -0.0578  0.7213
   39MOL    C4832044   3.641   4.862   6.945  0.2784 -0.2754  0.2005
   39MOL    C4932045   3.775   4.826   6.877  0.0653  0.1556 -0.6474
   39MOL    C5032046   3.829   4.943   6.807  0.2754  0.4184 -0.1100
   39MOL    C5132047   3.975   4.909   6.764  0.4025 -0.1095  0.5611
   39MOL    C5232048   4.034   5.018   6.677 -1.0460 -0.1529  0.0820
   39MOL    C5332049   4.163   4.977   6.598 -0.4636 -0.4852 -0.0205
   39MOL    C5432050   4.208   5.079   6.498 -0.3939  0.0122  0.4806
   39MOL    C5532051   4.319   5.029   6.408 -0.5092  1.0513 -0.1070
   39MOL    C5632052   4.455   4.997   6.485  0.4813 -0.1638  0.4475
   39MOL    C5732053   4.524   5.129   6.525 -0.2256 -0.9217 -0.0892
   39MOL    H5832054   3.409   5.174   7.392  2.3126  0.4940 -0.3991
   39MOL    H5932055   3.310   5.081   7.271  1.6488 -1.8789 -2.0384
   39MOL    H6032056   3.613   5.120   7.265 -0.6485  0.1615 -0.2496
   39MOL    H6132057   3.475   4.885   7.173 -2.1394  0.1971  0.4547
   39MOL    H6232058   3.458   5.020   7.067  2.2629  0.5914 -0.8228
   39MOL    H6332059   3.715   4.867   7.155 -0.5826  0.2273  1.9023
   39MOL    H6432060   3.727   5.013   7.061 -0.0097 -0.1071 -1.2836
   39MOL    H6532061   3.588   4.933   6.881  3.1844  0.2465 -1.7335
   39MOL    H6632062   3.580   4.773   6.960 -0.9966  0.3323 -1.2382
   39MOL    H6732063   3.851   4.792   6.947 -1.7230 -0.9660  0.7942
   39MOL    H6832064   3.760   4.740   6.811 -0.6595  0.0488 -0.3450
   39MOL    H6932065   3.755   4.954   6.728 -2.6122  2.3528  2.7078
   39MOL    H7032066   3.829   5.030   6.872 -1.1435  0.1850  0.2202
   39MOL    H7132067   3.971   4.817   6.706  0.1680  0.3716 -0.2021
   39MOL    H7232068   4.044   4.890   6.846  0.9419  0.6434  0.2985
   39MOL    H7332069   3.962   5.043   6.599 -1.9136 -2.1859  0.2135
   39MOL    H7432070   4.054   5.110   6.732 -1.4197 -0.0239  0.0002
   39MOL    H7532071   4.146   4.884   6.543 -0.2020 -0.9938  0.7400
   39MOL    H7632072   4.242   4.948   6.667 -0.6042 -2.0064 -0.4757
   39MOL    H7732073   4.241   5.163   6.559 -0.5397 -0.3653  1.0784
   39MOL    H7832074   4.126   5.109   6.432  0.7636  1.4763 -0.3367
   39MOL    H7932075   4.282   4.936   6.365  1.0150 -0.2114  1.2437
   39MOL    H8032076   4.328   5.102   6.327 -2.7160 -0.0272 -1.3791
   39MOL    H8132077   4.526   4.946   6.419 -1.4516 -1.0427 -0.9856
   39MOL    H8232078   4.438   4.940   6.576 -1.7173 -0.3172 -0.0425
   39MOL    H8332079   4.604   5.110   6.597  0.1766  0.7222 -0.0841
   39MOL    H8432080   4.447   5.193   6.567 -0.1352 -1.2014  0.5193
   39MOL    H8532081   4.561   5.185   6.440  0.9461 -1.1326  0.2682
   39MOL    C8632082   3.567   4.955   7.394  0.2179  0.3151 -0.1534
   39MOL    C8732083   3.585   5.027   7.532 -0.6151 -0.6501  0.2527
   39MOL    C8832084   3.738   5.022   7.562 -0.1391 -0.1901 -0.4910
   39MOL    C8932085   3.826   5.103   7.469  0.2948 -0.7530  0.5351
   39MOL    C9032086   3.937   5.175   7.553  0.2254 -0.0227  0.1074
   39MOL    C9132087   4.052   5.230   7.465  0.1689 -0.1672  0.0539
   39MOL    C9232088   4.165   5.132   7.431 -0.2800  0.3395  0.0226
   39MOL    C9332089   4.258   5.083   7.548 -0.3378  0.1998  0.2284
   39MOL    C9432090   4.382   5.011   7.503  0.5333  0.4812  0.1784
   39MOL    C9532091   4.472   4.956   7.611  0.4950  0.2684  0.3998
   39MOL    C9632092   4.431   4.828   7.680  0.1903 -0.0376  0.9556
   39MOL    C9732093   4.513   4.789   0.102 -0.3723  0.1301  0.1856
   39MOL    C9832094   4.468   4.842   0.233 -0.3457 -0.2259  0.1779
   39MOL    C9932095   4.569   4.859   0.344  0.0313 -0.2417  0.9517
   39MOL   H10032096   3.500   4.869   7.394 -0.1623  0.6069 -0.5571
   39MOL   H10132097   3.664   4.912   7.368  3.2966  6.5215  0.0775
   39MOL   H10232098   3.543   5.127   7.541  1.9509  0.6443 -1.5326
   39MOL   H10332099   3.747   5.064   7.663 -0.6087  0.8228 -0.8722
   39MOL   H10432100   3.780   4.921   7.567  1.1460  0.2662 -1.7192
   39MOL   H10532101   3.867   5.046   7.385  0.4895 -0.0792  0.1655
   39MOL   H10632102   3.762   5.175   7.418  1.3666 -0.1855 -0.0278
   39MOL   H10732103   3.981   5.096   7.614 -0.0333 -0.6353 -0.4940
   39MOL   H10832104   3.891   5.246   7.623 -3.3995 -1.5092 -0.6867
   39MOL   H10932105   4.089   5.322   7.511  0.1458  0.5239 -1.2918
   39MOL   H11032106   4.024   5.255   7.363 -2.0583 -1.2058  0.3825
   39MOL   H11132107   4.127   5.049   7.372  2.0847 -1.0890  0.4497
   39MOL   H11232108   4.237   5.180   7.366  1.5023  0.0649  1.7433
   39MOL   H11332109   4.201   5.006   7.600 -1.7089 -0.6177 -2.4210
   39MOL   H11432110   4.266   5.169   7.616 -2.3702  0.3477  0.3056
   39MOL   H11532111   4.357   4.936   7.427  2.6730  1.7100 -1.8095
   39MOL   H11632112   4.442   5.084   7.449  2.6590 -1.2884  0.0764
   39MOL   H11732113   4.490   5.036   7.683  0.4705  1.3044 -0.7313
   39MOL   H11832114   4.570   4.934   7.568  1.1244  1.2839  1.2451
   39MOL   H11932115   4.327   4.833   0.016  0.4522 -1.1797  2.0534
   39MOL   H12032116   4.441   4.748   7.607  4.0812  2.9428 -1.9883
   39MOL   H12132117   4.515   4.681   0.119 -0.8494  0.4037  2.1884
   39MOL   H12232118   4.613   4.830   0.089 -0.9144  1.4537  0.0967
   39MOL   H12332119   4.388   4.774   0.263 -0.6886 -0.1551 -0.5572
   39MOL   H12432120   4.429   4.942   0.215 -0.5349 -0.3940 -0.3428
   39MOL   H12532121   4.522   4.894   0.436  2.6961  1.6071  1.6808
   39MOL   H12632122   4.624   4.767   0.363 -0.8777 -0.5470  2.1935
   39MOL   H12732123   4.639   4.939   0.318  1.0324 -1.5177 -0.3107
   39MOL   C12832124   3.500   4.962   7.644  0.4517  0.4738  0.0233
   39MOL   C12932125   3.475   5.017   0.084  0.4259  0.4527 -0.2248
   39MOL   C13032126   3.450   5.169   0.099 -0.1977  0.3564 -0.3608
   39MOL   C13132127   3.573   5.260   0.123  0.0543  0.2126 -0.3300
   39MOL   C13232128   3.542   5.406   0.132  0.0854 -0.5287  0.3217
   39MOL   C13332129   3.502   5.449   0.266 -0.2980 -0.1664 -1.0531
   39MOL   C13432130   3.523   5.603   0.281  0.3774  0.2103 -0.7161
   39MOL   C13532131   3.504   5.639   0.429 -0.1439 -0.0008  0.0705
   39MOL   C13632132   3.530   5.782   0.461 -0.3082 -0.2837 -0.4391
   39MOL   C13732133   3.523   5.808   0.614  0.1073  0.4561 -0.3371
   39MOL   C13832134   3.387   5.846   0.682 -0.1519  0.0377 -0.1049
   39MOL   C13932135   3.390   5.851   0.833  0.5496  0.1043 -0.4314
   39MOL   C14032136   3.255   5.844   0.895  0.6042  0.0741 -0.0576
   39MOL   C14132137   3.252   5.846   1.047  0.0199  0.4042  0.3353
   39MOL   H14232138   3.398   4.962   7.607  0.8819  0.7867 -1.1830
   39MOL   H14332139   3.527   4.856   7.640 -1.6350 -0.2632  3.6453
   39MOL   H14432140   3.561   4.997   0.148  2.1786 -1.4513 -3.0345
   39MOL   H14532141   3.394   5.200   0.010 -0.1344  1.7745  0.0853
   39MOL   H14632142   3.377   5.186   0.178  0.8575  0.2274  0.6523
   39MOL   H14732143   3.632   5.225   0.207 -3.0629  0.1794  1.9162
   39MOL   H14832144   3.648   5.240   0.046  0.7403  2.4114 -0.2925
   39MOL   H14932145   3.619   5.470   0.088  1.0595 -2.6389 -1.1323
   39MOL   H15032146   3.454   5.420   0.068  0.7922  2.0585 -0.1696
   39MOL   H15132147   3.395   5.430   0.276 -0.2431 -0.1531 -0.3957
   39MOL   H15232148   3.552   5.394   0.346 -1.6649 -1.4168 -1.0230
   39MOL   H15332149   3.629   5.615   0.262  0.5232  1.8787  0.9705
   39MOL   H15432150   3.477   5.664   0.202 -0.4102  0.6223  0.0476
   39MOL   H15532151   3.398   5.623   0.446 -0.0690  0.6343  1.1764
   39MOL   H15632152   3.552   5.574   0.501 -0.7897 -0.7483 -0.1706
   39MOL   H15732153   3.623   5.818   0.417  0.5404 -0.1007  1.4927
   39MOL   H15832154   3.458   5.839   0.401  0.3457  1.2301  0.1786
   39MOL   H15932155   3.590   5.887   0.648  0.8244 -0.6448  0.8346
   39MOL   H16032156   3.568   5.722   0.662  1.0319  1.0735 -0.0862
   39MOL   H16132157   3.351   5.944   0.652 -0.7756 -0.3663 -0.6766
   39MOL   H16232158   3.316   5.772   0.645  1.0035 -1.5045  0.6766
   39MOL   H16332159   3.440   5.759   0.863  0.1145 -0.7360 -2.2302
   39MOL   H16432160   3.441   5.933   0.884 -0.1453  1.0526 -1.2329
   39MOL   H16532161   3.200   5.934   0.866  1.3447  1.0082  1.4260
   39MOL   H16632162   3.206   5.759   0.847 -2.5427  1.6727  0.2086
   39MOL   H16732163   3.288   5.937   1.096 -2.0454  1.6206 -0.3113
   39MOL   H16832164   3.148   5.841   1.079 -0.5349  1.9428 -1.1364
   39MOL   H16932165   3.311   5.768   1.093 -0.7495 -1.2678 -1.4319
   39MOL   C17032166   3.354   4.932   0.140  0.2032 -0.3959 -0.5646
   39MOL   C17132167   3.321   4.926   0.288  0.2734 -0.5273 -0.2642
   39MOL   C17232168   3.182   4.988   0.320 -1.0275  0.5762 -0.3153
   39MOL   C17332169   3.060   4.919   0.256 -0.6956  0.1778  0.4882
   39MOL   C17432170   2.939   5.008   0.266  0.1213 -0.3537  0.8123
   39MOL   C17532171   2.823   4.932   0.204  0.0474  0.0797  0.0813
   39MOL   C17632172   2.698   5.017   0.181  0.4279 -0.3252  0.2350
   39MOL   C17732173   2.576   4.953   0.110  0.2812  0.5508 -0.2742
   39MOL   C17832174   2.512   4.838   0.186  0.1451 -0.5026 -0.0735
   39MOL   C17932175   2.374   4.786   0.134 -0.3446 -0.3050 -1.1348
   39MOL   C18032176   2.386   4.722   7.688 -0.9734  0.9364  0.7834
   39MOL   C18132177   2.285   4.607   7.665 -0.0787  0.2391 -0.4140
   39MOL   C18232178   2.137   4.659   7.664 -0.4872  0.3765  0.1363
   39MOL   C18332179   2.033   4.553   7.668 -0.4959 -0.2007 -0.1914
   39MOL   H18432180   3.352   4.828   0.107  2.2271 -0.3833 -0.8033
   39MOL   H18532181   3.269   4.974   0.086  0.3520 -0.0388 -0.5184
   39MOL   H18632182   3.385   5.008   0.317  0.2995 -0.9596  0.9176
   39MOL   H18732183   3.163   4.997   0.427 -1.5025 -0.1804 -0.3303
   39MOL   H18832184   3.189   5.093   0.290  0.3418  0.9008  1.0925
   39MOL   H18932185   3.076   4.901   0.150 -1.0560  0.4081  0.3929
   39MOL   H19032186   3.050   4.826   0.312  0.7172 -0.6442 -0.5646
   39MOL   H19132187   2.922   5.035   0.370  0.0132  1.7928  0.2584
   39MOL   H19232188   2.954   5.104   0.216  0.4443 -0.2195  1.1684
   39MOL   H19332189   2.797   4.850   0.270  0.9995 -0.5581 -0.3168
   39MOL   H19432190   2.846   4.894   0.104  0.2493 -1.4699  0.7037
   39MOL   H19532191   2.727   5.105   0.124  0.5597 -0.3495  0.2660
   39MOL   H19632192   2.670   5.060   0.277  0.7869 -0.8850  0.5957
   39MOL   H19732193   2.611   4.930   0.010  1.1632 -2.4818  0.6843
   39MOL   H19832194   2.511   5.041   0.114 -0.1801  0.1678  1.3219
   39MOL   H19932195   2.482   4.867   0.287 -1.1297 -1.8494 -0.0475
   39MOL   H20032196   2.582   4.756   0.202  0.1005 -0.2400  1.5470
   39MOL   H20132197   2.307   4.871   0.135  0.0425  0.0001 -0.7672
   39MOL   H20232198   2.336   4.730   0.220  1.3038 -0.3473 -0.4206
   39MOL   H20332199   2.487   4.684   7.678 -0.8400  2.0671 -2.8186
   39MOL   H20432200   2.384   4.797   7.610  0.7295  1.7675  1.5239
   39MOL   H20532201   2.321   4.551   7.579 -3.1575 -0.0320 -1.6140
   39MOL   H20632202   2.289   4.543   0.057  3.2372  0.7804 -0.1195
   39MOL   H20732203   2.125   4.734   0.047 -2.1204  0.7248 -0.4213
   39MOL   H20832204   2.123   4.702   7.565  0.4318 -1.9395 -1.0541
   39MOL   H20932205   1.932   4.590   7.652 -0.7561 -1.4898 -1.6902
   39MOL   H21032206   2.031   4.506   0.071 -1.5990  0.8302  0.2894
   39MOL   H21132207   2.056   4.470   7.600 -2.4907 -2.0174  1.2576
   39MOL   C21232208   3.342   4.796   0.361 -0.1661 -0.2920  0.1406
   39MOL   C21332209   3.489   4.744   0.360 -0.3138  0.7104 -0.1617
   39MOL   C21432210   3.590   4.839   0.441 -0.9994 -0.5687 -0.1003
   39MOL   C21532211   3.559   4.878   0.588 -0.1660 -0.3947 -0.1631
   39MOL   C21632212   3.657   4.983   0.649 -0.0193  0.9181  0.0136
   39MOL   C21732213   3.650   5.128   0.611 -0.0091 -0.4095 -0.0004
   39MOL   C21832214   3.756   5.224   0.675  0.2036  0.2495  0.7784
   39MOL   C21932215   3.733   5.364   0.617 -0.9201 -0.7540  0.9837
   39MOL   C22032216   3.841   5.450   0.669 -0.5212  0.3474 -0.3680
   39MOL   C22132217   3.832   5.593   0.607 -0.3542 -0.1095 -0.0973
   39MOL   C22232218   3.950   5.685   0.632 -0.0328  1.4188  0.7529
   39MOL   C22332219   3.918   5.833   0.580 -0.5533  0.5192  0.2516
   39MOL   C22432220   4.030   5.937   0.607  0.1797 -0.5541  0.2521
   39MOL   C22532221   4.147   5.928   0.510 -0.2137  0.1843  0.4056
   39MOL   H22632222   3.272   4.721   0.324 -1.7079  0.9219  0.5048
   39MOL   H22732223   3.314   4.819   0.464 -0.3455  2.3753 -0.4684
   39MOL   H22832224   3.526   4.751   0.258  1.3420  1.6509  0.4775
   39MOL   H22932225   3.689   4.793   0.447  0.0766  1.6784 -0.1370
   39MOL   H23032226   3.604   4.934   0.390  0.8170  0.4044  2.0988
   39MOL   H23132227   3.575   4.787   0.646  0.7503 -1.0951 -1.5139
   39MOL   H23232228   3.458   4.917   0.602 -0.5933 -1.6570  0.3894
   39MOL   H23332229   3.760   4.948   0.637 -0.2231  0.9082 -1.9835
   39MOL   H23432230   3.648   4.975   0.757  2.0884 -0.7904  0.1013
   39MOL   H23532231   3.554   5.177   0.630 -0.4929 -1.1582 -0.5100
   39MOL   H23632232   3.669   5.131   0.504  0.2563  0.7601  0.0744
   39MOL   H23732233   3.723   5.231   0.779 -1.2899  1.5403  0.2197
   39MOL   H23832234   3.861   5.194   0.666  0.7096  1.5772  1.9416
   39MOL   H23932235   3.740   5.359   0.509  0.4890 -1.8102  1.1058
   39MOL   H24032236   3.637   5.414   0.632 -0.0858  1.2619 -0.1933
   39MOL   H24132237   3.937   5.405   0.645 -0.1150  0.3566  1.1659
   39MOL   H24232238   3.826   5.461   0.777  0.4928  2.4356 -0.4262
   39MOL   H24332239   3.812   5.594   0.500 -2.1509  3.3033  0.2149
   39MOL   H24432240   3.744   5.635   0.656 -1.2049 -0.0770 -1.6207
   39MOL   H24532241   4.028   5.642   0.570 -0.7557  1.1393  0.0234
   39MOL   H24632242   3.979   5.677   0.737 -0.6507  1.4039  0.9279
   39MOL   H24732243   3.824   5.872   0.621 -1.2577  0.6622 -1.4674
   39MOL   H24832244   3.897   5.846   0.474  1.3645  2.1808  0.0447
   39MOL   H24932245   4.059   5.920   0.711  2.1865  0.6419 -0.0894
   39MOL   H25032246   3.983   6.035   0.597 -0.1483 -0.8063 -0.6726
   39MOL   H25132247   4.239   5.980   0.535  0.8262 -2.4327  2.1592
   39MOL   H25232248   4.174   5.823   0.497 -0.2125  0.3835 -1.4591
   39MOL   H25332249   4.110   5.976   0.419 -0.0441  0.2965  0.3962
   39MOL   C25432250   3.497   4.600   0.414  0.0913 -0.3229 -0.4556
   39MOL   C25532251   3.416   4.485   0.343  0.4968  0.2969  0.1293
   39MOL   C25632252   3.446   4.490   0.195 -0.5190 -0.1727 -0.2835
   39MOL   C25732253   3.594   4.460   0.157  0.0414  0.1192 -0.2790
   39MOL   C25832254   3.617   4.450   0.007  0.4558 -0.0260  0.7320
   39MOL   C25932255   3.605   4.587   7.635 -0.5088  0.1344 -0.1436
   39MOL   C26032256   3.621   4.572   7.476 -0.2891 -0.3890  0.0481
   39MOL   C26132257   3.504   4.514   7.399  0.0658 -0.4092  0.1372
   39MOL   C26232258   3.536   4.516   7.252  0.1335 -0.1198  0.1792
   39MOL   C26332259   3.441   4.446   7.160  0.0135  0.1564  0.1569
   39MOL   C26432260   3.488   4.464   7.013  0.1104  0.5727 -0.7423
   39MOL   C26532261   3.412   4.358   6.923 -0.6879  0.2476 -0.9271
   39MOL   C26632262   3.469   4.355   6.784 -0.6236  0.4027  0.0012
   39MOL   C26732263   3.395   4.458   6.703  0.0630  0.0021  0.6383
   39MOL   H26832264   3.458   4.609   0.516 -0.7427 -0.1226 -0.7882
   39MOL   H26932265   3.596   4.559   0.431 -0.5580 -1.5156  0.5631
   39MOL   H27032266   3.308   4.480   0.347  0.3212  3.5276  0.1979
   39MOL   H27132267   3.409   4.583   0.152  1.3989  1.0378  0.6531
   39MOL   H27232268   3.385   4.413   0.146  0.8098 -1.8156  0.5977
   39MOL   H27332269   3.625   4.367   0.203 -1.0342 -0.4234 -0.6204
   39MOL   H27432270   3.666   4.530   0.198 -0.0907 -1.8478  3.4429
   39MOL   H27532271   3.537   4.387   7.663  1.0045 -0.4519  0.2701
   39MOL   H27632272   3.706   4.388   7.685  0.1064 -0.1645 -0.6536
   39MOL   H27732273   3.689   4.646   7.674 -0.3427 -1.0528  1.3322
   39MOL   H27832274   3.515   4.638   7.666  0.5312  1.8364  0.1575
   39MOL   H27932275   3.646   4.674   7.447 -3.8794  0.5426  0.0268
   39MOL   H28032276   3.704   4.508   7.447  0.4861  0.9431 -0.7537
   39MOL   H28132277   3.407   4.561   7.415 -1.4058 -2.5660 -2.0087
   39MOL   H28232278   3.491   4.411   7.433 -1.1367  0.2134  1.6324
   39MOL   H28332279   3.544   4.616   7.211 -0.0789 -0.5415 -0.9158
   39MOL   H28432280   3.634   4.470   7.238  0.4625  0.8858 -0.8347
   39MOL   H28532281   3.341   4.488   7.165  0.2894  0.7302  0.8317
   39MOL   H28632282   3.433   4.340   7.183  0.4581  0.0195 -0.3020
   39MOL   H28732283   3.596   4.459   7.002  0.3953 -0.3620  1.9662
   39MOL   H28832284   3.463   4.565   6.981 -1.9391  0.6693  1.0023
   39MOL   H28932285   3.436   4.259   6.963 -1.6551  0.4450  0.1775
   39MOL   H29032286   3.303   4.367   6.923 -1.0135 -2.9022 -0.4435
   39MOL   H29132287   3.576   4.369   6.773 -0.3455 -1.6172 -0.0627
   39MOL   H29232288   3.429   4.261   6.746 -3.3082  1.3624  0.3626
   39MOL   H29332289   3.288   4.442   6.691  0.3561 -0.9628 -0.7891
   39MOL   H29432290   3.439   4.461   6.604  0.0125 -1.4638  0.5596
   39MOL   H29532291   3.407   4.556   6.749  0.1263  0.4202 -0.2516
   39MOL   C29632292   3.465   4.353   0.402 -0.5867 -0.1357  0.2501
   39MOL   C29732293   3.405   4.328   0.539 -0.0773  0.7325 -0.2828
   39MOL   C29832294   3.251   4.327   0.548 -0.3740 -0.3489 -0.3368
   39MOL   C29932295   3.170   4.220   0.466  0.5054 -0.2315 -0.5749
   39MOL   C30032296   3.029   4.195   0.526  0.8793 -0.5943  0.1231
   39MOL   C30132297   2.936   4.318   0.522 -0.3562  0.0715  0.1129
   39MOL   C30232298   2.898   4.350   0.380  0.2254 -0.3638  0.2980
   39MOL   C30332299   2.799   4.470   0.380 -0.6971  0.3574  0.2032
   39MOL   C30432300   2.718   4.495   0.260  0.2577 -0.0698 -0.1881
   39MOL   C30532301   2.693   4.378   0.160  1.2049 -0.1808  0.2564
   39MOL   C30632302   2.623   4.412   0.027 -0.1439 -0.0630 -0.3268
   39MOL   C30732303   2.716   4.489   7.632 -0.3410  0.5678 -0.1648
   39MOL   C30832304   2.651   4.512   7.488  0.0639 -0.3870 -0.4372
   39MOL   C30932305   2.723   4.616   7.405  0.7975  0.8053  1.5390
   39MOL   H31032306   3.574   4.351   0.412 -0.2618  1.6139 -2.5341
   39MOL   H31132307   3.450   4.272   0.331  0.6391  0.1447 -0.3451
   39MOL   H31232308   3.431   4.410   0.606  0.5957  0.5346 -0.3034
   39MOL   H31332309   3.212   4.426   0.524 -1.7672 -1.2361 -1.8010
   39MOL   H31432310   3.236   4.313   0.655 -1.0083 -3.8160 -0.8116
   39MOL   H31532311   3.234   4.133   0.474  1.5471  0.5569 -0.1355
   39MOL   H31632312   3.153   4.246   0.361 -3.1312 -1.8968 -0.4715
   39MOL   H31732313   2.994   4.102   0.480  1.6038 -1.8755  2.1295
   39MOL   H31832314   3.045   4.162   0.628  0.2578  1.2634  0.8413
   39MOL   H31932315   2.989   4.404   0.565  2.6839 -2.2876  1.2500
   39MOL   H32032316   2.849   4.297   0.584 -0.0992 -0.9787  0.1191
   39MOL   H32132317   2.986   4.362   0.317  1.3104 -0.0390  1.8366
   39MOL   H32232318   2.839   4.266   0.343 -1.6536  1.8063 -1.7788
   39MOL   H32332319   2.850   4.565   0.399 -1.1341  0.5153  0.5893
   39MOL   H32432320   2.731   4.466   0.465 -1.5188  0.1626 -0.4632
   39MOL   H32532321   2.623   4.539   0.291  0.5678 -1.2906  2.5668
   39MOL   H32632322   2.761   4.573   0.197  2.6495 -0.5324  0.8327
   39MOL   H32732323   2.631   4.303   0.208 -0.2976  1.4722  0.9490
   39MOL   H32832324   2.791   4.329   0.154  0.9589 -0.9700  2.4162
   39MOL   H32932325   2.535   4.472   0.050  0.9127  0.6955  1.8569
   39MOL   H33032326   2.597   4.313   7.685  0.1845 -1.5380  3.1116
   39MOL   H33132327   2.813   4.439   7.627 -1.4221 -1.8150  1.7759
   39MOL   H33232328   2.743   4.580   7.686  0.8501  0.2663 -0.2249
   39MOL   H33332329   2.546   4.536   7.500  0.1117 -0.9666  1.1655
   39MOL   H33432330   2.636   4.412   7.447 -0.9383 -0.8130  0.9319
   39MOL   H33532331   2.738   4.709   7.460 -2.5942  2.6051 -0.4425
   39MOL   H33632332   2.814   4.568   7.369 -0.4097 -1.0189  0.8572
   39MOL   H33732333   2.667   4.646   7.317 -0.0690  0.5301  1.9991
   39MOL   C33832334   3.462   4.190   0.599  0.0029 -0.2774 -0.4810
   39MOL   C33932335   3.603   4.196   0.659  0.1524  0.0803  0.2603
   39MOL   C34032336   3.645   4.309   0.756  0.6299  0.7142  0.2907
   39MOL   C34132337   3.547   4.323   0.877 -0.4764  0.3022  0.4015
   39MOL   C34232338   3.598   4.428   0.968  0.3747 -0.9004 -0.3093
   39MOL   C34332339   3.532   4.427   1.111  0.0350  0.1420 -0.2843
   39MOL   C34432340   3.599   4.519   1.212 -0.2430 -0.6431 -0.1761
   39MOL   C34532341   3.709   4.442   1.289 -1.0461  0.5119 -0.0210
   39MOL   C34632342   3.802   4.549   1.342 -0.2737 -0.3999 -0.4589
   39MOL   C34732343   3.921   4.484   1.407 -0.2745  0.5373 -0.4115
   39MOL   C34832344   4.009   4.592   1.463  0.1933 -0.1812  0.0143
   39MOL   C34932345   4.127   4.527   1.539  0.6998 -0.7430  0.8830
   39MOL   C35032346   4.213   4.637   1.599  0.3728  0.3778  0.1507
   39MOL   C35132347   4.335   4.581   1.668  0.6578 -0.0040 -0.2015
   39MOL   H35232348   3.405   4.164   0.688  1.3091  1.0286  0.8013
   39MOL   H35332349   3.448   4.105   0.533  1.1107 -0.4928 -0.4617
   39MOL   H35432350   3.664   4.204   0.569  0.2080 -1.4226  0.1551
   39MOL   H35532351   3.747   4.284   0.784  0.3067  0.1299  0.9796
   39MOL   H35632352   3.641   4.406   0.706  0.1533  1.0674  0.9907
   39MOL   H35732353   3.531   4.224   0.919 -0.2371 -1.1249 -2.7144
   39MOL   H35832354   3.443   4.350   0.862 -0.6699 -0.4551  0.3790
   39MOL   H35932355   3.591   4.526   0.921  1.5256 -1.2166 -1.1928
   39MOL   H36032356   3.705   4.407   0.975  0.4673  0.0534  1.2233
   39MOL   H36132357   3.431   4.466   1.099 -0.2891 -0.5041  0.3122
   39MOL   H36232358   3.529   4.323   1.145 -0.8648  0.6272  1.1700
   39MOL   H36332359   3.642   4.606   1.163 -0.5287  0.1911  1.0555
   39MOL   H36432360   3.522   4.560   1.277  1.0874  0.0413  0.9934
   39MOL   H36532361   3.663   4.383   1.369 -0.4009  0.0442  0.0081
   39MOL   H36632362   3.765   4.377   1.221  0.7682  0.1989  1.7440
   39MOL   H36732363   3.836   4.623   1.269  2.0097 -1.7416 -0.8241
   39MOL   H36832364   3.740   4.609   1.409 -0.3637  0.4966 -1.3318
   39MOL   H36932365   3.885   4.404   1.472  1.0724  2.7163  3.1481
   39MOL   H37032366   3.978   4.426   1.335  3.1280  1.5852  1.3487
   39MOL   H37132367   3.937   4.642   1.527  0.8968  0.1902  0.5091
   39MOL   H37232368   4.058   4.655   1.389  2.1593 -1.7175 -0.0595
   39MOL   H37332369   4.188   4.462   1.476 -0.2136 -0.0294 -0.7657
   39MOL   H37432370   4.086   4.462   1.616  0.4176  1.2180  2.4236
   39MOL   H37532371   4.259   4.698   1.521  3.4970 -0.2443  1.4677
   39MOL   H37632372   4.152   4.703   1.661  1.3722  2.2495 -0.8367
   39MOL   H37732373   4.311   4.517   1.754 -0.7972  2.8336  1.5969
   39MOL   H37832374   4.388   4.515   1.600  0.2588  1.5796 -2.0963
   39MOL   H37932375   4.398   4.659   1.709  0.1106 -0.2188  1.1028
   39MOL   C38032376   3.636   4.053   0.717  0.1684  0.1320  0.4496
   39MOL   C38132377   3.699   3.947   0.623  0.1032  0.2412 -0.7818
   39MOL   C38232378   3.852   3.954   0.633 -0.1695 -0.1244  0.4551
   39MOL   C38332379   3.906   4.096   0.600 -0.3457 -0.0872 -0.2163
   39MOL   C38432380   4.061   4.097   0.606  0.3841  0.4470  1.2724
   39MOL   C38532381   4.129   4.222   0.541 -0.0719  0.9785  0.3593
   39MOL   C38632382   4.094   4.354   0.607  0.2909 -0.4224  0.4109
   39MOL   C38732383   4.208   4.457   0.599  1.0573 -0.0532  0.3588
   39MOL   C38832384   4.319   4.427   0.707  0.3605  0.1623 -0.0938
   39MOL   C38932385   4.442   4.517   0.695  0.0284 -0.1585 -0.4567
   39MOL   C39032386   4.571   4.467   0.765 -0.1657 -0.0805 -0.3667
   39MOL   C39132387   4.692   4.559   0.789 -0.3535 -0.7518  1.4165
   39MOL   C39232388   4.804   4.551   0.689 -0.6116  0.2829  0.1054
   39MOL   C39332389   4.754   4.585   0.542  0.0575  0.8329 -0.9971
   39MOL   H39432390   3.550   4.004   0.762  2.0825 -3.5139  0.3788
   39MOL   H39532391   3.708   4.067   0.798  0.1764  0.8284  0.3257
   39MOL   H39632392   3.672   3.955   0.518  0.5357 -1.4625 -1.0448
   39MOL   H39732393   3.905   3.882   0.571 -0.8605 -0.0934 -0.1769
   39MOL   H39832394   3.883   3.924   0.733  2.5388 -0.2358 -0.3701
   39MOL   H39932395   3.864   4.181   0.653 -0.6567 -0.3203 -0.0904
   39MOL   H40032396   3.882   4.123   0.497  1.7355 -0.0579 -0.7359
   39MOL   H40132397   4.079   4.004   0.552 -0.8656  1.0652 -0.2461
   39MOL   H40232398   4.099   4.087   0.707 -1.2489  0.8488  1.9454
   39MOL   H40332399   4.103   4.227   0.435  0.9095 -0.8605 -0.0009
   39MOL   H40432400   4.235   4.196   0.541  0.4606  2.9261 -2.1077
   39MOL   H40532401   4.013   4.402   0.553  1.7201 -0.6549 -1.9589
   39MOL   H40632402   4.063   4.330   0.709  0.9181 -3.6929 -0.1119
   39MOL   H40732403   4.254   4.443   0.501  0.1360 -1.4077  0.1143
   39MOL   H40832404   4.170   4.559   0.608  1.2274 -0.0239  0.7592
   39MOL   H40932405   4.277   4.434   0.807  1.0876  0.1471  0.2126
   39MOL   H41032406   4.349   4.323   0.703  0.1564  0.1557 -1.9788
   39MOL   H41132407   4.411   4.612   0.737 -1.6201 -0.2587 -1.4197
   39MOL   H41232408   4.481   4.535   0.595  1.0542  1.2199  0.1720
   39MOL   H41332409   4.549   4.427   0.864 -0.5921  1.4964  0.1958
   39MOL   H41432410   4.606   4.374   0.722  0.9317  0.0568  0.2101
   39MOL   H41532411   4.721   4.540   0.893 -1.2940  0.0415  1.8356
   39MOL   H41632412   4.649   4.659   0.794 -0.9438 -0.8559 -1.3215
   39MOL   H41732413   4.882   4.613   0.733 -0.2000  0.5193 -0.9662
   39MOL   H41832414   4.845   4.450   0.690  1.2345  0.9831  3.5746
   39MOL   H41932415   4.698   4.678   0.553 -0.4260  0.6561 -1.8622
   39MOL   H42032416   4.704   4.507   0.484  0.5100  0.8042 -1.3538
   39MOL   H42132417   4.846   4.599   0.485 -0.3926  0.4938 -1.8209
   39MOL   C42232418   3.662   3.805   0.667 -0.1260  0.0533  0.1703
   39MOL   C42332419   3.517   3.761   0.636 -0.0387 -0.4253 -0.5249
   39MOL   C42432420   3.493   3.740   0.481  0.3128  0.0257 -0.1205
   39MOL   C42532421   3.343   3.746   0.447 -0.0343 -0.5700 -0.1578
   39MOL   C42632422   3.301   3.744   0.295 -0.1496 -0.0975 -0.1192
   39MOL   C42732423   3.144   3.729   0.276 -1.2331  0.1082 -0.9711
   39MOL   C42832424   3.102   3.693   0.127  0.3864 -0.2365 -0.1671
   39MOL   C42932425   2.947   3.681   0.105 -0.7269 -0.3092  0.6723
   39MOL   C43032426   2.888   3.534   0.115 -0.0528 -0.1177  0.2533
   39MOL   C43132427   2.732   3.530   0.131 -0.1432 -0.2692 -0.2921
   39MOL   C43232428   2.664   3.400   0.149 -0.0685  0.5942 -0.0761
   39MOL   C43332429   2.507   3.415   0.142 -0.5133 -0.3229  0.2325
   39MOL   C43432430   2.454   3.533   0.233 -0.1409  0.1185  0.7266
   39MOL   C43532431   2.295   3.542   0.248 -0.0880 -0.2250  0.3347
   39MOL   H43632432   3.686   3.804   0.774 -0.5957  3.0740  0.3712
   39MOL   H43732433   3.733   3.731   0.632 -0.2440  0.0358 -0.0312
   39MOL   H43832434   3.439   3.833   0.661 -0.4603 -0.8612 -0.5721
   39MOL   H43932435   3.553   3.662   0.435  1.6429  2.2552 -2.3428
   39MOL   H44032436   3.526   3.829   0.427 -0.1246 -1.7771 -3.4634
   39MOL   H44132437   3.304   3.661   0.504  1.2243 -0.6319  0.6411
   39MOL   H44232438   3.302   3.832   0.498  1.7785  0.8034 -0.9414
   39MOL   H44332439   3.364   3.663   0.257  1.3877  1.2065 -0.4126
   39MOL   H44432440   3.337   3.834   0.246  2.0673 -0.0110  1.6041
   39MOL   H44532441   3.094   3.816   0.317 -3.0396 -1.7982  0.9434
   39MOL   H44632442   3.112   3.655   0.348 -0.8043 -0.1950 -1.0870
   39MOL   H44732443   3.144   3.765   0.057  1.4822 -3.4157 -2.8959
   39MOL   H44832444   3.165   3.607   0.105 -0.5361 -0.6462 -1.2277
   39MOL   H44932445   2.885   3.749   0.164  1.1152  1.7829  0.2486
   39MOL   H45032446   2.923   3.698   0.000 -1.2855  2.2036  1.1891
   39MOL   H45132447   2.915   3.485   0.021  0.3697  0.4875  0.0527
   39MOL   H45232448   2.929   3.477   0.198  2.8104  0.4966 -0.6780
   39MOL   H45332449   2.698   3.603   0.203 -1.7557 -0.7627 -0.5241
   39MOL   H45432450   2.696   3.578   0.040 -0.0451 -1.2379 -0.8571
   39MOL   H45532451   2.684   3.328   0.071 -1.5933 -0.7284  0.7420
   39MOL   H45632452   2.705   3.352   0.238 -0.8233  0.0081 -0.0473
   39MOL   H45732453   2.463   3.325   0.185  0.3488  0.2092  2.2571
   39MOL   H45832454   2.464   3.420   0.042  1.8248  1.8922 -0.7242
   39MOL   H45932455   2.489   3.555   0.334  0.7598 -0.2678  0.5118
   39MOL   H46032456   2.478   3.628   0.186 -0.9873  0.3238  0.7059
   39MOL   H46132457   2.244   3.504   0.160 -0.3591  0.3934  0.2217
   39MOL   H46232458   2.269   3.643   0.279 -1.0479 -0.4662  0.3063
   39MOL   H46332459   2.272   3.482   0.336  0.8410  0.1319  0.8334
   39MOL   C46432460   3.480   3.631   0.719 -0.1329  0.5485  0.1301
   39MOL   C46532461   3.462   3.638   0.877  0.6105  0.2190  0.7487
   39MOL   C46632462   3.312   3.640   0.918  0.0607  0.1900 -0.0800
   39MOL   C46732463   3.225   3.766   0.870  0.7741 -0.3056 -0.9872
   39MOL   C46832464   3.272   3.902   0.921 -0.1935  0.6150  0.6910
   39MOL   C46932465   3.285   3.927   1.077 -0.0329  0.1831  0.0999
   39MOL   C47032466   3.330   4.078   1.106 -0.4759  0.0198  0.6024
   39MOL   C47132467   3.287   4.121   1.249 -0.0108  0.2364  0.7301
   39MOL   C47232468   3.369   4.059   1.368  0.3570 -0.0989  0.5965
   39MOL   C47332469   3.511   4.105   1.389  0.3445 -0.1159  0.2589
   39MOL   C47432470   3.607   4.008   1.313 -0.2130 -0.5464  1.0957
   39MOL   C47532471   3.753   4.048   1.290 -0.4719 -0.4837  0.6958
   39MOL   C47632472   3.827   4.089   1.422 -0.2980  0.3213  0.0935
   39MOL   C47732473   3.983   4.090   1.400  0.2895  0.9913 -0.2562
   39MOL   H47832474   3.548   3.551   0.689 -0.7720 -0.4478  1.3108
   39MOL   H47932475   3.389   3.583   0.682  0.6129 -0.9471  0.1799
   39MOL   H48032476   3.506   3.731   0.915  2.6130 -0.2114 -0.4269
   39MOL   H48132477   3.271   3.551   0.870  1.0622 -1.9943  2.9609
   39MOL   H48232478   3.296   3.649   1.026 -1.2068  0.0873 -0.2506
   39MOL   H48332479   3.122   3.760   0.906  0.4667  1.2101 -1.5570
   39MOL   H48432480   3.205   3.760   0.763  1.1303 -2.0736 -0.9722
   39MOL   H48532481   3.213   3.987   0.887  2.3221  1.4190 -1.7798
   39MOL   H48632482   3.363   3.924   0.865  0.4750  1.9803  2.2511
   39MOL   H48732483   3.193   3.907   1.132  0.9896  1.0596  2.1927
   39MOL   H48832484   3.363   3.859   1.110 -0.0104  0.5805  0.8644
   39MOL   H48932485   3.436   4.096   1.087  0.0705 -2.5433  1.0138
   39MOL   H49032486   3.292   4.148   1.032 -0.1404 -0.4997 -0.0742
   39MOL   H49132487   3.284   4.230   1.251  0.2704  0.2354  1.7128
   39MOL   H49232488   3.181   4.107   1.265 -0.0115  1.4022  1.8733
   39MOL   H49332489   3.320   4.082   1.463  2.7355 -2.1416  2.3906
   39MOL   H49432490   3.347   3.953   1.381  3.1026 -0.8854 -0.8462
   39MOL   H49532491   3.517   4.212   1.371  2.2292 -0.2262  0.1232
   39MOL   H49632492   3.536   4.106   1.495 -0.1467  1.3478  0.3718
   39MOL   H49732493   3.624   3.921   1.376 -0.0837 -2.1619 -1.1276
   39MOL   H49832494   3.567   3.957   1.225 -0.5364 -1.2216  1.6310
   39MOL   H49932495   3.758   4.127   1.215 -0.1506 -0.8436  0.3401
   39MOL   H50032496   3.805   3.963   1.246 -0.8732 -1.0368  1.2946
   39MOL   H50132497   3.796   4.189   1.454 -1.9632  0.7584 -2.6650
   39MOL   H50232498   3.808   4.019   1.502 -2.5597 -0.0421 -0.7153
   39MOL   H50332499   4.036   4.112   1.492  0.4279  1.2682 -0.4013
   39MOL   H50432500   4.019   3.994   1.362  0.6222  0.5459  1.1656
   39MOL   H50532501   4.003   4.162   1.321 -0.1877  1.8329  0.3828
   39MOL   C50632502   3.531   3.525   0.953 -0.4110 -0.2873  0.3243
   39MOL   C50732503   3.685   3.531   0.944 -0.1054  0.0012 -0.5529
   39MOL   C50832504   3.738   3.644   1.042 -0.2519 -0.2987 -0.0540
   39MOL   C50932505   3.892   3.659   1.060 -0.6029  0.0486 -0.5496
   39MOL   C51032506   3.965   3.725   0.934  0.4706  0.0348 -0.4905
   39MOL   C51132507   4.114   3.728   0.938  0.5520  0.3959  0.0124
   39MOL   C51232508   4.177   3.588   0.923 -0.2226  0.2379  0.4302
   39MOL   C51332509   4.324   3.590   0.956 -0.1859 -0.1976 -0.1165
   39MOL   C51432510   4.391   3.453   0.948  0.1774  0.6401 -0.6731
   39MOL   C51532511   4.352   3.344   1.051 -0.1662 -0.1789 -0.1650
   39MOL   C51632512   4.419   3.210   1.050 -0.2928 -0.4238  0.4524
   39MOL   C51732513   4.565   3.214   1.101 -0.3171  0.5293  0.1103
   39MOL   C51832514   4.647   3.087   1.069  0.3992  0.0385 -0.7982
   39MOL   C51932515   4.786   3.092   1.143 -0.5231 -0.5314  0.5206
   39MOL   H52032516   3.486   3.429   0.927  0.0899 -0.1144 -1.2246
   39MOL   H52132517   3.508   3.534   1.059 -1.4533 -2.2610  0.2949
   39MOL   H52232518   3.725   3.572   0.851 -0.2395  0.6003 -0.3441
   39MOL   H52332519   3.705   3.736   0.993  0.1057 -0.1307  0.0186
   39MOL   H52432520   3.689   3.630   1.139 -0.3406 -0.2964 -0.0983
   39MOL   H52532521   3.910   3.728   1.143  2.8817 -1.9826  0.5045
   39MOL   H52632522   3.931   3.562   1.090  0.3513  0.5790 -0.0515
   39MOL   H52732523   3.922   3.825   0.929  0.0120 -0.2464 -2.4413
   39MOL   H52832524   3.931   3.688   0.837 -0.5774 -1.6353  0.4745
   39MOL   H52932525   4.146   3.770   1.034 -0.0474 -1.8268  1.2230
   39MOL   H53032526   4.150   3.800   0.865 -0.4579  0.2769 -0.6075
   39MOL   H53132527   4.131   3.527   1.001  0.1308 -1.5400 -0.7188
   39MOL   H53232528   4.144   3.540   0.831 -0.4477 -1.0095  1.1416
   39MOL   H53332529   4.353   3.623   1.055 -2.2150 -1.8312  1.0519
   39MOL   H53432530   4.371   3.661   0.888 -2.6004  0.2848 -1.3143
   39MOL   H53532531   4.494   3.488   0.954  0.1938  0.6955 -1.2958
   39MOL   H53632532   4.371   3.409   0.851 -0.0323  0.9076 -0.7518
   39MOL   H53732533   4.356   3.380   1.154 -1.4854 -1.3886  0.3243
   39MOL   H53832534   4.246   3.322   1.042 -0.2728 -0.9082  2.5290
   39MOL   H53932535   4.373   3.139   1.119 -1.1899  0.7615  1.0765
   39MOL   H54032536   4.396   3.162   0.955 -0.8235  0.6454  0.0388
   39MOL   H54132537   4.576   3.228   1.208  2.5460  0.0541 -0.0633
   39MOL   H54232538   4.625   3.296   1.059  1.3517 -0.4402  0.5505
   39MOL   H54332539   4.652   3.082   0.960  0.1611 -0.1312 -0.8033
   39MOL   H54432540   4.585   3.008   1.112 -0.7563  1.5918  0.4088
   39MOL   H54532541   4.839   3.181   1.108 -2.0203  0.0236 -0.3952
   39MOL   H54632542   4.780   3.097   1.252 -1.7556 -1.4566  0.4995
   39MOL   H54732543   4.850   3.008   1.119  1.1526  0.4465  1.4479
   39MOL   C54832544   3.747   3.398   0.978  0.0489 -0.0073  0.3147
   39MOL   C54932545   3.834   3.346   0.873 -0.3079  0.5423 -0.2786
   39MOL   C55032546   3.947   3.255   0.945 -0.1214 -0.0180  0.0434
   39MOL   C55132547   3.910   3.123   1.017 -0.1231 -0.2868  0.0781
   39MOL   C55232548   4.020   3.038   1.073 -0.6163  0.5968 -0.2239
   39MOL   C55332549   4.097   2.951   0.971  0.0049  0.0295  0.5546
   39MOL   C55432550   4.162   2.825   1.036  0.2308  0.9573 -0.1924
   39MOL   C55532551   4.196   2.717   0.935 -0.0363 -0.4597 -0.6950
   39MOL   C55632552   4.250   2.591   0.999  0.1097 -0.2110 -0.3525
   39MOL   C55732553   4.255   2.469   0.905  0.1898  0.8696 -0.2030
   39MOL   C55832554   4.256   2.331   0.980  0.7747  0.4591 -0.3881
   39MOL   C55932555   4.276   2.206   0.895 -0.4198 -0.3084  0.5645
   39MOL   C56032556   4.409   2.184   0.823  0.0221 -1.1400 -0.2355
   39MOL   C56132557   4.398   2.049   0.751  0.3593  0.5782  0.8961
   39MOL   H56232558   3.787   3.403   1.080  0.3162  0.5582  0.1854
   39MOL   H56332559   3.670   3.323   0.997  1.4444 -1.2928  1.0563
   39MOL   H56432560   3.888   3.431   0.832 -0.1863  0.3526 -0.5112
   39MOL   H56532561   4.028   3.238   0.873 -1.8190  0.5404 -2.0665
   39MOL   H56632562   4.004   3.321   1.010 -1.4588 -0.0199  1.2245
   39MOL   H56732563   3.852   3.065   0.945 -0.6340  1.3022 -0.8125
   39MOL   H56832564   3.849   3.166   1.096  1.1876 -0.7786  1.3890
   39MOL   H56932565   4.087   3.111   1.118  1.4224 -1.6719  0.5509
   39MOL   H57032566   3.968   2.980   1.149 -0.4946  1.3646  0.4559
   39MOL   H57132567   4.168   3.013   0.917 -0.4658 -0.4679 -0.6562
   39MOL   H57232568   4.036   2.919   0.887  0.3934 -1.8615  0.9764
   39MOL   H57332569   4.246   2.869   1.090  2.1792  0.0899 -2.4285
   39MOL   H57432570   4.095   2.785   1.111 -0.2889  1.6443 -0.2847
   39MOL   H57532571   4.271   2.762   0.870 -0.3874 -0.2834 -0.9732
   39MOL   H57632572   4.106   2.699   0.877 -0.7330  0.6030  0.0297
   39MOL   H57732573   4.179   2.550   1.071 -2.0669  1.6945 -1.3557
   39MOL   H57832574   4.342   2.615   1.051 -0.4264 -2.8556  1.9905
   39MOL   H57932575   4.164   2.460   0.845  1.3644 -1.7144 -1.7102
   39MOL   H58032576   4.333   2.489   0.832 -0.2718 -0.7376 -1.1752
   39MOL   H58132577   4.161   2.323   1.032  0.8139 -1.4425 -0.5844
   39MOL   H58232578   4.332   2.345   1.056 -0.4498  1.4257  0.6885
   39MOL   H58332579   4.276   2.125   0.969 -1.6578 -0.9014 -0.0681
   39MOL   H58432580   4.192   2.197   0.827  0.0135 -1.1583  0.1262
   39MOL   H58532581   4.431   2.266   0.754 -2.8630 -0.7289 -0.6959
   39MOL   H58632582   4.488   2.177   0.898 -1.1538  0.2720  1.1493
   39MOL   H58732583   4.297   2.024   0.719  0.7474  0.7510 -0.4671
   39MOL   H58832584   4.473   2.024   0.677  1.4177  1.9895  1.4725
   39MOL   H58932585   4.415   1.968   0.823  2.4535 -0.1004 -0.3454
   39MOL   C59032586   3.755   3.284   0.752  0.0779 -0.7433 -0.2867
   39MOL   C59132587   3.830   3.289   0.620 -0.1426  0.2880 -0.3453
   39MOL   C59232588   3.816   3.166   0.538 -0.3535 -0.4289 -0.2177
   39MOL   C59332589   3.888   3.053   0.609 -0.2938  0.9218  0.8678
   39MOL   C59432590   3.945   2.950   0.513  0.3324 -0.0879 -0.1255
   39MOL   C59532591   4.018   2.834   0.577 -0.2398  0.2577  0.4218
   39MOL   C59632592   4.077   2.741   0.468 -0.4009 -0.0751 -0.6086
   39MOL   C59732593   4.131   2.619   0.530 -1.1101  0.4515  0.0411
   39MOL   C59832594   4.184   2.523   0.419  0.3003  0.5599  0.3578
   39MOL   C59932595   4.246   2.394   0.475  0.0462  0.7452 -0.2287
   39MOL   C60032596   4.288   2.298   0.369 -0.3404  0.0740  0.1951
   39MOL   C60132597   4.345   2.163   0.416  0.1133  0.3633 -0.1368
   39MOL   C60232598   4.387   2.062   0.311  0.0125 -1.0625  0.3824
   39MOL   C60332599   4.448   1.935   0.374  0.4381  0.4261 -0.1329
   39MOL   H60432600   3.663   3.343   0.745  0.2477 -0.7072 -2.4397
   39MOL   H60532601   3.705   3.192   0.781 -2.0172  0.1569 -0.9603
   39MOL   H60632602   3.935   3.304   0.646  0.1839 -1.2574 -0.7271
   39MOL   H60732603   3.874   3.173   0.446  0.9028  0.0941  0.5994
   39MOL   H60832604   3.713   3.154   0.504 -0.3869 -1.5557  0.2314
   39MOL   H60932605   3.826   2.989   0.671 -0.2256 -0.6617 -0.6688
   39MOL   H61032606   3.962   3.094   0.678 -0.3408 -0.1497  1.5641
   39MOL   H61132607   4.028   2.999   0.462  2.5745 -1.1100  2.4624
   39MOL   H61232608   3.863   2.918   0.449  0.9642 -0.6230 -0.6808
   39MOL   H61332609   3.948   2.775   0.636  2.2899 -1.2552  2.0281
   39MOL   H61432610   4.101   2.878   0.632  0.6687 -2.2925  1.1987
   39MOL   H61532611   4.006   2.720   0.388 -0.0977 -1.2020 -0.5941
   39MOL   H61632612   4.151   2.790   0.405  0.0851  1.3710  1.0489
   39MOL   H61732613   4.213   2.639   0.599 -1.6393  1.5680  0.3609
   39MOL   H61832614   4.059   2.568   0.594 -0.4443  0.3434  0.7208
   39MOL   H61932615   4.104   2.492   0.353  2.1057 -2.2473 -0.5980
   39MOL   H62032616   4.264   2.571   0.362  0.8063  0.1095  0.6805
   39MOL   H62132617   4.325   2.408   0.549 -2.5687  0.0838  2.7950
   39MOL   H62232618   4.156   2.356   0.523 -0.2941 -0.6766 -1.9385
   39MOL   H62332619   4.365   2.349   0.310  0.5545 -1.1291  0.3121
   39MOL   H62432620   4.209   2.270   0.300  0.7855  1.4708 -1.7344
   39MOL   H62532621   4.261   2.116   0.468  0.3874 -1.1364 -1.0160
   39MOL   H62632622   4.428   2.187   0.481 -0.8662  1.7332  0.6342
   39MOL   H62732623   4.303   2.042   0.244 -0.6166  0.5114  0.6809
   39MOL   H62832624   4.460   2.116   0.250  0.3044 -1.1101  0.6940
   39MOL   H62932625   4.519   1.951   0.455 -0.3749 -2.2829  1.1754
   39MOL   H63032626   4.496   1.870   0.301  1.5153 -0.7938  1.6308
   39MOL   H63132627   4.360   1.878   0.406  2.0766 -3.1808 -1.7564
   39MOL   C63232628   3.798   3.420   0.539  0.0080 -0.1731 -0.0305
   39MOL   C63332629   3.902   3.456   0.429  0.0395  0.8657  0.6773
   39MOL   C63432630   3.845   3.511   0.301 -0.4745  0.0562  0.1048
   39MOL   C63532631   3.781   3.395   0.218  0.0508 -0.0486 -0.2622
   39MOL   C63632632   3.728   3.435   0.076 -1.2092  0.2840  0.1993
   39MOL   C63732633   3.603   3.527   0.093 -0.5028  0.2762  0.4156
   39MOL   C63832634   3.527   3.536   7.653 -0.6928 -0.0084 -0.5613
   39MOL   C63932635   3.417   3.641   7.661  0.4089 -0.4160 -0.0670
   39MOL   C64032636   3.353   3.665   7.521  0.4665 -0.0395 -0.2261
   39MOL   C64132637   3.439   3.739   7.410  0.3380 -0.0726 -0.1412
   39MOL   C64232638   3.484   3.878   7.468  0.3534  0.6268  0.5761
   39MOL   C64332639   3.537   3.973   7.364 -0.2253 -0.0088  0.1739
   39MOL   C64432640   3.599   4.101   7.420 -0.5126  0.4111 -0.2347
   39MOL   C64532641   3.655   4.199   7.312 -0.4514  0.2330  0.1772
   39MOL   H64632642   3.789   3.510   0.600  3.1509  0.1690  0.0202
   39MOL   H64732643   3.697   3.409   0.502 -0.0826  1.4792 -0.2929
   39MOL   H64832644   3.955   3.367   0.399 -0.8213  1.0105 -1.3319
   39MOL   H64932645   3.768   3.587   0.312  0.1137  0.8520 -1.1775
   39MOL   H65032646   3.927   3.550   0.240  1.4007 -2.2392  1.0911
   39MOL   H65132647   3.695   3.353   0.270  1.2245 -0.5574  1.3350
   39MOL   H65232648   3.851   3.312   0.210 -0.1211 -0.1029 -1.1945
   39MOL   H65332649   3.704   3.352   0.010 -1.1811 -0.4980  1.1512
   39MOL   H65432650   3.810   3.484   0.023  0.8986 -1.2642  1.9167
   39MOL   H65532651   3.537   3.497   0.174 -0.3807  1.0191  0.7954
   39MOL   H65632652   3.644   3.627   0.109  0.1353  0.2160 -0.8531
   39MOL   H65732653   3.607   3.554   7.581  0.7793  1.8865  1.4511
   39MOL   H65832654   3.486   3.440   7.622  1.2491 -0.9081 -0.4204
   39MOL   H65932655   3.457   3.739   7.686 -1.6787  0.2119  0.8727
   39MOL   H66032656   3.341   3.611   0.037  0.5186 -1.4185 -0.3632
   39MOL   H66132657   3.263   3.725   7.530  1.2602  0.9532  1.4711
   39MOL   H66232658   3.336   3.563   7.485  0.8149  0.0295 -0.5889
   39MOL   H66332659   3.526   3.679   7.383  2.0595  1.2207  2.3455
   39MOL   H66432660   3.390   3.760   7.315  2.9008 -0.2562 -1.5496
   39MOL   H66532661   3.404   3.930   7.520 -1.1068  0.1403 -1.1558
   39MOL   H66632662   3.556   3.847   7.544  1.1089 -1.6986 -1.0295
   39MOL   H66732663   3.461   4.004   7.292  2.2928 -0.3989 -2.7504
   39MOL   H66832664   3.615   3.912   7.319  0.6040 -0.4718  2.1860
   39MOL   H66932665   3.672   4.062   7.492 -0.1515 -0.7581 -1.2193
   39MOL   H67032666   3.521   4.153   7.475 -1.3375  0.0151 -1.0147
   39MOL   H67132667   3.733   4.154   7.252 -0.0350 -0.1164  0.9654
   39MOL   H67232668   3.576   4.205   7.237  0.1821  1.6069 -0.3990
   39MOL   H67332669   3.686   4.299   7.345  1.6904 -0.1142 -0.6840
   39MOL   C67432670   4.014   3.552   0.487 -0.1931 -0.0506 -0.7595
   39MOL   C67532671   4.152   3.514   0.440 -0.8364 -0.9155  0.4520
   39MOL   C67632672   4.254   3.634   0.438  0.2457 -0.2460  0.3097
   39MOL   C67732673   4.221   3.739   0.340  0.2199  0.3655 -0.1322
   39MOL   C67832674   4.330   3.841   0.323  0.2635 -0.6937 -0.5301
   39MOL   C67932675   4.300   3.931   0.202  0.3621 -0.0618  0.3566
   39MOL   C68032676   4.173   4.011   0.217 -0.0688  0.2639 -0.0860
   39MOL   C68132677   4.147   4.103   0.096  0.1964 -0.8889 -0.4042
   39MOL   C68232678   4.043   4.212   0.124  0.1388  0.2970  0.4824
   39MOL   C68332679   3.913   4.170   0.198 -0.1567 -0.5109  0.1968
   39MOL   C68432680   3.811   4.097   0.110 -0.5273 -0.4242  0.2474
   39MOL   C68532681   3.710   4.032   0.204  0.3583 -0.1823 -0.1238
   39MOL   C68632682   3.589   3.974   0.137 -0.6617  0.4010 -0.1627
   39MOL   C68732683   3.493   4.085   0.092  0.1676 -0.2657 -0.7655
   39MOL   H68832684   4.007   3.545   0.595 -1.3514 -2.0507 -0.9334
   39MOL   H68932685   3.990   3.655   0.461 -4.1127 -0.6534  0.2117
   39MOL   H69032686   4.156   3.488   0.334 -2.7247  1.5250 -0.2543
   39MOL   H69132687   4.259   3.690   0.531  0.3365  0.3745 -0.0611
   39MOL   H69232688   4.357   3.606   0.416  0.6990  1.5218  0.0998
   39MOL   H69332689   4.176   3.691   0.253 -0.8244  1.4284 -0.1844
   39MOL   H69432690   4.129   3.791   0.370  0.1523 -0.0256  0.3484
   39MOL   H69532691   4.340   3.903   0.411  2.9323  0.5052 -1.6016
   39MOL   H69632692   4.425   3.788   0.311  1.1238  0.2473  1.8062
   39MOL   H69732693   4.387   3.993   0.184  0.5873 -0.4227  0.2053
   39MOL   H69832694   4.288   3.864   0.117 -0.1993  0.5861 -0.0767
   39MOL   H69932695   4.086   3.949   0.236 -0.4614  0.8697  0.1267
   39MOL   H70032696   4.181   4.073   0.307 -0.0300  0.0827  0.0370
   39MOL   H70132697   4.234   4.152   0.054  0.0697  0.0659  0.4181
   39MOL   H70232698   4.105   4.042   0.016 -2.3781  2.0349 -1.4192
   39MOL   H70332699   4.086   4.300   0.172 -0.1149  0.5545  0.2431
   39MOL   H70432700   4.012   4.243   0.024  0.6402 -0.4106  0.1012
   39MOL   H70532701   3.865   4.261   0.234 -1.6755 -0.5358 -1.7134
   39MOL   H70632702   3.931   4.118   0.293 -0.5547 -0.6425  0.1984
   39MOL   H70732703   3.853   4.020   0.046  0.5557 -1.0649  1.7136
   39MOL   H70832704   3.764   4.172   0.045 -1.1068 -0.2414  0.8808
   39MOL   H70932705   3.671   4.106   0.274 -0.2564  0.8824 -1.5618
   39MOL   H71032706   3.757   3.955   0.265  0.0570  0.2074  0.6039
   39MOL   H71132707   3.624   3.904   0.061 -1.5745  0.3444 -0.5366
   39MOL   H71232708   3.540   3.912   0.211 -2.8362 -0.4857 -2.2743
   39MOL   H71332709   3.535   4.126   0.000  0.5136 -1.2100 -1.0312
   39MOL   H71432710   3.405   4.034   0.053 -0.7928  0.2219  0.7461
   39MOL   H71532711   3.474   4.163   0.166 -0.4316 -1.7544  0.6791
   39MOL   C71632712   4.220   3.397   0.524  0.1194 -0.2586 -0.4631
   39MOL   C71732713   4.294   3.297   0.442 -0.5441 -0.2049  0.6010
   39MOL   C71832714   4.376   3.194   0.531 -0.0558  0.2931  0.1071
   39MOL   C71932715   4.293   3.105   0.625  0.2601  0.6613  0.8067
   39MOL   C72032716   4.381   3.000   0.700  0.2645  1.0787  0.5457
   39MOL   C72132717   4.440   2.886   0.616 -0.2472  0.1267 -0.1055
   39MOL   C72232718   4.525   2.775   0.696  0.2289 -0.2322  0.2068
   39MOL   C72332719   4.542   2.640   0.622 -0.3055  0.1032  0.6545
   39MOL   C72432720   4.628   2.540   0.705 -0.0937  0.0689  0.1431
   39MOL   C72532721   4.676   2.424   0.609  0.5682  0.2688  0.2762
   39MOL   C72632722   4.765   2.464   0.489 -0.0443  0.0417 -0.0529
   39MOL   C72732723   4.825   2.337   0.419 -0.0956  0.4613 -0.3042
   39MOL   C72832724   4.715   2.263   0.339  0.2529  0.2750 -0.9377
   39MOL   C72932725   4.768   2.143   0.261  0.0426  0.1399  0.2013
   39MOL   H73032726   4.285   3.437   0.602  0.2080 -2.3591  0.5714
   39MOL   H73132727   4.136   3.346   0.572 -0.1099 -0.2450 -0.8483
   39MOL   H73232728   4.365   3.356   0.383  1.3071 -0.6557  2.3305
   39MOL   H73332729   4.445   3.257   0.587 -1.5943  1.7353  0.4063
   39MOL   H73432730   4.441   3.136   0.466 -1.1725 -1.2100  0.3036
   39MOL   H73532731   4.234   3.159   0.699  1.3761  2.7174  0.2366
   39MOL   H73632732   4.220   3.054   0.561 -0.2600 -0.0003  1.9180
   39MOL   H73732733   4.466   3.052   0.744  1.8821 -0.4792 -0.6372
   39MOL   H73832734   4.326   2.951   0.780  0.5909  0.4972  0.4236
   39MOL   H73932735   4.360   2.834   0.563 -1.0110 -1.1336  2.1922
   39MOL   H74032736   4.512   2.925   0.544  2.5570  0.2617  2.6885
   39MOL   H74132737   4.614   2.822   0.735 -0.2231  2.0914 -1.4460
   39MOL   H74232738   4.468   2.741   0.783  0.3643  0.1696  0.4507
   39MOL   H74332739   4.591   2.664   0.528 -0.8106  1.3971  0.7198
   39MOL   H74432740   4.447   2.589   0.603  0.0238 -0.1046 -0.5103
   39MOL   H74532741   4.720   2.587   0.740  1.0262 -1.6801 -0.3918
   39MOL   H74632742   4.579   2.499   0.794 -1.6136  0.5374 -0.4486
   39MOL   H74732743   4.738   2.366   0.676  1.9128  1.3097 -0.0386
   39MOL   H74832744   4.607   2.348   0.574  0.7757  0.0665  0.3081
   39MOL   H74932745   4.708   2.534   0.428 -0.9465  0.3369  1.1121
   39MOL   H75032746   4.852   2.525   0.512  0.0103  1.6579 -4.1689
   39MOL   H75132747   4.904   2.363   0.348 -1.7041  1.6260 -1.6877
   39MOL   H75232748   4.870   2.270   0.493 -0.0607  0.8626  0.0379
   39MOL   H75332749   4.657   2.317   0.265 -1.6455 -1.2150 -0.5750
   39MOL   H75432750   4.633   2.243   0.409  0.8871  3.0531  0.6920
   39MOL   H75532751   4.851   2.173   0.198 -0.1764 -0.0348 -0.1721
   39MOL   H75632752   4.687   2.112   0.195  1.4826  1.3683 -2.1853
   39MOL   H75732753   4.801   2.072   0.337 -3.0879 -0.8595  0.7338
   39MOL   C75832754   4.213   3.226   0.327  1.1518  0.1616 -0.1509
   39MOL   C75932755   4.282   3.103   0.256 -0.0185  0.0461 -0.8084
   39MOL   C76032756   4.190   3.033   0.158  0.2603  0.2697 -0.0741
   39MOL   C76132757   4.227   2.881   0.133  0.1979 -0.2392  0.5304
   39MOL   C76232758   4.105   2.801   0.072  0.2029 -0.3077 -0.0837
   39MOL   C76332759   4.119   2.649   0.042 -0.3130 -0.8678  0.7211
   39MOL   C76432760   3.997   2.600   7.663  0.3624  0.0822  0.7767
   39MOL   C76532761   3.996   2.451   7.625  0.1262  0.2010  0.1602
   39MOL   C76632762   3.938   2.425   7.482  0.8398  0.2496 -0.2268
   39MOL   C76732763   3.901   2.284   7.448  0.1485 -0.1175 -0.3269
   39MOL   C76832764   3.903   2.245   7.294  0.3768 -0.0908 -0.2284
   39MOL   C76932765   3.819   2.118   7.278 -0.0326  0.4360  0.4652
   39MOL   C77032766   3.892   1.996   7.343 -0.0779  0.5739  0.2280
   39MOL   C77132767   3.819   1.860   7.312 -0.5592  0.0365  0.4432
   39MOL   H77232768   4.118   3.193   0.371  0.0545  2.0430 -1.0708
   39MOL   H77332769   4.181   3.293   0.248  2.0930  1.0757  0.2268
   39MOL   H77432770   4.309   3.031   0.333 -1.4445 -0.6941 -0.9871
   39MOL   H77532771   4.089   3.033   0.198  0.1184  0.0558 -0.4315
   39MOL   H77632772   4.176   3.076   0.059  1.1821  0.6385 -0.0468
   39MOL   H77732773   4.310   2.877   0.062 -2.2895  0.0595 -2.5163
   39MOL   H77832774   4.267   2.837   0.224  2.3926  1.1231  0.2574
   39MOL   H77932775   4.089   2.859   7.677 -2.2729 -0.1144  0.4237
   39MOL   H78032776   4.024   2.822   0.143  0.7637  4.2406 -0.6596
   39MOL   H78132777   4.127   2.585   0.129  0.0078  0.3990  1.6473
   39MOL   H78232778   4.207   2.638   7.674 -0.7362 -2.8041  0.4573
   39MOL   H78332779   3.910   2.618   0.030 -1.8491 -4.8057 -0.6548
   39MOL   H78432780   3.988   2.642   7.563 -1.4001  0.0883  0.9285
   39MOL   H78532781   3.937   2.390   7.694 -1.2575 -0.0605 -1.2110
   39MOL   H78632782   4.100   2.417   7.622 -0.2961 -1.1459  0.1715
   39MOL   H78732783   4.011   2.468   7.415  1.0142  0.9272  0.3857
   39MOL   H78832784   3.847   2.479   7.454  1.2754  1.8314  1.3121
   39MOL   H78932785   3.800   2.275   7.489 -0.4834 -0.2817 -1.8784
   39MOL   H79032786   3.964   2.212   7.500  1.1757  0.9727 -0.0353
   39MOL   H79132787   3.871   2.324   7.227 -0.3667 -1.0803 -1.0704
   39MOL   H79232788   4.006   2.241   7.258  0.6481 -0.7245  0.5948
   39MOL   H79332789   3.715   2.131   7.308 -0.3275 -0.4754 -0.1474
   39MOL   H79432790   3.821   2.092   7.172  1.5691  1.3402  0.2534
   39MOL   H79532791   3.998   1.996   7.319  0.2654 -2.2530  1.5661
   39MOL   H79632792   3.897   2.012   7.451 -0.0023 -0.4449  0.3791
   39MOL   H79732793   3.811   1.831   7.208 -2.8204  0.8311  0.3727
   39MOL   H79832794   3.865   1.774   7.361 -1.9016  0.3486  2.3352
   39MOL   H79932795   3.721   1.872   7.358 -1.3924 -0.4598 -1.1648
   39MOL   C80032796   4.418   3.145   0.193 -0.3396 -0.2769 -0.3365
   39MOL   C80132797   4.519   3.030   0.162  0.2146 -0.1311 -0.3593
   39MOL   C80232798   4.666   3.068   0.149  0.7364 -0.5475 -0.0443
   39MOL   C80332799   4.756   2.940   0.142  0.0411  0.2054  0.4562
   39MOL   C80432800   4.907   2.959   0.124 -0.3106  0.2869 -0.3563
   39MOL   C80532801   4.975   2.838   0.064  0.6353  0.3577  0.4076
   39MOL   C80632802   5.131   2.837   0.069 -0.3801 -0.0439  0.2494
   39MOL   C80732803   5.194   2.710   0.002 -0.0074  0.1580 -0.0429
   39MOL   C80832804   5.352   2.707   0.006  0.0125 -0.0414 -0.4429
   39MOL   C80932805   5.403   2.583   7.631 -0.3299  0.3511 -0.4932
   39MOL   C81032806   5.344   2.451   7.687 -0.4025 -0.1009  0.5825
   39MOL   C81132807   5.404   2.411   0.127  0.5619 -0.1908 -0.0297
   39MOL   C81232808   5.396   2.259   0.142 -0.8342 -0.6291 -0.1913
   39MOL   C81332809   5.247   2.209   0.133  0.0474  0.3237  0.4993
   39MOL   H81432810   4.467   3.221   0.254  1.1606 -2.3777  1.1716
   39MOL   H81532811   4.394   3.194   0.099 -0.0221  0.9174  0.1958
   39MOL   H81632812   4.497   2.990   0.063  2.3133  0.3631 -1.0516
   39MOL   H81732813   4.697   3.120   0.240 -3.0205 -0.0409  1.0229
   39MOL   H81832814   4.675   3.145   0.073  0.4966 -1.3334 -0.8695
   39MOL   H81932815   4.720   2.882   0.058  2.8793  0.3668 -0.9482
   39MOL   H82032816   4.742   2.880   0.232 -0.5892  0.3200  0.4374
   39MOL   H82132817   4.938   3.046   0.067  0.9752  0.3542  0.4353
   39MOL   H82232818   4.935   2.984   0.226  0.0922 -0.8988 -0.1679
   39MOL   H82332819   4.938   2.835   7.657 -0.0527 -2.4943  0.6741
   39MOL   H82432820   4.941   2.746   0.111  0.8785 -0.8213 -1.6306
   39MOL   H82532821   5.166   2.924   0.013 -0.5444  1.3708  2.2975
   39MOL   H82632822   5.163   2.844   0.173  2.3354 -2.7132 -0.3568
   39MOL   H82732823   5.148   2.630   0.060 -1.3747  1.0139  0.0795
   39MOL   H82832824   5.161   2.690   7.595  1.4182 -1.0395 -0.2869
   39MOL   H82932825   5.399   2.794   7.656  1.4178 -0.5562 -0.0152
   39MOL   H83032826   5.388   2.706   0.109  0.2960  1.2889 -0.5226
   39MOL   H83132827   5.512   2.586   7.633 -0.3694  1.3829  0.7027
   39MOL   H83232828   5.372   2.584   7.527  2.5725  2.0076 -1.4075
   39MOL   H83332829   5.235   2.454   7.695 -0.6552  0.8838 -2.4447
   39MOL   H83432830   5.358   2.369   7.618  0.1857 -0.0409  0.6271
   39MOL   H83532831   5.360   2.471   0.206  0.5957 -0.8141  0.4674
   39MOL   H83632832   5.510   2.436   0.121  0.6956 -0.6143  0.5809
   39MOL   H83732833   5.455   2.197   0.074  0.7141  0.5252  0.0719
   39MOL   H83832834   5.446   2.238   0.237 -1.5682 -1.3647  0.0332
   39MOL   H83932835   5.245   2.101   0.144 -0.0576  0.3984  1.3113
   39MOL   H84032836   5.180   2.233   0.216 -0.3097 -1.5877  0.7782
   39MOL   H84132837   5.195   2.232   0.040  1.5992  0.0101 -0.4545
   39MOL   H84232838   4.510   2.946   0.230  2.0215  1.1135  1.4690
   40MOL     C132839   4.413   2.705   2.735  0.2515  0.5921  0.0892
   40MOL     C232840   4.314   2.625   2.822  0.4294 -0.0986 -0.1655
   40MOL     C332841   4.244   2.507   2.740  0.4975  0.0023  0.0033
   40MOL     C432842   4.327   2.426   2.650  0.4320  0.4026  0.1089
   40MOL     C532843   4.263   2.300   2.594  0.2360 -0.3594 -0.0270
   40MOL     C632844   4.364   2.228   2.503  0.6620  0.8784 -0.6332
   40MOL     C732845   4.307   2.097   2.449 -0.0985  0.3387 -0.6380
   40MOL     C832846   4.398   2.041   2.338  0.1539 -0.0659 -0.3179
   40MOL     C932847   4.376   1.893   2.313  0.6947  0.5381  0.5308
   40MOL    C1032848   4.479   1.842   2.215  0.2297 -0.3164  0.8151
   40MOL    C1132849   4.626   1.865   2.244  0.0542  0.1050  0.8785
   40MOL    C1232850   4.728   1.791   2.148  0.2671 -0.5863 -0.5378
   40MOL    C1332851   4.877   1.804   2.187  0.2105  1.1708  0.0405
   40MOL    C1432852   4.976   1.711   2.107  0.1334  0.4079  0.1840
   40MOL    H1532853   4.379   2.752   2.643 -0.7908 -1.0666 -0.3810
   40MOL    H1632854   4.508   2.659   2.708 -1.3930 -1.6246 -2.0858
   40MOL    H1732855   4.234   2.686   2.865  0.9619  0.4489  0.0506
   40MOL    H1832856   4.190   2.452   2.818 -1.0564  1.6324  0.1306
   40MOL    H1932857   4.160   2.544   2.681  1.1757  0.9092 -0.3920
   40MOL    H2032858   4.423   2.403   2.697  0.0327 -0.2765  0.5999
   40MOL    H2132859   4.351   2.479   2.557 -0.0833  0.1167 -0.1879
   40MOL    H2232860   4.179   2.335   2.534 -1.0937 -1.6504  1.0324
   40MOL    H2332861   4.229   2.230   2.671 -0.0268  0.7427  0.8797
   40MOL    H2432862   4.451   2.202   2.563 -0.8296 -0.1578  1.1080
   40MOL    H2532863   4.406   2.284   2.419  1.3539  1.4687  0.0974
   40MOL    H2632864   4.295   2.024   2.529 -0.4533 -1.8250 -2.6247
   40MOL    H2732865   4.202   2.115   2.424 -0.2714 -0.1231 -0.2586
   40MOL    H2832866   4.495   2.060   2.383 -0.8483  1.1953  1.3995
   40MOL    H2932867   4.381   2.101   2.248 -1.2002  1.5789  0.9883
   40MOL    H3032868   4.380   1.840   2.408 -0.2098 -1.2015 -0.3853
   40MOL    H3132869   4.274   1.887   2.273  0.5883  1.4737  0.6321
   40MOL    H3232870   4.456   1.736   2.202  1.9866 -0.4746 -1.5421
   40MOL    H3332871   4.475   1.888   2.116 -1.6195 -0.8228  0.6340
   40MOL    H3432872   4.650   1.972   2.247  0.6360 -0.0344  1.3499
   40MOL    H3532873   4.657   1.838   2.345  0.4263 -2.5824  0.0794
   40MOL    H3632874   4.724   1.816   2.042 -0.5424 -4.1589 -1.3994
   40MOL    H3732875   4.697   1.688   2.134  1.2779 -1.4574  3.2201
   40MOL    H3832876   4.912   1.907   2.177  0.3394  1.0964 -0.2780
   40MOL    H3932877   4.881   1.771   2.290  1.4801  0.0878 -0.3418
   40MOL    H4032878   4.974   1.611   2.151 -0.4596 -0.4995 -1.8370
   40MOL    H4132879   4.947   1.693   2.003 -1.7022  2.7242  0.2452
   40MOL    H4232880   5.076   1.752   2.121  1.2280 -2.6807  1.7578
   40MOL    H4332881   4.445   2.787   2.800  1.6398 -0.3171  0.5913
   40MOL    C4432882   4.380   2.556   2.943 -0.4769  0.8550 -0.9647
   40MOL    C4532883   4.385   2.644   3.071 -0.0986  1.0458 -0.2291
   40MOL    C4632884   4.531   2.669   3.120  0.2578  0.2753 -0.0297
   40MOL    C4732885   4.626   2.754   3.030 -0.2285 -0.9159  0.3418
   40MOL    C4832886   4.766   2.777   3.093 -0.4884 -0.3621 -1.0065
   40MOL    C4932887   4.774   2.899   3.190 -0.1583 -0.5068 -0.0196
   40MOL    C5032888   4.917   2.950   3.224  0.2073  0.1946  0.1411
   40MOL    C5132889   4.992   3.005   3.101 -0.2327 -0.2305  0.1548
   40MOL    C5232890   5.137   3.047   3.134  0.3780 -0.4548 -0.4148
   40MOL    C5332891   5.193   3.119   3.006  0.4274  0.1749 -0.4341
   40MOL    C5432892   5.342   3.172   3.032 -0.1314 -0.3648 -0.2870
   40MOL    C5532893   5.448   3.057   3.016 -0.5691  0.2780  0.1219
   40MOL    C5632894   5.597   3.094   2.994  1.0054  0.1619 -0.6359
   40MOL    C5732895   5.679   2.967   2.956 -0.9529 -0.7970 -0.1034
   40MOL    H5832896   4.317   2.471   2.970  0.8426  0.1112 -0.1813
   40MOL    H5932897   4.474   2.504   2.925 -1.6078 -2.2106  1.5190
   40MOL    H6032898   4.333   2.740   3.061 -2.2492  0.0548  0.9412
   40MOL    H6132899   4.537   2.719   3.217 -1.0822  1.4130 -0.5157
   40MOL    H6232900   4.573   2.569   3.134  0.6016  0.7335  2.5247
   40MOL    H6332901   4.584   2.853   3.012 -0.1157 -1.2936 -2.1868
   40MOL    H6432902   4.636   2.700   2.936 -0.9983 -0.3492 -0.0705
   40MOL    H6532903   4.827   2.818   3.012 -0.1776  1.4649  0.1078
   40MOL    H6632904   4.811   2.688   3.136 -2.4640 -0.7334  0.3122
   40MOL    H6732905   4.728   2.988   3.147 -3.5784 -0.8018  2.7866
   40MOL    H6832906   4.729   2.888   3.289 -0.5195 -1.3655 -0.2772
   40MOL    H6932907   4.921   3.023   3.304  1.5489 -0.7482  0.9598
   40MOL    H7032908   4.969   2.863   3.264  3.5251  2.4572  0.9168
   40MOL    H7132909   4.926   3.088   3.077  0.6416  0.2729 -0.5604
   40MOL    H7232910   4.993   2.938   3.015 -1.2747 -1.9306  1.4383
   40MOL    H7332911   5.139   3.115   3.219  1.3582 -0.5110 -0.3911
   40MOL    H7432912   5.193   2.957   3.158  2.0343  1.1306  1.9776
   40MOL    H7532913   5.123   3.197   2.976  0.1656  0.7084  1.4832
   40MOL    H7632914   5.194   3.053   2.920  0.0926  0.0573 -0.3471
   40MOL    H7732915   5.353   3.223   3.128 -2.9124 -0.2916  0.0431
   40MOL    H7832916   5.360   3.257   2.966 -0.2886 -0.7299 -0.8000
   40MOL    H7932917   5.426   2.999   3.105 -0.9917 -2.2810 -1.6116
   40MOL    H8032918   5.420   2.978   2.947 -1.2662  1.1364 -0.5873
   40MOL    H8132919   5.649   3.145   3.076  0.2368  0.0032 -0.0511
   40MOL    H8232920   5.608   3.168   2.915 -0.7770  0.9857 -0.1347
   40MOL    H8332921   5.690   2.898   3.040 -1.0709 -2.4902 -1.4422
   40MOL    H8432922   5.781   3.001   2.935 -1.3479  0.9025  0.6233
   40MOL    H8532923   5.640   2.919   2.866  1.6009 -0.3597 -1.4985
   40MOL    C8632924   4.305   2.576   3.189  0.5378 -0.6937  0.9397
   40MOL    C8732925   4.259   2.660   3.315  0.1201  0.5651  0.1337
   40MOL    C8832926   4.225   2.567   3.435  0.1332  0.1054  0.0014
   40MOL    C8932927   4.208   2.632   3.571 -0.6265  0.1584  1.0053
   40MOL    C9032928   4.172   2.544   3.698  0.2903 -0.0407 -0.3784
   40MOL    C9132929   4.020   2.519   3.696 -0.3174  0.1391  0.0095
   40MOL    C9232930   3.978   2.460   3.833 -0.7393 -0.0087  0.7159
   40MOL    C9332931   3.836   2.403   3.831  0.2212 -0.2145 -0.6225
   40MOL    C9432932   3.800   2.329   3.963 -0.2135 -0.4049 -0.4499
   40MOL    C9532933   3.682   2.225   3.959  0.1927  0.5039 -0.3184
   40MOL    C9632934   3.666   2.167   4.100 -0.0197  0.0341  0.2829
   40MOL    C9732935   3.540   2.070   4.113 -0.3865  0.2759  0.2927
   40MOL    C9832936   3.551   1.978   4.236 -0.7829 -0.5383 -0.0060
   40MOL    C9932937   3.438   1.882   4.246 -0.2102 -0.2703  0.5662
   40MOL   H10032938   4.211   2.533   3.155  0.7074 -0.5206  0.2447
   40MOL   H10132939   4.363   2.487   3.214  3.1974  0.8788  0.5622
   40MOL   H10232940   4.347   2.720   3.338  2.1830 -2.2205 -0.1876
   40MOL   H10332941   4.138   2.510   3.403  0.8074 -0.3582 -1.0390
   40MOL   H10432942   4.299   2.491   3.460 -0.2425 -0.1961  0.2021
   40MOL   H10532943   4.295   2.692   3.597  0.5672 -1.5308  0.9180
   40MOL   H10632944   4.133   2.711   3.562  0.2997  1.0646  1.1628
   40MOL   H10732945   4.202   2.606   3.781 -0.4036  2.0187 -1.6340
   40MOL   H10832946   4.227   2.451   3.714  0.5338 -0.1714 -1.8519
   40MOL   H10932947   4.017   2.447   3.614 -0.3745 -1.1314  1.1006
   40MOL   H11032948   3.966   2.607   3.662  2.1039  1.7919  0.3262
   40MOL   H11132949   4.043   2.373   3.849  0.1540  0.1622 -1.7769
   40MOL   H11232950   3.995   2.522   3.922  0.2472 -0.2445  0.7032
   40MOL   H11332951   3.839   2.331   3.749  0.4088 -2.4884  1.3066
   40MOL   H11432952   3.775   2.485   3.796 -0.4251 -0.5005 -0.1658
   40MOL   H11532953   3.887   2.277   4.003  1.0393  1.1073 -1.1284
   40MOL   H11632954   3.777   2.403   4.040  0.9304 -1.1812  0.6439
   40MOL   H11732955   3.697   2.142   3.889 -2.0212 -0.4722  0.3357
   40MOL   H11832956   3.593   2.277   3.926 -0.1708  1.6457  2.3145
   40MOL   H11932957   3.762   2.126   4.133  0.8635  2.7146  1.1423
   40MOL   H12032958   3.654   2.249   4.171  3.0788 -0.0623  1.0142
   40MOL   H12132959   3.450   2.126   4.135  0.2655  1.4501  0.0019
   40MOL   H12232960   3.524   2.012   4.022  2.4193  0.5813 -0.4448
   40MOL   H12332961   3.562   2.045   4.321  2.0706  0.9718 -1.5009
   40MOL   H12432962   3.650   1.933   4.242  0.2023  1.5077 -0.5498
   40MOL   H12532963   3.455   1.842   4.346  2.1082  0.7676  0.6220
   40MOL   H12632964   3.340   1.930   4.247  0.0185  0.2021  0.6506
   40MOL   H12732965   3.447   1.800   4.175  1.5345  1.8492 -1.7385
   40MOL   C12832966   4.147   2.767   3.275 -0.6607  0.2882  0.6632
   40MOL   C12932967   4.162   2.902   3.334  0.6675 -0.4354  0.3945
   40MOL   C13032968   4.276   2.976   3.258 -0.8264 -0.4102  0.0707
   40MOL   C13132969   4.339   3.091   3.329  0.1252 -0.2138  0.3878
   40MOL   C13232970   4.448   3.155   3.243  0.2949 -0.3872 -0.0072
   40MOL   C13332971   4.558   3.225   3.319 -0.0500  0.0046 -0.1742
   40MOL   C13432972   4.658   3.303   3.229  0.9491 -0.1375 -1.0721
   40MOL   C13532973   4.757   3.391   3.307  0.7740  0.2346 -1.0274
   40MOL   C13632974   4.853   3.466   3.224  0.4436 -0.8951  0.9464
   40MOL   C13732975   4.992   3.480   3.287  0.1005 -0.7092 -0.1888
   40MOL   C13832976   5.094   3.530   3.181 -0.4922 -0.4741  0.6436
   40MOL   C13932977   5.240   3.514   3.224 -0.8736  0.0675 -0.2359
   40MOL   C14032978   5.348   3.558   3.122  0.1629  0.6009 -0.4424
   40MOL   C14132979   5.491   3.534   3.176  0.0118  0.1311 -0.7609
   40MOL   H14232980   4.154   2.784   3.167 -0.2135 -1.2573  0.4372
   40MOL   H14332981   4.051   2.724   3.303 -0.5804 -0.2206  0.1739
   40MOL   H14432982   4.186   2.883   3.439  0.6457 -1.9772  0.1202
   40MOL   H14532983   4.361   2.913   3.234  0.2862  0.5661  1.3873
   40MOL   H14632984   4.248   3.001   3.155  1.9335 -2.1265 -1.1553
   40MOL   H14732985   4.262   3.164   3.353 -0.2151  0.2088 -1.8824
   40MOL   H14832986   4.381   3.049   3.420 -0.8362  0.9198  1.3665
   40MOL   H14932987   4.504   3.087   3.178 -1.8429 -1.7842 -0.4584
   40MOL   H15032988   4.398   3.231   3.183  2.0815 -0.1929 -1.2805
   40MOL   H15132989   4.519   3.300   3.387  1.1512 -0.1078  0.6395
   40MOL   H15232990   4.616   3.145   3.365 -1.5728 -1.2819 -0.4104
   40MOL   H15332991   4.707   3.234   3.161  0.0099 -1.2096 -0.6910
   40MOL   H15432992   4.597   3.368   3.166  1.5374  0.6215 -0.8620
   40MOL   H15532993   4.704   3.466   3.367 -2.2100 -2.3801 -0.3080
   40MOL   H15632994   4.803   3.329   3.384  1.0692  1.0395 -0.5380
   40MOL   H15732995   4.863   3.400   3.137 -1.8584  0.4635 -0.4094
   40MOL   H15832996   4.812   3.564   3.201 -0.5538 -0.9861  2.3248
   40MOL   H15932997   5.029   3.383   3.321 -0.5134 -0.4592  1.2292
   40MOL   H16032998   4.985   3.543   3.375 -1.0033  1.5700 -1.8587
   40MOL   H16132999   5.082   3.475   3.087 -0.3449  2.3364 -1.0922
   40MOL   H16233000   5.079   3.637   3.164  1.0929  0.0410  2.3928
   40MOL   H16333001   5.245   3.571   3.316  2.4268  2.3273 -1.7239
   40MOL   H16433002   5.255   3.413   3.261 -2.2519 -0.6507 -1.5365
   40MOL   H16533003   5.332   3.494   3.036 -4.0683  0.3296  0.4568
   40MOL   H16633004   5.323   3.656   3.084  0.0630  1.6560  2.2388
   40MOL   H16733005   5.495   3.570   3.278  0.5497  0.1877 -0.7979
   40MOL   H16833006   5.533   3.434   3.171  0.9830  0.4535  0.7075
   40MOL   H16933007   5.554   3.588   3.105  0.5983  0.7969  0.2659
   40MOL   C17033008   4.028   2.979   3.326 -0.2025 -0.0424  0.7098
   40MOL   C17133009   3.926   2.987   3.449  0.6376 -0.3097  0.9339
   40MOL   C17233010   3.854   2.852   3.461  0.1677 -0.1514  0.0146
   40MOL   C17333011   3.743   2.852   3.570  0.1892 -0.3856 -0.1439
   40MOL   C17433012   3.625   2.944   3.530 -0.6560 -0.5177 -0.4821
   40MOL   C17533013   3.501   2.926   3.618  0.6910 -0.1135  0.2876
   40MOL   C17633014   3.377   3.003   3.554 -0.6941 -0.2082 -0.0342
   40MOL   C17733015   3.248   3.024   3.637  1.0348  0.1839 -0.0952
   40MOL   C17833016   3.133   3.119   3.580 -0.0239  0.6021  0.2873
   40MOL   C17933017   3.002   3.118   3.660 -0.6496  0.2097 -0.1536
   40MOL   C18033018   2.895   3.010   3.619  0.4842  0.4358  0.2063
   40MOL   C18133019   2.759   3.034   3.684 -0.1058 -0.4012 -0.1078
   40MOL   C18233020   2.733   2.969   3.825 -0.2144 -0.3631 -0.6488
   40MOL   C18333021   2.603   3.006   3.897 -0.6209 -0.1295 -0.3383
   40MOL   H18433022   3.976   2.957   3.233 -0.2913  1.0373  0.4896
   40MOL   H18533023   4.041   3.087   3.321 -2.2453  0.1944  0.0505
   40MOL   H18633024   3.850   3.058   3.415 -0.0743 -0.7915  1.5255
   40MOL   H18733025   3.806   2.814   3.370 -0.3136  1.2972 -0.3499
   40MOL   H18833026   3.929   2.777   3.487 -0.3818 -0.4392  0.7736
   40MOL   H18933027   3.705   2.751   3.563 -2.0160  0.3245  1.1049
   40MOL   H19033028   3.773   2.867   3.674  3.0880  1.4250 -1.1526
   40MOL   H19133029   3.659   3.048   3.531 -4.3098  0.7542 -0.3578
   40MOL   H19233030   3.595   2.922   3.427 -2.2609 -1.1028  0.0961
   40MOL   H19333031   3.509   2.955   3.723  0.1475 -1.6389  0.7591
   40MOL   H19433032   3.483   2.820   3.635  0.3823 -0.1489 -0.2318
   40MOL   H19533033   3.347   2.955   3.462 -0.1114 -1.8243  0.6050
   40MOL   H19633034   3.419   3.103   3.542 -0.6883  0.0243  1.7256
   40MOL   H19733035   3.273   3.064   3.735  1.0106 -1.9681  0.8021
   40MOL   H19833036   3.211   2.923   3.654  0.9626  0.4250  1.2169
   40MOL   H19933037   3.112   3.085   3.479 -1.5480 -2.1092  1.4546
   40MOL   H20033038   3.166   3.222   3.571 -2.3124  1.3214 -0.1318
   40MOL   H20133039   2.950   3.213   3.659 -0.8274  0.1122 -0.9435
   40MOL   H20233040   3.040   3.108   3.761 -1.5853  1.9565  0.3891
   40MOL   H20333041   2.915   2.908   3.653  0.6377  0.4175  0.0608
   40MOL   H20433042   2.866   3.010   3.514 -0.7020 -0.3607  0.5106
   40MOL   H20533043   2.750   3.142   3.694 -1.8852 -0.3336 -2.0630
   40MOL   H20633044   2.676   2.996   3.623 -1.8907 -0.1411  2.0781
   40MOL   H20733045   2.740   2.861   3.818 -0.7401 -0.2858 -2.5563
   40MOL   H20833046   2.813   2.987   3.897  0.4594 -5.7148  0.0794
   40MOL   H20933047   2.520   2.978   3.833 -0.4861 -1.1138 -0.0806
   40MOL   H21033048   2.596   3.115   3.906 -0.0071 -0.2458  2.1011
   40MOL   H21133049   2.600   2.971   4.001 -1.1124 -0.6581 -0.5295
   40MOL   C21233050   3.996   3.035   3.581  0.7946  0.9317 -0.5401
   40MOL   C21333051   4.028   3.190   3.586  0.7203 -0.0234  0.2198
   40MOL   C21433052   3.904   3.278   3.553  0.0751 -0.0768 -0.6142
   40MOL   C21533053   3.789   3.272   3.658  0.2798  0.5616 -1.1342
   40MOL   C21633054   3.657   3.334   3.607  0.8373 -0.1201  0.4188
   40MOL   C21733055   3.555   3.379   3.706  0.0079 -0.2594 -0.1642
   40MOL   C21833056   3.424   3.440   3.638 -0.5691  0.8384  0.7255
   40MOL   C21933057   3.336   3.488   3.751  0.8173 -0.2283 -0.1161
   40MOL   C22033058   3.193   3.519   3.710  0.2187  0.0749 -0.0717
   40MOL   C22133059   3.112   3.577   3.829 -1.0287  0.0227  0.5009
   40MOL   C22233060   2.982   3.648   3.782  0.5179 -0.2123  0.3715
   40MOL   C22333061   2.883   3.692   3.890  0.4661  0.3873 -0.7945
   40MOL   C22433062   2.932   3.802   3.991 -0.4076 -0.3946 -0.2006
   40MOL   C22533063   2.841   3.818   4.107  0.7834  0.1941 -0.3554
   40MOL   H22633064   4.080   2.972   3.612  1.1668  0.5037 -2.3796
   40MOL   H22733065   3.920   3.028   3.659 -0.7993  1.2066 -2.0365
   40MOL   H22833066   4.098   3.206   3.504 -2.4393  3.9806 -1.8656
   40MOL   H22933067   3.938   3.380   3.540  0.0508  0.3650  2.4794
   40MOL   H23033068   3.864   3.259   3.453 -0.5689  0.0433 -0.3822
   40MOL   H23133069   3.825   3.326   3.746 -0.7058  0.5892 -0.7407
   40MOL   H23233070   3.773   3.169   3.693  0.4041  0.5860 -1.0049
   40MOL   H23333071   3.608   3.278   3.527 -1.0577 -1.3730  2.3959
   40MOL   H23433072   3.694   3.421   3.552 -0.5856  0.7075  0.7570
   40MOL   H23533073   3.592   3.465   3.763  0.6565 -0.3190 -0.4957
   40MOL   H23633074   3.527   3.300   3.775  1.9814  1.4363  2.6733
   40MOL   H23733075   3.444   3.512   3.560 -0.2154  1.5294  1.4471
   40MOL   H23833076   3.365   3.362   3.591  1.9750 -1.0016  0.4646
   40MOL   H23933077   3.345   3.415   3.831 -1.8130 -0.5151 -0.0597
   40MOL   H24033078   3.375   3.585   3.784 -0.2491 -0.1358  0.8683
   40MOL   H24133079   3.144   3.430   3.672 -0.6946  1.1649 -1.5116
   40MOL   H24233080   3.181   3.586   3.624  1.3640  0.7138  0.2590
   40MOL   H24333081   3.096   3.490   3.893  1.4455 -0.4105  0.5795
   40MOL   H24433082   3.169   3.650   3.886  0.6350 -2.2161  1.7926
   40MOL   H24533083   2.921   3.587   3.715  0.1617  0.0499  0.4539
   40MOL   H24633084   3.016   3.732   3.721 -2.1264  1.3495  0.9348
   40MOL   H24733085   2.859   3.603   3.949 -1.4414  0.1115 -1.9457
   40MOL   H24833086   2.790   3.719   3.842 -0.5240 -1.7369 -0.1221
   40MOL   H24933087   2.944   3.895   3.935  0.7778 -0.1327  0.4682
   40MOL   H25033088   3.036   3.788   4.022 -0.2982  1.3127  0.2614
   40MOL   H25133089   2.872   3.902   4.170  0.5752  1.8456 -2.4229
   40MOL   H25233090   2.743   3.838   4.065  1.3838  0.9291 -1.4406
   40MOL   H25333091   2.840   3.737   4.180  0.0364  1.2950  0.8776
   40MOL   C25433092   4.098   3.230   3.719 -0.5574 -0.3423 -0.0620
   40MOL   C25533093   4.153   3.375   3.728 -0.3676  0.2554  0.2192
   40MOL   C25633094   4.206   3.396   3.870 -0.1276  0.6750  0.9108
   40MOL   C25733095   4.099   3.387   3.979  0.4253 -0.6221  0.7565
   40MOL   C25833096   4.144   3.343   4.119  0.3341 -0.7075 -0.3918
   40MOL   C25933097   4.015   3.301   4.197 -0.0003  0.1987  0.3363
   40MOL   C26033098   4.025   3.231   4.330  0.2891  0.7870 -0.2490
   40MOL   C26133099   3.899   3.153   4.362 -0.2776  0.0767  0.3803
   40MOL   C26233100   3.917   3.097   4.510  0.6915  0.2275  0.0488
   40MOL   C26333101   3.800   3.015   4.563 -0.2225 -0.0506  0.0175
   40MOL   C26433102   3.813   2.968   4.706 -0.8060 -0.7541  0.0003
   40MOL   C26533103   3.690   2.894   4.765  0.2477 -0.3935  0.1795
   40MOL   C26633104   3.725   2.836   4.908 -0.0199 -0.4530 -0.6145
   40MOL   C26733105   3.598   2.765   4.968  0.0731 -0.1719 -0.2134
   40MOL   H26833106   4.184   3.164   3.722 -0.5346 -0.4302 -1.9242
   40MOL   H26933107   4.031   3.198   3.799  0.0889 -2.8594 -0.4800
   40MOL   H27033108   4.074   3.447   3.705 -0.4737  0.3997  1.0096
   40MOL   H27133109   4.267   3.486   3.878 -0.1724  0.9995 -2.0136
   40MOL   H27233110   4.272   3.313   3.893 -0.3799  0.1395 -0.2559
   40MOL   H27333111   4.015   3.326   3.945 -0.7332  1.3167  0.0489
   40MOL   H27433112   4.061   3.487   3.999 -1.8534 -1.7698  2.4338
   40MOL   H27533113   4.212   3.409   4.174  1.6215 -1.2718 -1.2729
   40MOL   H27633114   4.209   3.256   4.112  0.8710 -0.2327 -1.6410
   40MOL   H27733115   3.961   3.225   4.139 -1.0730  1.4268 -0.2965
   40MOL   H27833116   3.961   3.395   4.206  0.9263  0.7693 -0.0429
   40MOL   H27933117   4.112   3.165   4.331  1.3004  2.1095 -0.1156
   40MOL   H28033118   4.041   3.304   4.409 -2.3198  0.0848  0.9905
   40MOL   H28133119   3.876   3.074   4.290  1.8092 -1.0356  0.9186
   40MOL   H28233120   3.811   3.216   4.375 -0.2320  0.1589  0.2912
   40MOL   H28333121   4.014   3.047   4.513  1.6759  2.0674 -0.4089
   40MOL   H28433122   3.922   3.185   4.574  0.1575 -0.4305  1.0033
   40MOL   H28533123   3.792   2.926   4.501  0.3044 -0.8168  1.0266
   40MOL   H28633124   3.711   3.077   4.550  0.2708  0.3903 -1.3281
   40MOL   H28733125   3.844   3.060   4.757 -1.6397 -0.6727  0.3683
   40MOL   H28833126   3.891   2.893   4.712 -0.4501 -0.4516 -0.7379
   40MOL   H28933127   3.617   2.972   4.787 -1.7050 -1.7354 -1.4439
   40MOL   H29033128   3.649   2.820   4.698 -0.2107 -0.6574  0.7489
   40MOL   H29133129   3.810   2.768   4.902  0.8315  0.3247  2.2031
   40MOL   H29233130   3.761   2.918   4.970 -1.6274  0.1562 -0.4705
   40MOL   H29333131   3.527   2.843   4.994 -1.1017 -1.2376 -0.1262
   40MOL   H29433132   3.626   2.722   5.064  0.1638 -3.1980 -1.5110
   40MOL   H29533133   3.557   2.689   4.900 -0.0253  0.3923 -0.7853
   40MOL   C29633134   4.270   3.387   3.633  0.6943  0.1460 -0.2355
   40MOL   C29733135   4.329   3.528   3.623 -1.0328  0.3416 -0.3043
   40MOL   C29833136   4.490   3.515   3.610 -0.4236  0.0718 -0.1193
   40MOL   C29933137   4.547   3.481   3.752  0.3137  0.1736 -0.1251
   40MOL   C30033138   4.700   3.488   3.748 -0.2821 -0.0748 -0.4371
   40MOL   C30133139   4.754   3.629   3.741  0.2954 -0.0243  0.0464
   40MOL   C30233140   4.903   3.644   3.787 -0.5612  0.4369 -0.2706
   40MOL   C30333141   5.011   3.596   3.688 -0.0469 -0.8114 -0.4531
   40MOL   C30433142   5.158   3.601   3.736  0.1244 -0.6885 -0.2481
   40MOL   C30533143   5.256   3.532   3.637 -1.0131  0.6084 -0.0429
   40MOL   C30633144   5.242   3.374   3.627  0.2073  0.4615  0.8871
   40MOL   C30733145   5.344   3.306   3.543  0.3122  0.3527 -0.6145
   40MOL   C30833146   5.298   3.172   3.503 -0.0712  0.1690 -0.3461
   40MOL   C30933147   5.406   3.097   3.430  0.5327  0.0885 -0.2988
   40MOL   H31033148   4.248   3.367   3.528  1.6250 -0.2053 -0.3693
   40MOL   H31133149   4.350   3.318   3.658  0.2121  0.5347  2.4843
   40MOL   H31233150   4.311   3.587   3.713 -0.8520 -0.6024  0.3637
   40MOL   H31333151   4.527   3.616   3.590 -0.4599  0.3646  1.1759
   40MOL   H31433152   4.521   3.448   3.530  0.4764  0.3739 -0.0225
   40MOL   H31533153   4.508   3.390   3.797 -0.6087  0.6538  0.0518
   40MOL   H31633154   4.511   3.561   3.816 -0.0315 -0.3041  0.2777
   40MOL   H31733155   4.720   3.450   3.848 -0.0447 -3.0905 -1.5833
   40MOL   H31833156   4.748   3.424   3.673  0.0986 -0.4480  0.1143
   40MOL   H31933157   4.694   3.692   3.807  1.4963  2.1701 -0.8926
   40MOL   H32033158   4.736   3.673   3.643  1.3109  1.2706  0.4310
   40MOL   H32133159   4.926   3.750   3.802 -0.4742  0.2950  0.6261
   40MOL   H32233160   4.921   3.594   3.882 -2.8477  0.1488  0.0344
   40MOL   H32333161   5.003   3.658   3.599  2.1386  0.3778  0.1412
   40MOL   H32433162   4.975   3.502   3.646  0.7332 -0.3372 -2.2312
   40MOL   H32533163   5.190   3.705   3.746 -0.5693 -0.6353  1.5874
   40MOL   H32633164   5.144   3.559   3.836  1.7433  1.6069  0.9902
   40MOL   H32733165   5.359   3.564   3.655 -1.2168  0.5422  1.2196
   40MOL   H32833166   5.235   3.566   3.535  0.5795  0.4166 -0.4527
   40MOL   H32933167   5.141   3.346   3.597  0.2241  0.4746  0.8190
   40MOL   H33033168   5.243   3.331   3.727  0.2623 -2.0864 -0.1902
   40MOL   H33133169   5.442   3.307   3.592  1.0844 -1.2860 -2.0374
   40MOL   H33233170   5.351   3.369   3.454 -0.3516  4.6073  2.2132
   40MOL   H33333171   5.206   3.169   3.445 -0.1551 -0.9657 -0.1662
   40MOL   H33433172   5.280   3.106   3.588  0.0051 -0.6121 -0.9279
   40MOL   H33533173   5.499   3.098   3.487 -0.4750 -4.4892  1.6307
   40MOL   H33633174   5.369   2.997   3.406  1.7293 -0.2276 -0.8863
   40MOL   H33733175   5.422   3.147   3.334 -1.5124  1.3524  0.0045
   40MOL   C33833176   4.273   3.606   3.497  0.8288 -0.2637  0.3028
   40MOL   C33933177   4.307   3.761   3.471 -0.5553  0.5261 -0.1720
   40MOL   C34033178   4.254   3.797   3.334 -0.0387 -0.1339 -0.2283
   40MOL   C34133179   4.352   3.774   3.222 -0.1610 -0.7966  0.1868
   40MOL   C34233180   4.295   3.771   3.082 -0.2003  0.5433  0.6768
   40MOL   C34333181   4.397   3.728   2.976  0.6065 -0.0210 -0.1048
   40MOL   C34433182   4.341   3.767   2.839  0.2552  0.5180 -0.8485
   40MOL   C34533183   4.434   3.724   2.719  0.2955 -0.0257  0.0566
   40MOL   C34633184   4.385   3.771   2.584  0.6577  0.2628  0.6077
   40MOL   C34733185   4.445   3.697   2.459 -0.3283  0.3454 -0.4124
   40MOL   C34833186   4.595   3.692   2.450  0.3635 -0.5623  0.7926
   40MOL   C34933187   4.637   3.647   2.305 -0.0705  0.1276  0.5790
   40MOL   C35033188   4.791   3.638   2.297 -0.7094  0.2219 -0.2328
   40MOL   C35133189   4.847   3.773   2.272  0.0315 -0.7920  0.9349
   40MOL   H35233190   4.298   3.545   3.410  0.5724 -1.2913  0.9276
   40MOL   H35333191   4.164   3.599   3.505  0.6705  0.7867 -0.8273
   40MOL   H35433192   4.415   3.776   3.477 -0.2943 -1.1296 -0.3342
   40MOL   H35533193   4.165   3.737   3.315  1.6090 -2.6758 -0.1559
   40MOL   H35633194   4.225   3.901   3.338  0.9103  0.1436 -0.3139
   40MOL   H35733195   4.388   3.676   3.253 -0.3469 -0.1288  2.6278
   40MOL   H35833196   4.436   3.843   3.235 -0.1702 -0.8362  0.4632
   40MOL   H35933197   4.249   3.867   3.059 -1.0727  0.0207  0.2033
   40MOL   H36033198   4.218   3.693   3.085  1.5781 -1.2623  0.6151
   40MOL   H36133199   4.492   3.777   2.999 -0.4383  1.9069  0.2903
   40MOL   H36233200   4.421   3.624   2.994 -1.4325 -0.4004  0.6069
   40MOL   H36333201   4.244   3.722   2.821  1.7110 -2.0422 -2.6387
   40MOL   H36433202   4.337   3.876   2.838  1.2104  0.5573 -1.8962
   40MOL   H36533203   4.537   3.757   2.724  0.6616 -1.3506  1.5720
   40MOL   H36633204   4.436   3.615   2.715 -1.3891 -0.0872  0.1635
   40MOL   H36733205   4.280   3.745   2.572  0.5672  1.0641 -0.3691
   40MOL   H36833206   4.403   3.878   2.571 -1.8795  0.5579 -0.8155
   40MOL   H36933207   4.408   3.595   2.462 -0.5617  0.4106 -1.0000
   40MOL   H37033208   4.411   3.758   2.374  2.3139  1.1094 -0.9789
   40MOL   H37133209   4.639   3.631   2.529  1.6112  0.3763  0.8374
   40MOL   H37233210   4.637   3.792   2.464 -1.5413  0.3947 -0.0532
   40MOL   H37333211   4.592   3.704   2.223 -0.0177 -1.6989 -0.7380
   40MOL   H37433212   4.605   3.546   2.280 -0.7266  0.9234 -1.9589
   40MOL   H37533213   4.841   3.591   2.381 -0.1756  2.3663  0.6872
   40MOL   H37633214   4.825   3.576   2.214 -1.1583 -0.9139  0.4280
   40MOL   H37733215   4.807   3.819   2.181  0.9629  1.3867  1.5958
   40MOL   H37833216   4.833   3.849   2.349  0.3323  1.3537 -1.0416
   40MOL   H37933217   4.956   3.778   2.262 -0.0191  0.3364  0.8435
   40MOL   C38033218   4.232   3.837   3.578 -0.7079 -0.0581  0.3153
   40MOL   C38133219   4.318   3.894   3.696  0.2882 -0.1267 -0.3239
   40MOL   C38233220   4.390   4.036   3.663 -0.2030  0.5608 -0.0713
   40MOL   C38333221   4.509   4.038   3.564  0.2424  0.2442 -0.0330
   40MOL   C38433222   4.636   3.982   3.626 -0.3119 -0.0216 -0.1225
   40MOL   C38533223   4.770   3.990   3.543  0.1859  0.2603  0.0845
   40MOL   C38633224   4.755   3.898   3.415  0.1207 -0.2066 -0.8722
   40MOL   C38733225   4.859   3.942   3.303 -0.6145 -0.0769 -0.2024
   40MOL   C38833226   5.012   3.957   3.354 -0.6831 -0.4933 -0.0464
   40MOL   C38933227   5.119   3.968   3.246  0.0989  0.2350 -0.3524
   40MOL   C39033228   5.261   3.978   3.307  0.0045  0.0020 -0.1771
   40MOL   C39133229   5.386   3.980   3.224  0.1161 -0.0971  0.3814
   40MOL   C39233230   5.515   4.022   3.300 -0.0513  0.2375 -0.5335
   40MOL   C39333231   5.639   4.015   3.212  0.0021  0.8625  0.0915
   40MOL   H39433232   4.150   3.774   3.611 -1.1231 -0.4139 -1.3742
   40MOL   H39533233   4.188   3.926   3.533  0.2676  0.8496  1.0841
   40MOL   H39633234   4.399   3.821   3.706  1.2035  0.7090 -1.3910
   40MOL   H39733235   4.423   4.090   3.752 -0.6786  2.3571 -0.9605
   40MOL   H39833236   4.321   4.111   3.622  0.2823  0.5902 -0.8575
   40MOL   H39933237   4.516   4.142   3.532 -0.8733  0.0471 -0.9422
   40MOL   H40033238   4.475   3.986   3.475 -0.4710  0.5173  0.0732
   40MOL   H40133239   4.615   3.877   3.649  0.2073  0.2893  1.8261
   40MOL   H40233240   4.654   4.023   3.725  0.8359 -0.5808 -0.0907
   40MOL   H40333241   4.844   3.964   3.618 -0.9797  0.1409  1.2122
   40MOL   H40433242   4.781   4.092   3.504 -3.2478  1.5662  2.2648
   40MOL   H40533243   4.773   3.794   3.440  0.1339 -0.2095 -0.8943
   40MOL   H40633244   4.656   3.910   3.372 -0.6123 -0.7770  0.6276
   40MOL   H40733245   4.851   3.891   3.207  1.3769  0.6475 -0.7789
   40MOL   H40833246   4.837   4.047   3.284 -2.7430 -0.1984  1.4270
   40MOL   H40933247   5.027   4.036   3.428 -0.1815 -0.4735 -0.1638
   40MOL   H41033248   5.036   3.861   3.402  0.8553  0.5472  1.3480
   40MOL   H41133249   5.102   4.061   3.191 -0.7356 -0.3286 -1.0708
   40MOL   H41233250   5.113   3.885   3.176 -1.1020 -0.3626  0.4645
   40MOL   H41333251   5.266   4.080   3.345 -1.0465 -0.2097  0.5331
   40MOL   H41433252   5.265   3.896   3.379  3.1581  1.4627  1.4178
   40MOL   H41533253   5.354   4.033   3.134  2.2775  1.2665  0.3872
   40MOL   H41633254   5.400   3.876   3.194  0.9825  0.0978  0.0983
   40MOL   H41733255   5.506   4.122   3.343 -4.0304 -0.6986  1.0343
   40MOL   H41833256   5.516   3.964   3.393  0.7238 -1.2694 -1.4555
   40MOL   H41933257   5.647   3.920   3.160  0.9824  0.5543  0.7961
   40MOL   H42033258   5.730   4.039   3.267 -0.0819 -0.5370  0.8682
   40MOL   H42133259   5.625   4.087   3.131 -1.0728  0.9627  0.3527
   40MOL   C42233260   4.229   3.918   3.827  0.9766  0.1912  0.2090
   40MOL   C42333261   4.313   3.931   3.955  0.4811  0.2416 -0.3826
   40MOL   C42433262   4.243   4.024   4.060 -0.8840 -0.0089  0.6841
   40MOL   C42533263   4.115   3.971   4.120  0.7271 -0.5128  0.0551
   40MOL   C42633264   4.055   4.063   4.227 -0.7903 -0.1708  0.2493
   40MOL   C42733265   3.933   4.002   4.283  0.6826  0.3267  0.0667
   40MOL   C42833266   3.890   4.071   4.416  0.3360 -0.5016 -0.6719
   40MOL   C42933267   3.758   4.014   4.479 -0.1475 -0.4354  0.6963
   40MOL   C43033268   3.711   4.100   4.596  0.0775  0.7986 -0.5173
   40MOL   C43133269   3.580   4.055   4.653 -0.4039 -0.5015 -0.5665
   40MOL   C43233270   3.469   4.085   4.560  0.3074 -0.2187  0.0147
   40MOL   C43333271   3.340   4.056   4.637  0.5047  0.1547  0.1260
   40MOL   C43433272   3.216   4.087   4.552  0.2625  0.2569 -0.3596
   40MOL   C43533273   3.099   4.040   4.636  0.6233 -0.2819  0.2213
   40MOL   H43633274   4.169   3.828   3.839 -0.1027  0.9709  0.7394
   40MOL   H43733275   4.172   4.010   3.815  0.1262 -0.4213 -0.4333
   40MOL   H43833276   4.409   3.971   3.923  0.2986  0.7500 -0.2912
   40MOL   H43933277   4.236   4.120   4.009  0.5587  0.4897  1.3916
   40MOL   H44033278   4.312   4.055   4.138 -0.1454 -0.1059  0.0734
   40MOL   H44133279   4.031   3.973   4.051 -0.0805 -0.2529  1.0278
   40MOL   H44233280   4.115   3.864   4.143  1.4640 -1.0627 -2.4083
   40MOL   H44333281   4.024   4.162   4.192  1.6477 -0.2127 -2.1685
   40MOL   H44433282   4.127   4.074   4.308  1.4979 -0.3341 -1.7095
   40MOL   H44533283   3.942   3.894   4.295 -2.1129  0.3345  2.9066
   40MOL   H44633284   3.851   4.016   4.213  1.5473  4.5819 -0.2375
   40MOL   H44733285   3.976   4.066   4.483  0.5138 -1.8290 -0.9831
   40MOL   H44833286   3.880   4.174   4.385 -1.1385 -0.4225  0.0146
   40MOL   H44933287   3.691   4.004   4.394  0.8553 -0.1509 -0.1394
   40MOL   H45033288   3.777   3.914   4.518 -2.3893 -0.8648  0.7581
   40MOL   H45133289   3.782   4.090   4.678 -0.0920 -0.9775 -0.5763
   40MOL   H45233290   3.709   4.205   4.568  0.3255  0.5253 -1.5741
   40MOL   H45333291   3.586   3.951   4.684 -2.3413 -0.8364 -1.2759
   40MOL   H45433292   3.563   4.110   4.746 -1.3286  1.1205 -1.6695
   40MOL   H45533293   3.473   4.188   4.522  1.2340 -0.6657 -1.1295
   40MOL   H45633294   3.467   4.023   4.470 -0.1803  0.4537 -0.4451
   40MOL   H45733295   3.331   4.123   4.722  0.2776  0.5293 -0.1913
   40MOL   H45833296   3.342   3.952   4.670  1.0602  0.4437  0.9997
   40MOL   H45933297   3.206   4.194   4.531  1.3733  0.8137  1.7395
   40MOL   H46033298   3.219   4.036   4.456  2.0171 -1.0617  0.3699
   40MOL   H46133299   3.098   4.073   4.740 -0.9643 -0.7726  0.3768
   40MOL   H46233300   3.089   3.932   4.630  0.5194 -0.2982  0.6303
   40MOL   H46333301   3.001   4.068   4.600  1.0320  1.6574  0.5507
   40MOL   C46433302   4.364   3.796   4.020 -0.0488 -0.6353  0.5063
   40MOL   C46533303   4.458   3.810   4.141 -0.2768  0.1636  0.1725
   40MOL   C46633304   4.471   3.673   4.215  0.6032  0.4225 -0.2909
   40MOL   C46733305   4.523   3.561   4.127 -0.6491  1.0425  0.6427
   40MOL   C46833306   4.543   3.447   4.218  0.3079  0.0152 -0.5006
   40MOL   C46933307   4.551   3.318   4.139  0.5693  0.3033 -0.1541
   40MOL   C47033308   4.565   3.194   4.222  0.1949 -0.6100 -0.0165
   40MOL   C47133309   4.450   3.166   4.320  0.8181 -0.1232 -0.4851
   40MOL   C47233310   4.456   3.027   4.379 -0.1620 -0.5174 -0.1123
   40MOL   C47333311   4.360   3.001   4.499 -0.4071 -0.2496 -0.4275
   40MOL   C47433312   4.353   2.855   4.541  0.1021 -0.3175  0.2151
   40MOL   C47533313   4.239   2.832   4.641 -0.0713  0.2336  0.0794
   40MOL   C47633314   4.227   2.687   4.672  0.4496 -0.2455  0.5967
   40MOL   C47733315   4.098   2.652   4.750  0.3438  0.1572 -0.2787
   40MOL   H47833316   4.403   3.732   3.941  0.2321 -0.3226  0.3957
   40MOL   H47933317   4.276   3.741   4.054 -0.1553 -0.6085  0.2745
   40MOL   H48033318   4.402   3.875   4.208 -0.2534  0.5050 -0.1382
   40MOL   H48133319   4.533   3.682   4.305 -0.3845  2.2409  0.2263
   40MOL   H48233320   4.371   3.647   4.248  0.2812  1.1475 -0.6968
   40MOL   H48333321   4.618   3.576   4.077 -0.8369 -0.5087 -0.2025
   40MOL   H48433322   4.445   3.537   4.054  0.8368 -1.8052 -0.0864
   40MOL   H48533323   4.460   3.446   4.289  2.9296  2.8465  2.7535
   40MOL   H48633324   4.634   3.457   4.277 -1.5349  1.6528  2.1792
   40MOL   H48733325   4.464   3.305   4.075 -0.4327  0.3334  1.1862
   40MOL   H48833326   4.639   3.320   4.075 -0.5373  1.5724 -1.6827
   40MOL   H48933327   4.575   3.108   4.156  1.3278 -0.2684 -0.3070
   40MOL   H49033328   4.664   3.196   4.269  0.0520  0.5200  0.2588
   40MOL   H49133329   4.459   3.226   4.411 -3.2498  0.2736 -0.2412
   40MOL   H49233330   4.350   3.190   4.285 -0.3118 -1.3669  1.8001
   40MOL   H49333331   4.444   2.964   4.291  1.1940 -0.0759 -0.6295
   40MOL   H49433332   4.552   3.011   4.428  0.1506  1.1363 -0.1701
   40MOL   H49533333   4.386   3.058   4.589  1.4678  0.3958 -1.3514
   40MOL   H49633334   4.260   3.032   4.470  0.4379  2.1642 -0.8969
   40MOL   H49733335   4.346   2.798   4.448  1.5217  0.9445 -0.6649
   40MOL   H49833336   4.442   2.825   4.596  0.6104 -2.0168 -1.4742
   40MOL   H49933337   4.147   2.858   4.589  0.5590  0.1001 -1.1146
   40MOL   H50033338   4.251   2.896   4.728  0.2009 -0.1129  0.2996
   40MOL   H50133339   4.212   2.626   4.583  1.4912  2.5890 -1.6085
   40MOL   H50233340   4.319   2.643   4.712 -0.7717 -1.5372  2.0539
   40MOL   H50333341   4.010   2.686   4.694  0.4343 -1.7356 -1.6349
   40MOL   H50433342   4.086   2.546   4.774 -0.4741  0.2933 -0.0562
   40MOL   H50533343   4.089   2.703   4.846 -0.2607 -0.5244  0.0365
   40MOL   C50633344   4.596   3.859   4.088  0.6732  0.0397 -0.4696
   40MOL   C50733345   4.706   3.890   4.195  1.0575 -0.2098  0.9230
   40MOL   C50833346   4.835   3.936   4.115  0.4309 -0.3479  0.3588
   40MOL   C50933347   4.830   4.055   4.025 -0.0667  1.1940 -0.5243
   40MOL   C51033348   4.972   4.093   3.966 -0.4494  0.0967 -0.3135
   40MOL   C51133349   4.961   4.215   3.863 -0.1472 -0.0572 -0.0101
   40MOL   C51233350   4.925   4.357   3.929 -0.1952 -0.6162 -0.4443
   40MOL   C51333351   4.937   4.478   3.833  0.0043 -0.0372  0.4118
   40MOL   C51433352   4.908   4.610   3.909  0.3005  0.1604 -0.3886
   40MOL   C51533353   4.933   4.742   3.836 -0.3087  0.7178  0.8861
   40MOL   C51633354   4.862   4.856   3.920 -0.9684 -0.3169 -0.1791
   40MOL   C51733355   4.895   4.998   3.864 -0.0134  0.3947  0.7739
   40MOL   C51833356   4.877   5.098   3.979 -0.9018  0.2439 -0.2519
   40MOL   C51933357   4.938   5.233   3.953 -0.3081 -0.9401 -0.0451
   40MOL   H52033358   4.580   3.948   4.027 -1.6971 -1.0050 -1.4522
   40MOL   H52133359   4.640   3.805   4.005  0.2083 -2.3276  0.8016
   40MOL   H52233360   4.732   3.796   4.241  2.4753 -0.1421  0.2658
   40MOL   H52333361   4.906   3.964   4.192  0.1825  0.9848  0.1116
   40MOL   H52433362   4.875   3.851   4.059  2.2212 -0.9925  2.5689
   40MOL   H52533363   4.751   4.052   3.951 -0.7937  1.4619  0.2272
   40MOL   H52633364   4.794   4.132   4.094  0.4671  1.1371 -0.1747
   40MOL   H52733365   5.009   4.010   3.905 -0.4967  0.0880 -0.3297
   40MOL   H52833366   5.049   4.107   4.042 -0.8860  1.5115 -0.1138
   40MOL   H52933367   4.892   4.193   3.781  1.6108  1.7295 -2.0406
   40MOL   H53033368   5.060   4.223   3.819  0.3153  1.1364  1.2336
   40MOL   H53133369   4.830   4.356   3.983 -1.4713  1.5919 -2.5086
   40MOL   H53233370   4.994   4.387   4.008  0.3887  1.0496 -1.5394
   40MOL   H53333371   4.862   4.482   3.754  0.6218  0.0339 -0.1726
   40MOL   H53433372   5.033   4.481   3.782 -0.1739 -1.3542 -0.0445
   40MOL   H53533373   4.979   4.614   3.991 -1.5914  1.3412  1.2570
   40MOL   H53633374   4.807   4.606   3.952  0.3523  2.2193 -0.0201
   40MOL   H53733375   5.041   4.756   3.826 -0.1967 -2.1192 -2.5690
   40MOL   H53833376   4.900   4.741   3.733  1.3974  2.5375  0.2883
   40MOL   H53933377   4.757   4.836   3.902 -0.7184 -0.0934 -1.9348
   40MOL   H54033378   4.905   4.841   4.019  0.3715  1.5505 -0.4345
   40MOL   H54133379   4.838   5.025   3.775 -2.3865 -0.2648  2.0329
   40MOL   H54233380   5.000   5.006   3.835 -0.5549  3.1455 -0.6100
   40MOL   H54333381   4.917   5.058   4.072  0.7943 -0.4782 -1.2655
   40MOL   H54433382   4.770   5.112   3.994 -0.6997  1.2460  0.2952
   40MOL   H54533383   4.938   5.297   4.041  1.0499 -1.9641  0.7131
   40MOL   H54633384   5.046   5.236   3.940 -0.3354  0.2683 -0.0763
   40MOL   H54733385   4.882   5.268   3.865 -0.1576  2.2326  1.0718
   40MOL   C54833386   4.662   3.996   4.297  0.8893 -0.4748 -0.4648
   40MOL   C54933387   4.652   3.946   4.447 -0.4599 -0.7788 -0.4635
   40MOL   C55033388   4.788   3.943   4.529 -0.4263  0.5663 -0.6882
   40MOL   C55133389   4.846   4.083   4.544  0.2354  0.0769  0.5071
   40MOL   C55233390   4.982   4.090   4.613  0.5216 -0.3976 -0.1371
   40MOL   C55333391   5.028   4.227   4.653 -0.5530 -0.3375 -0.0107
   40MOL   C55433392   5.036   4.323   4.537 -0.3758  0.8373  0.4124
   40MOL   C55533393   5.144   4.287   4.425 -0.7003  0.3241 -0.1245
   40MOL   C55633394   5.173   4.385   4.310  0.1544 -0.2131 -0.0902
   40MOL   C55733395   5.213   4.528   4.354 -0.3746  0.4238 -0.3420
   40MOL   C55833396   5.221   4.628   4.243 -0.2417  0.2449  0.1264
   40MOL   C55933397   5.237   4.770   4.284 -0.8526  0.8054 -0.0231
   40MOL   C56033398   5.211   4.876   4.171 -0.5856  0.1026 -0.2031
   40MOL   C56133399   5.311   4.877   4.058 -0.1296  0.1855 -0.2751
   40MOL   H56233400   4.728   4.083   4.302  0.6417 -0.3964  1.5578
   40MOL   H56333401   4.564   4.034   4.267  1.0218 -0.8745 -1.4365
   40MOL   H56433402   4.620   3.842   4.435  1.1732 -1.1972 -1.3529
   40MOL   H56533403   4.773   3.889   4.623  1.7585 -0.5282 -0.9377
   40MOL   H56633404   4.859   3.885   4.471  1.6936 -0.6409  2.9712
   40MOL   H56733405   4.777   4.137   4.609 -1.7348 -1.5455 -0.1515
   40MOL   H56833406   4.853   4.138   4.450  0.1729  1.2242  1.1697
   40MOL   H56933407   4.977   4.030   4.704 -2.6305 -1.8469 -1.2241
   40MOL   H57033408   5.060   4.037   4.559  0.8781  0.1045 -0.1189
   40MOL   H57133409   5.126   4.224   4.700 -0.9966 -1.0549  0.8707
   40MOL   H57233410   4.961   4.277   4.722 -0.8700 -1.5206  0.5406
   40MOL   H57333411   4.933   4.334   4.502 -0.3090 -2.9948 -1.2728
   40MOL   H57433412   5.066   4.417   4.584 -0.9356  2.2870 -2.0302
   40MOL   H57533413   5.118   4.186   4.393 -1.5272 -0.0126  1.5396
   40MOL   H57633414   5.241   4.265   4.469 -1.9638 -1.7746  1.7408
   40MOL   H57733415   5.074   4.402   4.267  0.2697  3.4583  0.9167
   40MOL   H57833416   5.245   4.341   4.241 -1.9927 -1.0416 -1.8592
   40MOL   H57933417   5.156   4.579   4.431  2.2918  0.5416  1.6214
   40MOL   H58033418   5.307   4.515   4.407 -0.8940  1.6300  0.9165
   40MOL   H58133419   5.141   4.630   4.168 -0.3667  1.3957  0.2847
   40MOL   H58233420   5.314   4.597   4.195  1.2133  1.9964  1.7653
   40MOL   H58333421   5.172   4.793   4.369  0.0165 -1.3560  1.2515
   40MOL   H58433422   5.337   4.768   4.326 -0.9164 -0.5089  0.1001
   40MOL   H58533423   5.108   4.865   4.138 -1.5334  4.4113  0.9277
   40MOL   H58633424   5.208   4.978   4.210 -0.3062 -0.1229  0.4085
   40MOL   H58733425   5.278   4.941   3.976 -2.1373 -2.4668 -1.6054
   40MOL   H58833426   5.405   4.925   4.084 -0.7824  1.6584 -0.5724
   40MOL   H58933427   5.334   4.784   4.006  0.1361  0.4623 -0.6516
   40MOL   C59033428   4.551   4.020   4.532  0.0253  0.0483 -0.4330
   40MOL   C59133429   4.400   4.007   4.506  0.9181 -0.2154  0.3729
   40MOL   C59233430   4.362   3.860   4.539  0.1002 -0.9915 -0.3583
   40MOL   C59333431   4.220   3.827   4.486  0.9303 -0.0862 -0.1290
   40MOL   C59433432   4.163   3.692   4.525  0.2496  0.1452 -0.6433
   40MOL   C59533433   4.026   3.672   4.469  0.2086 -0.0328  0.2263
   40MOL   C59633434   3.955   3.554   4.544  0.1598 -0.7774  0.6841
   40MOL   C59733435   3.820   3.509   4.484 -0.3824  0.1774 -0.4460
   40MOL   C59833436   3.717   3.626   4.468 -0.8944  0.7800  0.4715
   40MOL   C59933437   3.581   3.559   4.443 -0.4477  0.1478  0.1675
   40MOL   C60033438   3.458   3.645   4.456 -0.8884 -0.1194 -0.1761
   40MOL   C60133439   3.329   3.584   4.397 -0.7240  0.3741  0.3617
   40MOL   C60233440   3.217   3.687   4.392  0.4703  0.6605  0.2349
   40MOL   C60333441   3.106   3.632   4.304  0.3092 -0.1279 -0.5553
   40MOL   H60433442   4.580   4.123   4.509  0.8889 -0.5254 -1.9522
   40MOL   H60533443   4.565   3.998   4.638  2.4641 -1.8249 -1.1012
   40MOL   H60633444   4.372   4.021   4.402 -1.9445 -0.3437  1.1022
   40MOL   H60733445   4.372   3.849   4.647 -1.5984  2.6041  0.2770
   40MOL   H60833446   4.419   3.786   4.485  0.3951 -1.9960  1.3017
   40MOL   H60933447   4.231   3.839   4.378 -0.2236 -0.5422 -0.3004
   40MOL   H61033448   4.147   3.906   4.504 -0.5852 -1.5063  0.0268
   40MOL   H61133449   4.167   3.699   4.634 -0.8787  0.4053 -0.6084
   40MOL   H61233450   4.222   3.613   4.477 -0.6394 -2.3856  2.2539
   40MOL   H61333451   4.025   3.650   4.362 -1.3640 -0.8512  0.3923
   40MOL   H61433452   3.967   3.763   4.483  1.1930  0.6838 -0.2122
   40MOL   H61533453   4.030   3.475   4.551  0.2097 -0.8899 -0.8966
   40MOL   H61633454   3.933   3.583   4.646 -0.7534 -2.6776  1.0525
   40MOL   H61733455   3.833   3.458   4.389  3.3394 -0.8950  0.5743
   40MOL   H61833456   3.779   3.438   4.555 -0.1500  1.6863  1.2325
   40MOL   H61933457   3.715   3.683   4.561  0.8322  0.0558  0.9691
   40MOL   H62033458   3.727   3.705   4.394 -0.1632  0.7911  0.5832
   40MOL   H62133459   3.581   3.511   4.345 -1.6944 -0.0246  0.2402
   40MOL   H62233460   3.571   3.481   4.519  0.3017 -0.3919 -0.2779
   40MOL   H62333461   3.470   3.747   4.421  0.9181 -0.5171 -0.8082
   40MOL   H62433462   3.435   3.660   4.562  1.8276  1.0875  0.2918
   40MOL   H62533463   3.307   3.489   4.446  0.9305 -0.1065  0.2021
   40MOL   H62633464   3.349   3.563   4.292 -0.5833  1.3259  0.1929
   40MOL   H62733465   3.183   3.688   4.495 -0.9075  1.0585 -0.2036
   40MOL   H62833466   3.234   3.789   4.358 -2.7302  1.4748  0.9150
   40MOL   H62933467   3.064   3.546   4.357 -2.1986  1.9556  0.9529
   40MOL   H63033468   3.140   3.591   4.208 -0.0167 -2.4676  0.2978
   40MOL   H63133469   3.027   3.702   4.278  2.3590  1.8402 -1.7270
   40MOL   C63233470   4.329   4.119   4.589  0.2902 -0.5556  0.1527
   40MOL   C63333471   4.347   4.265   4.539  0.1416  0.2899 -0.4993
   40MOL   C63433472   4.208   4.330   4.502  0.1927  0.2160  0.1323
   40MOL   C63533473   4.111   4.366   4.620 -0.2164  0.4626  0.0649
   40MOL   C63633474   3.979   4.430   4.578 -1.3233 -0.2168 -0.4086
   40MOL   C63733475   3.868   4.428   4.681 -0.0987 -0.0431  0.8368
   40MOL   C63833476   3.737   4.499   4.627  0.1176 -0.0255 -0.2106
   40MOL   C63933477   3.609   4.449   4.697  0.1130  0.3421  0.1003
   40MOL   C64033478   3.617   4.431   4.849 -0.0951  0.1413 -0.2202
   40MOL   C64133479   3.482   4.386   4.906  0.2175 -0.1346  0.1727
   40MOL   C64233480   3.492   4.343   5.053  0.5351 -0.5978 -0.6875
   40MOL   C64333481   3.539   4.194   5.085  0.3199  0.2071  0.6897
   40MOL   C64433482   3.500   4.148   5.219 -0.6407 -0.7647 -0.4853
   40MOL   C64533483   3.535   4.004   5.267 -0.3328 -0.3376 -0.2706
   40MOL   H64633484   4.363   4.120   4.693 -0.4775 -1.4315  0.4170
   40MOL   H64733485   4.223   4.099   4.606  0.0177  1.0745  0.5684
   40MOL   H64833486   4.395   4.265   4.440 -1.0478 -2.7120 -1.1257
   40MOL   H64933487   4.227   4.419   4.441  0.5493 -2.0778 -3.2161
   40MOL   H65033488   4.159   4.258   4.437 -2.5123  2.2451 -0.1674
   40MOL   H65133489   4.166   4.429   4.690  1.4766 -1.0385  0.1239
   40MOL   H65233490   4.079   4.272   4.665  1.5455  1.2774  3.2053
   40MOL   H65333491   3.945   4.383   4.486  0.2884 -2.0920 -0.0973
   40MOL   H65433492   3.999   4.531   4.544  0.5424 -0.4802 -0.1231
   40MOL   H65533493   3.859   4.325   4.716 -1.0038 -0.6146 -1.0397
   40MOL   H65633494   3.911   4.479   4.767  0.7051  1.2650 -0.3280
   40MOL   H65733495   3.766   4.600   4.655  3.6805 -0.2308 -2.7223
   40MOL   H65833496   3.727   4.500   4.518  2.1549 -1.7671 -0.4613
   40MOL   H65933497   3.578   4.352   4.657 -1.7990  0.7955  0.4152
   40MOL   H66033498   3.531   4.518   4.664 -0.2353 -0.0050  0.2019
   40MOL   H66133499   3.663   4.524   4.885  2.4324  0.8912 -4.9989
   40MOL   H66233500   3.689   4.351   4.865 -0.8897 -0.3762  0.8566
   40MOL   H66333501   3.409   4.466   4.896 -0.3619 -0.4134  1.9202
   40MOL   H66433502   3.445   4.303   4.846 -1.7203  1.4093 -0.8359
   40MOL   H66533503   3.539   4.412   5.124  1.4824 -0.7844 -1.1290
   40MOL   H66633504   3.385   4.341   5.077  0.5044  1.9536 -0.3588
   40MOL   H66733505   3.647   4.191   5.065  0.4563 -0.6883  1.5270
   40MOL   H66833506   3.488   4.129   5.014  0.1085 -1.5937  2.4492
   40MOL   H66933507   3.393   4.162   5.204 -0.8140  0.8923  1.9339
   40MOL   H67033508   3.544   4.222   5.286  0.9461 -0.1031 -2.2338
   40MOL   H67133509   3.480   3.924   5.217  0.0912  0.1689 -1.5692
   40MOL   H67233510   3.639   3.977   5.249 -0.0502  0.2890  0.4130
   40MOL   H67333511   3.529   3.997   5.375  0.7109 -0.1062 -0.1942
   40MOL   C67433512   4.436   4.355   4.631 -1.0495  0.3289  0.1703
   40MOL   C67533513   4.511   4.468   4.557 -0.0940  0.8898 -0.6369
   40MOL   C67633514   4.558   4.591   4.650  0.3065  0.4733  0.3701
   40MOL   C67733515   4.436   4.667   4.699  0.3237 -0.4110 -0.5334
   40MOL   C67833516   4.385   4.778   4.614  0.3320 -0.0688 -0.2521
   40MOL   C67933517   4.278   4.864   4.696  0.2302  0.3129  0.3130
   40MOL   C68033518   4.210   4.980   4.623 -0.7881  0.3061  0.1211
   40MOL   C68133519   4.098   5.029   4.717  0.6274 -0.2107 -0.6917
   40MOL   C68233520   4.012   5.140   4.659  0.0535 -0.1119 -0.2518
   40MOL   C68333521   3.890   5.188   4.744 -0.5663  0.9419 -0.0283
   40MOL   C68433522   3.817   5.312   4.678  0.3537  0.1878 -0.0719
   40MOL   C68533523   3.897   5.443   4.691  0.6547  0.3560 -0.1118
   40MOL   C68633524   3.818   5.580   4.684 -0.0784 -0.0909 -0.0054
   40MOL   C68733525   3.907   5.711   4.702  0.2278 -0.0369  0.3892
   40MOL   H68833526   4.507   4.291   4.685 -0.9644 -1.6846 -2.2217
   40MOL   H68933527   4.373   4.401   4.707  1.9575  2.1468  1.6466
   40MOL   H69033528   4.435   4.505   4.488 -1.6766  0.8616  1.0595
   40MOL   H69133529   4.613   4.541   4.729  2.1407 -0.4841 -1.4607
   40MOL   H69233530   4.634   4.657   4.607  0.9271  0.1054  0.8918
   40MOL   H69333531   4.357   4.610   4.748 -0.2319 -0.0643 -1.0128
   40MOL   H69433532   4.476   4.713   4.789 -1.9919 -1.6827  1.2081
   40MOL   H69533533   4.473   4.838   4.592  1.0052 -0.4716  1.2447
   40MOL   H69633534   4.343   4.742   4.520 -1.5317 -1.1246  0.9387
   40MOL   H69733535   4.195   4.802   4.731  0.1641  0.9702  1.3088
   40MOL   H69833536   4.322   4.894   4.791  1.8737  0.8416 -0.5949
   40MOL   H69933537   4.280   5.062   4.607 -1.4964  0.5672 -1.6810
   40MOL   H70033538   4.170   4.947   4.527 -1.2375  1.5796 -0.1336
   40MOL   H70133539   4.038   4.953   4.768 -1.8039  2.8661  1.1857
   40MOL   H70233540   4.150   5.076   4.801  1.5399 -1.5151 -0.5100
   40MOL   H70333541   4.082   5.219   4.634 -0.8005  0.3156 -1.3373
   40MOL   H70433542   3.971   5.119   4.559 -1.3101 -0.0040  0.2690
   40MOL   H70533543   3.911   5.213   4.848 -1.5625 -0.1185  0.4325
   40MOL   H70633544   3.811   5.113   4.738  0.5934 -0.1017 -3.5817
   40MOL   H70733545   3.718   5.324   4.723  0.4706  1.6348 -0.1851
   40MOL   H70833546   3.793   5.289   4.574  0.6928  1.0209 -0.3336
   40MOL   H70933547   3.977   5.450   4.617 -0.1008 -1.3666 -1.1185
   40MOL   H71033548   3.949   5.437   4.786 -1.5896 -1.3676  1.0542
   40MOL   H71133549   3.764   5.608   4.593  2.2864  3.4238 -0.4314
   40MOL   H71233550   3.755   5.567   4.772 -0.8942 -0.1534 -0.5916
   40MOL   H71333551   3.957   5.737   4.609 -0.3844 -0.0687  0.0428
   40MOL   H71433552   3.842   5.795   4.727 -1.3095 -1.1331  0.1631
   40MOL   H71533553   3.975   5.717   4.787 -0.5703  2.8840  0.9015
   40MOL   C71633554   4.634   4.420   4.468 -0.1421  0.2706 -0.7821
   40MOL   C71733555   4.659   4.509   4.346 -0.0932  0.4572  0.0868
   40MOL   C71833556   4.794   4.585   4.352  0.5154  0.7151  0.4510
   40MOL   C71933557   4.795   4.718   4.274  0.3059 -0.2236  0.5908
   40MOL   C72033558   4.738   4.834   4.362  0.1245  0.0162 -0.3920
   40MOL   C72133559   4.766   4.967   4.288  0.3727 -0.3039  0.1979
   40MOL   C72233560   4.706   5.083   4.363  0.1570 -0.4153  0.4325
   40MOL   C72333561   4.730   5.222   4.302  0.1202  0.1255 -0.6784
   40MOL   C72433562   4.668   5.339   4.379  0.5302  0.0393  0.5892
   40MOL   C72533563   4.721   5.476   4.347  0.5239 -0.0100 -0.5192
   40MOL   C72633564   4.671   5.581   4.451  0.0373 -0.0339 -0.4984
   40MOL   C72733565   4.718   5.714   4.401 -0.1596 -0.0659 -0.3652
   40MOL   C72833566   4.634   5.840   4.446 -0.3286 -0.2204  0.4427
   40MOL   C72933567   4.667   5.862   4.589 -0.2686  0.7061  0.0061
   40MOL   H73033568   4.718   4.394   4.532 -0.1515 -0.0643 -0.9058
   40MOL   H73133569   4.599   4.323   4.433 -1.8253  0.1334  1.1434
   40MOL   H73233570   4.587   4.591   4.343 -0.4542  0.1055 -1.7225
   40MOL   H73333571   4.879   4.529   4.313  0.4549  0.0764  1.2406
   40MOL   H73433572   4.811   4.607   4.458  0.2322  0.6923  0.5024
   40MOL   H73533573   4.901   4.735   4.256 -0.1149  2.1936  0.3175
   40MOL   H73633574   4.745   4.708   4.177  0.8948 -1.9788  0.4448
   40MOL   H73733575   4.633   4.823   4.389  0.3935  0.2738  0.7454
   40MOL   H73833576   4.797   4.831   4.453  2.8138 -0.1620 -2.0909
   40MOL   H73933577   4.875   4.974   4.288  0.3225  0.6059  0.6598
   40MOL   H74033578   4.724   4.959   4.188  0.2030  1.6458  0.1034
   40MOL   H74133579   4.598   5.070   4.368  0.0696  1.1532  3.4567
   40MOL   H74233580   4.744   5.079   4.465  0.4554 -0.5590  0.3149
   40MOL   H74333581   4.685   5.222   4.202 -1.6145  0.2867  0.0778
   40MOL   H74433582   4.836   5.243   4.289 -0.0939  0.0286 -2.8167
   40MOL   H74533583   4.559   5.342   4.381  0.5565  1.7268  0.1924
   40MOL   H74633584   4.689   5.330   4.486  0.8984  1.1593  0.6149
   40MOL   H74733585   4.830   5.476   4.348  0.5345 -0.8559 -1.0217
   40MOL   H74833586   4.681   5.506   4.250 -0.5613  1.1190  0.2574
   40MOL   H74933587   4.564   5.574   4.468  0.0792  1.5223  0.5219
   40MOL   H75033588   4.717   5.558   4.548  0.5460 -1.2608 -1.0149
   40MOL   H75133589   4.824   5.729   4.417 -0.1850  0.3982 -0.6276
   40MOL   H75233590   4.706   5.722   4.293 -2.3354 -0.9476 -0.2322
   40MOL   H75333591   4.531   5.818   4.421 -0.1609  0.7427 -1.1635
   40MOL   H75433592   4.656   5.925   4.381 -1.8807 -0.4567 -0.3992
   40MOL   H75533593   4.614   5.783   4.643 -0.2644 -0.8366 -2.1854
   40MOL   H75633594   4.630   5.960   4.621  0.5230  0.3078  2.2496
   40MOL   H75733595   4.775   5.852   4.603 -0.3501 -0.8362 -0.3434
   40MOL   C75833596   4.639   4.427   4.213  0.7430  0.2002 -0.3989
   40MOL   C75933597   4.504   4.371   4.161  0.3631  0.7220  0.4589
   40MOL   C76033598   4.377   4.456   4.186  0.6519  0.8137 -0.6140
   40MOL   C76133599   4.238   4.398   4.147  0.3536  0.0322  0.0733
   40MOL   C76233600   4.125   4.503   4.150  0.0039 -0.0402  0.1517
   40MOL   C76333601   3.982   4.441   4.124 -0.2204  0.1902 -0.5836
   40MOL   C76433602   3.965   4.364   3.996  0.4128 -0.2130 -0.1042
   40MOL   C76533603   3.827   4.310   3.980 -0.1531 -0.9146 -1.0334
   40MOL   C76633604   3.820   4.236   3.850  0.8654  1.2529 -0.5680
   40MOL   C76733605   3.831   4.322   3.724  0.6101  0.4079 -0.3498
   40MOL   C76833606   3.964   4.298   3.655  0.3850 -0.5075  0.0041
   40MOL   C76933607   3.979   4.389   3.529 -0.0424 -0.4924  0.4104
   40MOL   C77033608   4.116   4.360   3.455 -0.4993  0.4430 -0.4586
   40MOL   C77133609   4.125   4.449   3.330  0.2323 -0.9014  0.0037
   40MOL   H77233610   4.683   4.491   4.136  0.6381  0.8094  0.0424
   40MOL   H77333611   4.710   4.344   4.215 -0.5034 -0.8626  0.3786
   40MOL   H77433612   4.487   4.289   4.231  0.4386 -0.7152 -1.1765
   40MOL   H77533613   4.362   4.495   4.287 -0.0042  0.1404 -0.4463
   40MOL   H77633614   4.393   4.548   4.129  0.9074  0.6578 -0.7943
   40MOL   H77733615   4.245   4.366   4.043 -1.6421  0.3181 -0.1697
   40MOL   H77833616   4.213   4.316   4.214  0.9517 -0.8555 -0.7673
   40MOL   H77933617   4.148   4.579   4.075  2.8057  0.5118  1.5043
   40MOL   H78033618   4.115   4.541   4.252  1.1889 -2.5831  1.2558
   40MOL   H78133619   3.904   4.516   4.132  1.0461  1.5615 -0.7497
   40MOL   H78233620   3.967   4.375   4.210 -0.3527 -0.7163 -1.2966
   40MOL   H78333621   4.000   4.413   3.905 -1.6969 -0.5255 -1.1196
   40MOL   H78433622   4.027   4.277   4.016  2.0081  0.5264 -1.7341
   40MOL   H78533623   3.752   4.389   3.981  0.7776 -0.0119  0.6468
   40MOL   H78633624   3.805   4.244   4.064  1.3709 -0.3245 -0.1489
   40MOL   H78733625   3.721   4.191   3.837  0.7981  1.1928  0.1321
   40MOL   H78833626   3.885   4.149   3.837 -2.4369 -1.5720  0.7317
   40MOL   H78933627   3.823   4.423   3.766 -1.0827  0.1189  0.0497
   40MOL   H79033628   3.751   4.306   3.652  0.0449  0.7229  0.1990
   40MOL   H79133629   4.049   4.315   3.721  1.0736 -0.8351 -0.8014
   40MOL   H79233630   3.964   4.195   3.619 -0.4711 -0.7444  0.6505
   40MOL   H79333631   3.888   4.383   3.469  0.9445 -0.4258 -1.1109
   40MOL   H79433632   3.980   4.493   3.562 -0.4376 -0.8490  1.5574
   40MOL   H79533633   4.200   4.379   3.522 -1.1899  1.5791  0.1045
   40MOL   H79633634   4.115   4.254   3.429 -2.6216 -0.4591  2.9521
   40MOL   H79733635   4.147   4.550   3.365 -0.8553 -1.3423  1.9811
   40MOL   H79833636   4.205   4.419   3.262  1.0043 -1.3512  1.0934
   40MOL   H79933637   4.035   4.451   3.270  0.0243 -1.1489  0.3061
   40MOL   C80033638   4.516   4.309   4.017 -0.6689 -0.0823  0.2876
   40MOL   C80133639   4.503   4.423   3.912  0.1843 -0.0408  0.3208
   40MOL   C80233640   4.497   4.373   3.766  0.2086  0.1615  0.3014
   40MOL   C80333641   4.507   4.496   3.672  0.1370 -0.7275 -0.1841
   40MOL   C80433642   4.389   4.597   3.692 -0.4690  0.4790 -0.1437
   40MOL   C80533643   4.356   4.687   3.581  0.2342  0.6544 -0.1641
   40MOL   C80633644   4.234   4.780   3.612  0.5591  0.0855  0.2597
   40MOL   C80733645   4.167   4.828   3.479 -0.4279  0.4334  0.2017
   40MOL   C80833646   4.256   4.893   3.366  0.3935  0.0660 -0.0939
   40MOL   C80933647   4.171   4.966   3.261  0.0096 -0.6280  0.6698
   40MOL   C81033648   4.252   5.045   3.156 -0.4627  0.8842  0.0147
   40MOL   C81133649   4.348   4.957   3.076 -0.5140  1.2927  0.6089
   40MOL   C81233650   4.390   5.014   2.936  0.0886  0.1777 -0.1701
   40MOL   C81333651   4.440   4.903   2.840 -0.4450 -0.1083  0.0168
   40MOL   H81433652   4.446   4.229   3.993  0.4392 -0.9167 -0.2063
   40MOL   H81533653   4.612   4.257   4.011  0.1881  1.4007  0.6617
   40MOL   H81633654   4.587   4.490   3.931  0.8691 -0.3366 -1.5541
   40MOL   H81733655   4.405   4.318   3.750 -0.4078  1.4996 -0.8995
   40MOL   H81833656   4.575   4.303   3.736 -0.0834 -0.3651  0.7791
   40MOL   H81933657   4.517   4.464   3.568  1.6838 -1.4093  0.1724
   40MOL   H82033658   4.603   4.537   3.702  0.5495 -0.9092 -1.2550
   40MOL   H82133659   4.302   4.537   3.721  0.2502 -1.0555 -1.1027
   40MOL   H82233660   4.410   4.651   3.784  2.1557 -0.6534 -0.0303
   40MOL   H82333661   4.329   4.623   3.498  0.2330 -1.9336  1.7473
   40MOL   H82433662   4.443   4.750   3.558  1.8361 -1.2943  0.3936
   40MOL   H82533663   4.165   4.731   3.681  1.4313 -1.2437  0.2024
   40MOL   H82633664   4.275   4.869   3.661  2.0454 -0.4720  0.0697
   40MOL   H82733665   4.100   4.750   3.441 -2.0880  1.2568  1.3416
   40MOL   H82833666   4.099   4.906   3.512 -0.6038 -0.4507  1.9576
   40MOL   H82933667   4.312   4.964   3.427 -1.0036 -1.2029  2.7708
   40MOL   H83033668   4.334   4.826   3.331  0.0193 -0.5881  0.3011
   40MOL   H83133669   4.122   5.043   3.320  0.1791  0.1332 -0.1727
   40MOL   H83233670   4.105   4.902   3.204  0.1317  1.1246 -1.5003
   40MOL   H83333671   4.184   5.108   3.099  1.7037  0.7837 -2.7535
   40MOL   H83433672   4.320   5.114   3.206  1.5723 -2.6613  2.4104
   40MOL   H83533673   4.314   4.855   3.056  0.2727  1.6210 -2.7214
   40MOL   H83633674   4.437   4.950   3.139  1.5498  3.0064 -1.9915
   40MOL   H83733675   4.307   5.058   2.880 -1.3321 -3.8898 -1.4439
   40MOL   H83833676   4.460   5.096   2.947  1.6138 -0.9732 -1.0369
   40MOL   H83933677   4.474   4.938   2.742 -1.4663  1.1400  0.0933
   40MOL   H84033678   4.519   4.852   2.894 -0.0682 -0.6864 -1.0569
   40MOL   H84133679   4.362   4.830   2.819 -0.4110 -0.1686  0.1016
   40MOL   H84233680   4.425   4.496   3.935  0.8469  0.5109  0.8340
   41MOL     C133681   7.384   2.670   1.745  0.3437 -0.0393  0.0438
   41MOL     C233682   7.335   2.577   1.627 -0.2819  0.9148 -0.5755
   41MOL     C333683   7.457   2.531   1.534 -0.8861  0.4658 -0.2188
   41MOL     C433684   7.566   2.456   1.613  0.3189 -0.5174  0.0292
   41MOL     C533685   7.675   2.397   1.521  0.1405  0.3660  0.1879
   41MOL     C633686   7.632   2.289   1.424 -0.3331  0.7800 -0.5270
   41MOL     C733687   0.048   2.236   1.329 -0.0880  0.3798 -0.0552
   41MOL     C833688   7.687   2.124   1.239  0.6071 -0.0364 -0.1076
   41MOL     C933689   0.093   2.079   1.141  0.4478 -0.3548 -0.8368
   41MOL    C1033690   0.035   1.962   1.052 -1.0388 -0.4900 -0.0870
   41MOL    C1133691   7.636   2.005   0.938  0.3707 -0.7891 -0.5526
   41MOL    C1233692   7.609   1.890   0.847 -0.5340  0.3106  0.0362
   41MOL    C1333693   7.509   1.920   0.739  0.5404  0.9334 -0.2309
   41MOL    C1433694   7.493   1.795   0.643 -1.1710 -0.0808 -0.8076
   41MOL    H1533695   7.440   2.616   1.821 -2.1185 -1.5357  0.8701
   41MOL    H1633696   7.297   2.708   1.797  0.9276  1.5509 -0.1237
   41MOL    H1733697   7.270   2.642   1.568 -0.9302  1.1915  0.4404
   41MOL    H1833698   7.408   2.462   1.466 -0.7686  0.8553 -0.7025
   41MOL    H1933699   7.487   2.617   1.475 -1.6275 -0.6312 -2.2096
   41MOL    H2033700   7.529   2.379   1.680  2.1096 -1.9073 -0.5567
   41MOL    H2133701   7.615   2.534   1.672 -0.4690 -0.9058  1.2060
   41MOL    H2233702   0.053   2.348   1.585  0.3801 -1.0220 -1.1325
   41MOL    H2333703   0.024   2.476   1.461 -0.3295  1.1873  0.9074
   41MOL    H2433704   7.549   2.326   1.363 -1.7999  1.7603  1.9579
   41MOL    H2533705   7.587   2.206   1.479  0.7034 -0.7236 -1.9306
   41MOL    H2633706   0.085   2.316   1.264  0.2970  0.1570 -0.1111
   41MOL    H2733707   0.127   2.191   1.389 -1.0739 -0.3198  0.7252
   41MOL    H2833708   7.607   2.164   1.176  1.4728  0.2604 -1.0268
   41MOL    H2933709   7.647   2.042   1.298 -0.7146  1.2675  0.8526
   41MOL    H3033710   0.124   2.153   1.067  0.4029 -0.5655 -1.0688
   41MOL    H3133711   0.171   2.041   1.206 -2.0457  0.9515  3.1388
   41MOL    H3233712   0.111   1.899   1.007 -0.6355  1.0167 -1.5586
   41MOL    H3333713   7.677   1.889   1.113 -2.1913 -0.3438 -0.8984
   41MOL    H3433714   7.544   2.046   0.980  0.4796  1.1575 -2.1218
   41MOL    H3533715   7.680   2.087   0.880 -0.5545  0.5710  0.6178
   41MOL    H3633716   7.562   1.816   0.912  0.0268  0.4362  0.5895
   41MOL    H3733717   0.005   1.844   0.811  1.0672  1.8620  1.9602
   41MOL    H3833718   7.417   1.943   0.792  1.1385  1.8437  0.4231
   41MOL    H3933719   7.526   2.008   0.676  1.4395 -0.4811 -2.0398
   41MOL    H4033720   7.468   1.707   0.702  0.1630  0.5799  0.7937
   41MOL    H4133721   7.415   1.819   0.570  0.0950 -0.2591 -2.2376
   41MOL    H4233722   7.587   1.778   0.590 -0.6415 -0.3136  0.2047
   41MOL    H4333723   7.446   2.752   1.710 -1.0723 -0.2750 -3.2949
   41MOL    C4433724   7.236   2.466   1.681  0.3347 -0.5167  0.7909
   41MOL    C4533725   7.174   2.364   1.574  0.2301  0.1778 -0.0348
   41MOL    C4633726   7.091   2.433   1.468 -0.2428  0.0271  0.0233
   41MOL    C4733727   6.958   2.497   1.506 -0.6479  0.2202  0.4406
   41MOL    C4833728   6.917   2.578   1.382  1.4794 -0.7447  0.1452
   41MOL    C4933729   6.809   2.683   1.421 -0.0664  0.2540  0.1263
   41MOL    C5033730   6.779   2.777   1.309 -0.5828  0.3008  0.1189
   41MOL    C5133731   6.648   2.863   1.328  0.0079  0.2023 -0.0680
   41MOL    C5233732   6.599   2.910   1.188 -0.2431  0.7406  0.4187
   41MOL    C5333733   6.687   3.011   1.109  0.2970  0.0165  0.3257
   41MOL    C5433734   6.625   3.042   0.968 -0.2567  0.1677 -0.0733
   41MOL    C5533735   6.583   2.921   0.882 -0.0946 -0.3984  0.2671
   41MOL    C5633736   6.566   2.954   0.729 -0.0865 -0.3639 -0.3331
   41MOL    C5733737   6.443   3.043   0.705  0.6384  0.5413 -0.0872
   41MOL    H5833738   7.284   2.408   1.760  1.1191 -1.0148 -0.0401
   41MOL    H5933739   7.151   2.519   1.724 -0.5822  0.7143 -2.4102
   41MOL    H6033740   7.258   2.320   1.520  1.0621  0.0944  1.3002
   41MOL    H6133741   7.164   2.502   1.424  0.2784 -0.9814 -0.7091
   41MOL    H6233742   7.077   2.366   1.383  0.9614 -1.5424  1.0364
   41MOL    H6333743   6.971   2.554   1.598  0.9293  1.6505 -0.6368
   41MOL    H6433744   6.887   2.416   1.521  1.1637 -1.2448  1.4370
   41MOL    H6533745   6.886   2.518   1.297  0.8249  1.4336 -1.1993
   41MOL    H6633746   7.006   2.619   1.335  0.2912  1.2497 -0.4427
   41MOL    H6733747   6.720   2.628   1.453 -0.2974  0.4950 -0.0966
   41MOL    H6833748   6.841   2.752   1.498  2.5287 -0.0915 -0.6059
   41MOL    H6933749   6.874   2.826   1.288 -0.9983  1.7858  1.6165
   41MOL    H7033750   6.758   2.718   1.220 -3.2123  1.4108 -0.0461
   41MOL    H7133751   6.674   2.949   1.390  1.2365  0.7609 -1.3260
   41MOL    H7233752   6.569   2.814   1.384  0.0996  0.4660  0.2985
   41MOL    H7333753   6.591   2.822   1.126  2.2658  0.8988 -0.1938
   41MOL    H7433754   6.506   2.963   1.212  0.3291  1.1611  1.8077
   41MOL    H7533755   6.791   2.979   1.101  0.1507  0.0584 -2.3760
   41MOL    H7633756   6.692   3.105   1.164  2.1447 -0.9829  1.9079
   41MOL    H7733757   6.695   3.109   0.919  0.6540  0.2907  1.3709
   41MOL    H7833758   6.539   3.105   0.989  0.7510  1.2985  0.7182
   41MOL    H7933759   6.656   2.841   0.896 -0.5765 -0.7645  0.7663
   41MOL    H8033760   6.494   2.881   0.932  0.3120 -1.7271 -0.0397
   41MOL    H8133761   6.565   2.859   0.677  2.7246 -0.5472 -0.1206
   41MOL    H8233762   6.653   3.010   0.694 -1.2233  2.8322  1.7479
   41MOL    H8333763   6.433   3.124   0.777 -0.4753  0.1129  0.2597
   41MOL    H8433764   6.360   2.974   0.720  1.3649 -0.4277 -0.4292
   41MOL    H8533765   6.447   3.079   0.602 -1.4224 -0.7150 -0.6315
   41MOL    C8633766   7.092   2.242   1.636  0.5569  0.2842 -0.0280
   41MOL    C8733767   7.050   2.132   1.545  0.4724 -0.2954  0.0381
   41MOL    C8833768   6.929   2.062   1.610  0.3139  0.2757 -1.2783
   41MOL    C8933769   6.955   1.977   1.738  0.8865 -0.2658 -0.1141
   41MOL    C9033770   6.823   1.927   1.796  0.1250  0.3661 -0.7184
   41MOL    C9133771   6.850   1.853   1.929  0.0019  0.5125  0.3030
   41MOL    C9233772   6.721   1.803   2.001 -0.4676  0.2537  0.3168
   41MOL    C9333773   6.756   1.738   2.140  0.0280 -0.1599 -0.3150
   41MOL    C9433774   6.638   1.659   2.212 -0.6026 -0.2153  0.0132
   41MOL    C9533775   6.546   1.745   2.305 -1.5937 -0.3916 -0.0566
   41MOL    C9633776   6.510   1.890   2.262 -0.4239 -0.4686 -0.8956
   41MOL    C9733777   6.403   1.969   2.346 -0.3392 -0.3798 -0.2261
   41MOL    C9833778   6.267   1.969   2.291  0.4610  1.0561 -0.3599
   41MOL    C9933779   6.197   1.844   2.348  0.2609  0.2181 -0.7790
   41MOL   H10033780   7.164   2.210   1.711 -0.8556 -0.2783  1.1104
   41MOL   H10133781   7.015   2.288   1.698  1.0786  2.3778 -0.8824
   41MOL   H10233782   7.016   2.170   1.448 -0.7092  0.7409  0.8512
   41MOL   H10333783   6.850   2.134   1.633  1.9585  1.3592  1.1733
   41MOL   H10433784   6.887   1.998   1.532 -0.7897 -0.1055 -0.3907
   41MOL   H10533785   7.024   1.894   1.724 -0.6437 -1.6517  0.3248
   41MOL   H10633786   7.007   2.036   1.813  2.2216  0.9851 -1.9888
   41MOL   H10733787   6.768   1.862   1.728 -1.4436 -0.6372  1.4487
   41MOL   H10833788   6.754   2.011   1.811  0.5640  0.2274  2.3347
   41MOL   H10933789   6.907   1.916   1.997 -1.7299  1.6340  0.7518
   41MOL   H11033790   6.905   1.765   1.895 -0.9748  0.3219 -0.8092
   41MOL   H11133791   6.658   1.889   2.023  0.1221  0.2312  2.2242
   41MOL   H11233792   6.668   1.730   1.940  0.9008 -1.8714  1.5811
   41MOL   H11333793   6.793   1.820   2.201  1.8728 -2.5018  1.8193
   41MOL   H11433794   6.836   1.665   2.132 -0.2970 -0.5619  0.0316
   41MOL   H11533795   6.583   1.610   2.131  0.8218 -1.2269 -0.3545
   41MOL   H11633796   6.682   1.574   2.263 -0.1107 -0.6035 -1.0335
   41MOL   H11733797   6.601   1.758   2.399 -0.0570  0.1837 -1.0103
   41MOL   H11833798   6.454   1.692   2.330 -1.3956 -0.7319 -0.0377
   41MOL   H11933799   6.601   1.949   2.257 -1.4846  1.1897 -1.2388
   41MOL   H12033800   6.475   1.881   2.159  0.9073  1.2359 -1.5311
   41MOL   H12133801   6.419   1.941   2.450  0.5140  1.2801  0.1108
   41MOL   H12233802   6.429   2.074   2.336 -0.0535 -0.4994 -0.8021
   41MOL   H12333803   6.266   1.958   2.182 -1.2086 -1.6371 -0.1339
   41MOL   H12433804   6.213   2.063   2.298 -0.0924  0.7360 -0.2220
   41MOL   H12533805   6.089   1.851   2.345  0.3719  1.5172 -2.0148
   41MOL   H12633806   6.223   1.750   2.298  0.5061  0.0299 -0.3020
   41MOL   H12733807   6.218   1.837   2.455  0.4674  1.1687 -0.7551
   41MOL   C12833808   7.172   2.037   1.522 -0.6903  0.3038  0.6175
   41MOL   C12933809   7.145   1.922   1.424 -0.4601 -0.6975  0.2317
   41MOL   C13033810   7.110   1.968   1.276 -0.0624 -0.0967 -0.0648
   41MOL   C13133811   7.224   2.031   1.194  0.4040  0.4189  0.5795
   41MOL   C13233812   7.173   2.090   1.056 -1.0532 -0.4405 -0.2046
   41MOL   C13333813   7.133   2.239   1.070  0.3760 -0.0827 -0.1523
   41MOL   C13433814   7.259   2.334   1.051  0.3170 -0.5356  0.3665
   41MOL   C13533815   7.241   2.490   1.078  0.2465  0.2156 -0.1886
   41MOL   C13633816   7.382   2.555   1.066  0.2125 -0.6457 -0.0766
   41MOL   C13733817   7.397   2.709   1.068 -0.1450 -0.1910 -0.2770
   41MOL   C13833818   7.530   2.767   1.038  0.1296 -0.2866 -0.1625
   41MOL   C13933819   7.527   2.920   1.030  0.0868  0.3917 -0.2637
   41MOL   C14033820   7.494   2.995   1.164  0.0641 -0.7251 -0.1640
   41MOL   C14133821   7.495   3.143   1.148  0.0432 -0.1979 -0.6498
   41MOL   H14233822   7.253   2.096   1.479  0.1762 -0.9656  0.4801
   41MOL   H14333823   7.215   1.997   1.613  2.6931  2.4724  0.0833
   41MOL   H14433824   7.061   1.862   1.461 -1.2871  0.9726  1.1298
   41MOL   H14533825   7.074   1.881   1.221 -1.8935  0.9429 -0.5528
   41MOL   H14633826   7.021   2.031   1.273  0.8467  1.2245  0.4203
   41MOL   H14733827   7.267   2.108   1.258 -0.6762  1.5123  0.0008
   41MOL   H14833828   7.294   1.955   1.161 -1.4672  0.4253 -3.7156
   41MOL   H14933829   7.253   2.070   0.985  1.9853  0.7557  2.7472
   41MOL   H15033830   7.089   2.030   1.018 -0.7827 -0.2319 -1.1459
   41MOL   H15133831   7.058   2.256   0.993 -0.6608  2.3934  1.3396
   41MOL   H15233832   7.092   2.267   1.168  0.3472 -1.3654  0.2022
   41MOL   H15333833   7.337   2.294   1.116  2.0712  1.7135 -0.3062
   41MOL   H15433834   7.302   2.317   0.952  0.4063  0.6667  0.1990
   41MOL   H15533835   7.175   2.535   1.004  0.4571  0.1281 -0.4296
   41MOL   H15633836   7.203   2.513   1.177 -0.2596 -0.5541 -0.2050
   41MOL   H15733837   7.437   2.507   1.146 -0.6430  1.1163  1.6032
   41MOL   H15833838   7.437   2.515   0.981  2.9970  0.6411  1.0502
   41MOL   H15933839   7.358   2.741   1.165  0.3832 -1.5317  0.4000
   41MOL   H16033840   7.322   2.747   0.999  0.1651 -0.2077 -0.6203
   41MOL   H16133841   7.588   2.729   1.122 -0.7459 -1.3921 -0.0389
   41MOL   H16233842   7.562   2.719   0.945  1.9334 -4.2905  2.4181
   41MOL   H16333843   7.631   2.943   1.009  0.9034 -2.5973  0.2816
   41MOL   H16433844   7.469   2.953   0.944 -0.5786  0.3263  0.1510
   41MOL   H16533845   7.391   2.969   1.187  0.2912 -0.5076  1.1396
   41MOL   H16633846   7.547   2.954   1.250 -0.1607  1.1228  0.8653
   41MOL   H16733847   7.593   3.189   1.138 -1.3413  2.7624 -1.2231
   41MOL   H16833848   7.421   3.182   1.078  0.0213  1.4519  0.2594
   41MOL   H16933849   7.466   3.186   1.244  0.2405 -1.5979  0.0508
   41MOL   C17033850   7.258   1.822   1.420  0.1014  0.3200 -0.0484
   41MOL   C17133851   7.252   1.716   1.536 -0.3430 -0.2982 -0.4265
   41MOL   C17233852   7.126   1.618   1.524 -0.2632  0.1694  0.1499
   41MOL   C17333853   7.078   1.579   1.669  0.1917 -0.3615  0.3894
   41MOL   C17433854   6.962   1.478   1.673 -0.7589  0.6773 -0.1488
   41MOL   C17533855   6.906   1.451   1.818 -0.5642  0.0572 -0.6669
   41MOL   C17633856   7.008   1.428   1.926  0.6829 -0.2719  0.0604
   41MOL   C17733857   6.937   1.382   2.048  0.9109 -0.1269 -0.4283
   41MOL   C17833858   7.033   1.393   2.170  0.7347  0.3376 -0.3661
   41MOL   C17933859   6.947   1.358   2.289  0.3865 -0.0123 -0.2719
   41MOL   C18033860   7.022   1.391   2.419 -0.4490  0.8005  0.3098
   41MOL   C18133861   6.962   1.344   2.551  0.2183  0.2999 -0.5664
   41MOL   C18233862   6.826   1.397   2.594  0.1102  0.3635  0.2006
   41MOL   C18333863   6.827   1.543   2.638  0.5003  0.5992 -0.6399
   41MOL   H18433864   7.354   1.873   1.428  0.5787 -0.4743 -0.6078
   41MOL   H18533865   7.260   1.779   1.320 -1.3238  2.7710 -1.1571
   41MOL   H18633866   7.237   1.779   1.624 -0.6937  0.2468 -0.8712
   41MOL   H18733867   7.037   1.653   1.471 -1.1700  0.2362  1.6839
   41MOL   H18833868   7.163   1.537   1.462  2.3221  4.0698 -3.7242
   41MOL   H18933869   7.168   1.548   1.722  0.6853  0.7134  0.1976
   41MOL   H19033870   7.041   1.664   1.726  0.5751  0.4681 -0.5767
   41MOL   H19133871   6.878   1.525   1.623 -1.7251  0.8190  1.5597
   41MOL   H19233872   6.995   1.380   1.638 -2.4949  0.0985 -0.2115
   41MOL   H19333873   6.842   1.363   1.816 -0.2255 -0.1787 -1.9632
   41MOL   H19433874   6.831   1.521   1.855 -0.0694 -0.0796  0.6286
   41MOL   H19533875   7.053   1.526   1.941  3.0758 -1.3295  0.1541
   41MOL   H19633876   7.089   1.358   1.906  0.0528 -0.6558 -1.2149
   41MOL   H19733877   6.887   1.286   2.036  2.9644 -1.3388  0.5362
   41MOL   H19833878   6.860   1.458   2.065  0.8955  0.1453 -1.6776
   41MOL   H19933879   7.075   1.493   2.175 -0.1300  0.6727  0.2261
   41MOL   H20033880   7.113   1.319   2.171  0.8058  0.4226  0.5968
   41MOL   H20133881   6.934   1.250   2.295  0.3766  0.0657  1.3243
   41MOL   H20233882   6.846   1.399   2.295  1.2634  2.0018  0.9657
   41MOL   H20333883   7.019   1.499   2.408  2.1693  0.9959  1.2786
   41MOL   H20433884   7.127   1.367   2.403 -0.7869 -0.2888 -0.3554
   41MOL   H20533885   6.948   1.236   2.541  0.8887  0.1286  0.2925
   41MOL   H20633886   7.042   1.352   2.625  1.1607  0.6653 -1.6093
   41MOL   H20733887   6.753   1.386   2.513  0.8010  0.1852 -0.4080
   41MOL   H20833888   6.789   1.336   2.676 -1.0521  2.1792  1.0641
   41MOL   H20933889   6.738   1.562   2.698 -0.5083 -1.0592 -1.6007
   41MOL   H21033890   6.820   1.614   2.556 -0.4598  0.3380 -0.7878
   41MOL   H21133891   6.913   1.566   2.701  1.5669  1.9449 -2.5354
   41MOL   C21233892   7.384   1.639   1.558  0.2564 -0.3288 -0.6457
   41MOL   C21333893   7.497   1.726   1.607  0.5944  0.1952 -0.0454
   41MOL   C21433894   7.527   1.680   1.754 -0.2101 -0.3242 -0.6906
   41MOL   C21533895   7.428   1.724   1.864  0.0972 -0.2468  0.1433
   41MOL   C21633896   7.461   1.685   2.008 -0.1136  0.4027  0.6998
   41MOL   C21733897   7.606   1.700   2.053  0.3870 -0.7188 -0.2620
   41MOL   C21833898   7.610   1.693   2.209 -0.2136  0.2424 -0.4542
   41MOL   C21933899   0.055   1.710   2.275  0.1917 -0.0243 -0.5055
   41MOL   C22033900   0.073   1.675   2.426 -1.0123 -0.4824  0.2898
   41MOL   C22133901   0.059   1.799   2.519  0.2192 -1.0266 -0.4281
   41MOL   C22233902   0.061   1.764   2.669 -0.6864  0.1192  1.0241
   41MOL   C22333903   0.029   1.880   2.754 -0.0993  0.2163 -0.1750
   41MOL   C22433904   7.684   1.852   2.903  0.2282  1.0521 -0.0641
   41MOL   C22533905   7.674   1.985   2.982  0.0277  0.0102  0.4320
   41MOL   H22633906   7.421   1.592   1.467  1.1630 -0.3318 -0.2782
   41MOL   H22733907   7.358   1.555   1.623 -0.8209  0.0674 -0.5453
   41MOL   H22833908   7.481   1.833   1.596  0.3002  0.3139  1.4212
   41MOL   H22933909   7.550   1.574   1.767  0.8270 -0.0948 -0.6291
   41MOL   H23033910   7.618   1.725   1.794 -0.6911 -0.6256  0.7639
   41MOL   H23133911   7.327   1.689   1.846 -0.3474  1.0242  0.1169
   41MOL   H23233912   7.419   1.833   1.860  0.2092 -0.1106  2.7482
   41MOL   H23333913   7.439   1.579   2.010  3.5963 -0.4420  0.4187
   41MOL   H23433914   7.393   1.741   2.072 -2.2957  3.1055 -3.6549
   41MOL   H23533915   7.635   1.796   2.012 -0.0368 -0.4397  0.0904
   41MOL   H23633916   7.665   1.623   2.002  1.5701 -0.9405  1.3796
   41MOL   H23733917   7.541   1.768   2.247 -0.6760 -0.2698 -0.2745
   41MOL   H23833918   7.565   1.600   2.242  1.3016  0.8341  3.5687
   41MOL   H23933919   0.131   1.662   2.214  0.1660 -0.2783 -0.3365
   41MOL   H24033920   0.082   1.813   2.251  2.7285 -0.7889 -1.0392
   41MOL   H24133921   0.173   1.640   2.452 -0.6145 -0.9655 -1.7738
   41MOL   H24233922   0.018   1.589   2.464 -3.2791  1.3241  1.2899
   41MOL   H24333923   0.137   1.870   2.494  1.0868 -2.2139 -1.1435
   41MOL   H24433924   7.655   1.840   2.497  0.5799  1.0659  1.5946
   41MOL   H24533925   0.155   1.715   2.693 -0.1740 -0.5361 -2.1119
   41MOL   H24633926   7.679   1.690   2.688 -0.0430 -1.2480 -1.4640
   41MOL   H24733927   7.634   1.919   2.708 -1.0293 -4.0305 -2.2159
   41MOL   H24833928   0.102   1.961   2.745 -0.8664  0.7697 -1.6431
   41MOL   H24933929   0.059   1.779   2.941 -0.0024 -0.3620 -2.2412
   41MOL   H25033930   7.590   1.798   2.909  0.0827  1.2818 -0.2474
   41MOL   H25133931   7.680   1.975   3.090  1.1352 -0.1023  0.3587
   41MOL   H25233932   0.058   2.050   2.946 -1.3443  1.7403  0.4261
   41MOL   H25333933   7.587   2.041   2.946  2.0576  2.8233 -0.2718
   41MOL   C25433934   7.618   1.701   1.518 -0.3316  0.4254  0.6227
   41MOL   C25533935   0.058   1.772   1.546  0.0861  1.5450  0.0018
   41MOL   C25633936   0.164   1.713   1.451  0.3886  0.1264  0.3206
   41MOL   C25733937   0.231   1.585   1.497 -0.4406  0.0504 -0.0614
   41MOL   C25833938   0.349   1.549   1.404  0.2291  1.8146  0.2055
   41MOL   C25933939   0.324   1.423   1.315 -0.0231 -0.3550 -0.2132
   41MOL   C26033940   0.438   1.365   1.235 -0.0666  0.8438 -0.1436
   41MOL   C26133941   0.403   1.226   1.173 -0.5027  0.7387  0.1794
   41MOL   C26233942   0.504   1.175   1.069 -0.6123 -0.5117 -0.5739
   41MOL   C26333943   0.489   1.031   1.043 -0.0845  0.3188  0.2768
   41MOL   C26433944   0.614   0.956   1.090 -0.2673 -0.1992  0.9712
   41MOL   C26533945   0.644   0.970   1.244  0.6825  0.4535  0.4843
   41MOL   C26633946   0.751   0.874   1.306 -0.3931 -0.0934 -0.2852
   41MOL   C26733947   0.766   0.882   1.454  0.8333  0.3830 -0.8113
   41MOL   H26833948   7.590   1.742   1.421  1.7106  0.6990  0.1165
   41MOL   H26933949   7.631   1.593   1.510  0.6943  0.4124  2.3365
   41MOL   H27033950   0.085   1.758   1.651 -0.7070 -2.5429 -0.2776
   41MOL   H27133951   0.248   1.781   1.438  0.3571  0.1572  0.2776
   41MOL   H27233952   0.140   1.697   1.346  2.7004 -1.8621  0.0529
   41MOL   H27333953   0.149   1.514   1.496 -2.3254  2.1328  1.5634
   41MOL   H27433954   0.267   1.599   1.599 -3.1161  1.0279  0.7893
   41MOL   H27533955   0.429   1.517   1.471 -0.8757  1.8956  1.5947
   41MOL   H27633956   0.398   1.627   1.346  2.8952 -0.2356 -0.4329
   41MOL   H27733957   0.241   1.449   1.250 -1.4129 -1.8070  0.9230
   41MOL   H27833958   0.294   1.341   1.382 -0.2290 -0.6059 -0.6076
   41MOL   H27933959   0.479   1.421   1.151 -2.1602  0.0590 -1.7509
   41MOL   H28033960   0.520   1.355   1.305 -0.6076  2.5790  0.7754
   41MOL   H28133961   0.305   1.240   1.127 -1.1593 -0.8641  1.0552
   41MOL   H28233962   0.394   1.150   1.251 -0.6821 -1.8823 -2.3069
   41MOL   H28333963   0.486   1.231   0.978  0.9304 -0.7679 -1.0436
   41MOL   H28433964   0.598   1.204   1.116 -1.3080  1.5273 -0.3769
   41MOL   H28533965   0.493   1.015   0.935 -2.4300  0.1055  0.1909
   41MOL   H28633966   0.392   0.984   1.053  0.1537 -1.1084 -3.3449
   41MOL   H28733967   0.708   0.983   1.042 -0.0583 -0.1793  1.3891
   41MOL   H28833968   0.608   0.851   1.062 -0.2508  0.6608 -2.4887
   41MOL   H28933969   0.674   1.072   1.267  2.4665 -0.5198  2.8353
   41MOL   H29033970   0.548   0.953   1.294 -0.1152  0.9432 -0.8615
   41MOL   H29133971   0.743   0.771   1.272 -0.0065 -0.1954 -0.0693
   41MOL   H29233972   0.845   0.893   1.254 -0.2237 -0.7616 -0.2179
   41MOL   H29333973   0.687   0.819   1.495  1.0437  0.0446 -0.9277
   41MOL   H29433974   0.767   0.987   1.485 -1.8152 -0.3247  1.9788
   41MOL   H29533975   0.860   0.837   1.485  1.6492  2.2683 -0.5055
   41MOL   C29633976   0.049   1.929   1.525 -0.6380  0.5090 -0.3140
   41MOL   C29733977   0.117   2.015   1.639  0.5461 -0.4520 -0.4896
   41MOL   C29833978   0.032   2.011   1.770  0.4474 -0.6911 -0.3041
   41MOL   C29933979   7.600   2.090   1.769 -0.6756 -0.4991  0.2280
   41MOL   C30033980   7.566   2.163   1.896 -0.2369  0.4517 -0.5611
   41MOL   C30133981   7.551   2.072   2.021 -0.2610  0.4126 -0.9621
   41MOL   C30233982   7.521   2.159   2.143 -0.5700  0.3040  0.0987
   41MOL   C30333983   7.524   2.084   2.275  0.0764  0.0279  0.1682
   41MOL   C30433984   7.461   2.162   2.393 -0.6298  0.5110  0.3130
   41MOL   C30533985   7.556   2.163   2.521  0.4047 -0.5297  0.0048
   41MOL   C30633986   7.497   2.231   2.646 -0.4169 -0.1878  0.1683
   41MOL   C30733987   7.505   2.383   2.646 -0.4950 -0.1371 -0.1652
   41MOL   C30833988   7.447   2.427   2.782  0.0856  0.3747  0.0859
   41MOL   C30933989   7.429   2.579   2.812 -0.5375 -0.1459  0.6934
   41MOL   H31033990   7.643   1.968   1.515 -0.1112  2.3368  1.1121
   41MOL   H31133991   0.096   1.964   1.433 -0.0991  1.5158  0.3392
   41MOL   H31233992   0.115   2.121   1.610 -0.3851  0.2406  1.9730
   41MOL   H31333993   0.095   2.061   1.844 -1.3044  0.4876  0.4259
   41MOL   H31433994   0.012   1.908   1.798  0.5386 -1.0038 -1.3502
   41MOL   H31533995   7.522   2.024   1.732 -0.4985 -0.1181 -0.8778
   41MOL   H31633996   7.601   2.169   1.693 -2.3823 -0.2249  0.4673
   41MOL   H31733997   7.637   2.238   1.931 -0.5286  0.8067 -0.7282
   41MOL   H31833998   7.468   2.210   1.887 -0.3143  0.7579  1.5311
   41MOL   H31933999   7.637   2.014   2.056 -0.9587  0.3199  0.6108
   41MOL   H32034000   7.470   2.002   2.000 -0.2289  0.2394 -0.5136
   41MOL   H32134001   7.594   2.240   2.144  0.0977 -0.2880  0.8850
   41MOL   H32234002   7.423   2.205   2.134  0.2977  2.4642  1.4227
   41MOL   H32334003   7.628   2.053   2.291  0.0957  0.6148  1.2392
   41MOL   H32434004   7.471   1.990   2.262  0.6605 -0.1433 -0.9594
   41MOL   H32534005   7.450   2.263   2.354 -1.7133 -0.7320 -2.7009
   41MOL   H32634006   7.364   2.114   2.405 -0.4366 -0.2316 -1.0283
   41MOL   H32734007   7.647   2.219   2.499  0.6170 -0.9991 -0.3107
   41MOL   H32834008   7.582   2.059   2.541  0.3492 -0.6092 -0.3448
   41MOL   H32934009   7.538   2.181   2.734 -2.0428  0.0691  1.0908
   41MOL   H33034010   7.391   2.206   2.654 -0.1075 -2.4558 -1.8457
   41MOL   H33134011   7.464   2.425   2.554  0.8421  0.0427 -0.7002
   41MOL   H33234012   7.613   2.402   2.642 -0.9721  2.4047 -1.6830
   41MOL   H33334013   7.512   2.395   2.863  1.4813  0.9431 -0.7871
   41MOL   H33434014   7.351   2.377   2.791  0.1148  0.2085 -0.4920
   41MOL   H33534015   7.524   2.633   2.809 -0.0136 -0.9337  2.6612
   41MOL   H33634016   7.368   2.632   2.739 -1.4824 -0.2142  1.4219
   41MOL   H33734017   7.379   2.595   2.907 -1.7526 -1.5157  0.3066
   41MOL   C33834018   0.264   1.999   1.666 -0.1343  0.6927  0.2938
   41MOL   C33934019   0.354   2.067   1.562  0.3245  0.8320  0.7963
   41MOL   C34034020   0.383   2.214   1.589  0.5497  0.0584 -0.1350
   41MOL   C34134021   0.476   2.258   1.705  0.4262 -0.0500 -0.0197
   41MOL   C34234022   0.472   2.409   1.724 -0.0708  0.2002 -0.0815
   41MOL   C34334023   0.339   2.454   1.787  0.1348  0.2499  0.1943
   41MOL   C34434024   0.301   2.392   1.924 -0.3036 -0.0259  0.1881
   41MOL   C34534025   0.214   2.466   2.023  0.2489 -0.5135 -0.3129
   41MOL   C34634026   0.225   2.398   2.161  0.8044 -0.0477  0.1411
   41MOL   C34734027   0.133   2.443   2.265 -0.3713 -0.1539  0.6406
   41MOL   C34834028   0.152   2.592   2.315 -0.6878  0.3401  0.3079
   41MOL   C34934029   0.048   2.644   2.409  0.0804 -0.2342  0.1118
   41MOL   C35034030   0.041   2.798   2.422 -0.9311 -0.0962  0.3490
   41MOL   C35134031   7.662   2.840   2.550  0.1062  0.1724 -0.1519
   41MOL   H35234032   0.286   2.039   1.765  0.1224 -1.0630  0.9561
   41MOL   H35334033   0.287   1.893   1.676 -0.5224  0.5863  0.0806
   41MOL   H35434034   0.296   2.061   1.470  1.0070 -0.2564  0.4226
   41MOL   H35534035   0.424   2.258   1.498 -2.3967  0.5419 -1.2712
   41MOL   H35634036   0.290   2.271   1.594  0.0451 -0.6507 -1.1322
   41MOL   H35734037   0.575   2.226   1.673 -0.1397  0.1070 -2.0011
   41MOL   H35834038   0.460   2.201   1.796 -0.7748  1.8219  0.9574
   41MOL   H35934039   0.486   2.452   1.625  0.0618 -2.2450 -1.1782
   41MOL   H36034040   0.554   2.441   1.787 -1.1642  1.1438  0.8712
   41MOL   H36134041   0.350   2.561   1.805 -0.1875  0.6932 -2.0939
   41MOL   H36234042   0.252   2.439   1.723 -0.5794  0.7542  1.0387
   41MOL   H36334043   0.247   2.298   1.908 -1.1224  0.2622  1.2691
   41MOL   H36434044   0.396   2.369   1.972  0.9385  4.1209 -0.0802
   41MOL   H36534045   0.243   2.570   2.036 -2.3720  0.5770 -2.7364
   41MOL   H36634046   0.113   2.476   1.985  0.2247  1.9842  0.3259
   41MOL   H36734047   0.212   2.290   2.159 -1.0593  0.1830 -1.3745
   41MOL   H36834048   0.322   2.422   2.204 -0.6658  1.7310  2.5407
   41MOL   H36934049   0.029   2.430   2.233 -1.2770  1.9813  2.5121
   41MOL   H37034050   0.154   2.392   2.359  2.0264  1.9793  1.3247
   41MOL   H37134051   0.146   2.654   2.225  3.3317  2.6391  1.4578
   41MOL   H37234052   0.247   2.631   2.353  0.1149  1.0020 -2.2462
   41MOL   H37334053   0.078   2.596   2.501 -1.8248 -1.2580  0.2231
   41MOL   H37434054   7.647   2.596   2.391 -0.6764  1.3829 -0.2983
   41MOL   H37534055   0.142   2.837   2.430 -1.6534  1.9450 -0.0145
   41MOL   H37634056   0.007   2.843   2.328  0.9583  1.7516  0.5148
   41MOL   H37734057   7.685   2.947   2.559 -3.6484  1.1148 -0.9336
   41MOL   H37834058   7.557   2.848   2.524  0.1556  0.0128 -0.4002
   41MOL   H37934059   7.679   2.782   2.640  0.0452 -0.2998 -0.4461
   41MOL   C38034060   0.480   1.988   1.536  0.2911  0.8219 -0.5366
   41MOL   C38134061   0.562   2.027   1.404  0.2599 -0.5933  0.5184
   41MOL   C38234062   0.711   2.006   1.413  0.6817 -0.0577  0.2409
   41MOL   C38334063   0.802   2.093   1.500 -0.3908  0.1298  0.7369
   41MOL   C38434064   0.944   2.043   1.525 -0.2419 -1.1273 -0.6908
   41MOL   C38534065   1.023   2.141   1.609 -0.0171  0.0159 -0.2284
   41MOL   C38634066   1.171   2.106   1.622  0.4100 -0.0275 -0.3336
   41MOL   C38734067   1.244   2.214   1.696 -0.1692 -0.5007  0.2616
   41MOL   C38834068   1.397   2.183   1.703  0.3032 -0.4017 -0.4655
   41MOL   C38934069   1.462   2.207   1.562 -0.0052 -0.7518  0.1449
   41MOL   C39034070   1.482   2.360   1.535  0.1992  0.8168 -0.5011
   41MOL   C39134071   1.539   2.401   1.405 -0.0293  0.6780 -0.7430
   41MOL   C39234072   1.509   2.548   1.370  0.1444  0.9912 -0.0136
   41MOL   C39334073   1.371   2.571   1.308  0.3148 -0.3698  0.5231
   41MOL   H39434074   0.462   1.882   1.517  1.8474  0.6661 -1.2763
   41MOL   H39534075   0.548   2.001   1.620 -0.9018 -2.7688  1.0516
   41MOL   H39634076   0.536   2.131   1.386 -0.3313 -1.0212 -1.1524
   41MOL   H39734077   0.747   2.009   1.310 -1.8492 -1.4808 -0.7281
   41MOL   H39834078   0.734   1.902   1.439  5.1241  0.2302 -1.9628
   41MOL   H39934079   0.759   2.101   1.600  2.0135  0.9034  1.7364
   41MOL   H40034080   0.793   2.192   1.455 -1.5356 -0.5579 -0.5839
   41MOL   H40134081   0.992   2.021   1.429 -0.2360  4.5087 -2.1432
   41MOL   H40234082   0.931   1.951   1.581  0.8195 -0.8100  0.0961
   41MOL   H40334083   0.970   2.153   1.704 -1.6889 -3.4898 -0.6155
   41MOL   H40434084   1.011   2.236   1.559  0.1357  0.5680  0.7705
   41MOL   H40534085   1.196   2.011   1.671  0.7526 -1.1690 -2.6747
   41MOL   H40634086   1.209   2.096   1.521  1.1931  1.0184 -0.1508
   41MOL   H40734087   1.213   2.314   1.668 -1.9553 -1.3027 -0.7024
   41MOL   H40834088   1.209   2.214   1.799 -1.1011 -0.9510 -0.0519
   41MOL   H40934089   1.459   2.234   1.776  1.0174 -2.0242  0.0936
   41MOL   H41034090   1.402   2.080   1.738  2.6240 -0.6089 -1.3080
   41MOL   H41134091   1.392   2.164   1.492 -0.6534 -1.4896  1.2295
   41MOL   H41234092   1.556   2.153   1.550  2.1123  2.1947  2.4913
   41MOL   H41334093   1.385   2.407   1.549  0.5215  1.5024 -0.5302
   41MOL   H41434094   1.547   2.400   1.613  0.1173  1.0443 -0.5486
   41MOL   H41534095   1.512   2.332   1.325 -0.6987  1.2739 -1.0307
   41MOL   H41634096   1.646   2.381   1.409 -0.0265  0.6254 -1.0489
   41MOL   H41734097   1.526   2.612   1.457  0.3652 -0.5465  1.0881
   41MOL   H41834098   1.582   2.579   1.295  2.7791 -0.3263  1.9514
   41MOL   H41934099   1.370   2.503   1.223  2.2506  0.8550 -0.5304
   41MOL   H42034100   1.352   2.672   1.272  1.7788 -0.4786 -0.6386
   41MOL   H42134101   1.280   2.554   1.364  0.2690 -0.3094  0.4669
   41MOL   C42234102   0.506   1.946   1.282  0.1954 -0.8446 -0.4138
   41MOL   C42334103   0.534   1.997   1.140  0.8454  1.3153 -0.9497
   41MOL   C42434104   0.517   1.890   1.024 -0.3440  0.0454 -0.0361
   41MOL   C42534105   0.395   1.819   1.030 -0.2361 -0.1787 -0.1859
   41MOL   C42634106   0.400   1.701   0.925  0.6499 -0.3160 -0.7213
   41MOL   C42734107   0.275   1.613   0.915 -0.3437 -0.3320 -0.3387
   41MOL   C42834108   0.299   1.488   0.838  0.8303  0.2830  0.4135
   41MOL   C42934109   0.349   1.506   0.698 -0.0169  0.4313 -0.4634
   41MOL   C43034110   0.356   1.375   0.615  0.4819  0.2308 -0.1638
   41MOL   C43134111   0.398   1.399   0.470  0.1531  0.8689 -0.1106
   41MOL   C43234112   0.419   1.273   0.383  0.0284  0.3622  0.9442
   41MOL   C43334113   0.453   1.319   0.242 -0.2001  0.7365 -0.3165
   41MOL   C43434114   0.454   1.211   0.132 -0.8569 -0.8660  0.7973
   41MOL   C43534115   0.506   1.275   7.694 -0.0683  0.3553  0.2133
   41MOL   H43634116   0.398   1.949   1.289  0.1606 -1.1184 -0.7670
   41MOL   H43734117   0.544   1.843   1.285  1.0079 -0.5648 -0.8896
   41MOL   H43834118   0.639   2.022   1.131  1.0514  1.5278  1.6385
   41MOL   H43934119   0.596   1.816   1.031  0.5000  1.1524  2.6880
   41MOL   H44034120   0.546   1.937   0.930 -2.3780 -1.0866 -1.2735
   41MOL   H44134121   0.364   1.789   1.130  0.4696 -0.8441 -0.1575
   41MOL   H44234122   0.324   1.896   0.999 -0.5882  0.1988  1.5170
   41MOL   H44334123   0.482   1.634   0.953 -1.1361 -1.6699  1.4705
   41MOL   H44434124   0.434   1.737   0.828  0.9949 -1.1498 -0.9145
   41MOL   H44534125   0.198   1.677   0.872 -0.3683  0.4802  0.8818
   41MOL   H44634126   0.238   1.598   1.017 -0.6486  1.1457 -0.2150
   41MOL   H44734127   0.367   1.424   0.895  1.5280  1.3153  0.7508
   41MOL   H44834128   0.211   1.423   0.836  0.9451  0.0638  1.8533
   41MOL   H44934129   0.273   1.569   0.651 -0.6251  0.0241 -0.0295
   41MOL   H45034130   0.435   1.570   0.680 -0.6319  1.2251 -0.6407
   41MOL   H45134131   0.434   1.322   0.670 -0.8605  0.1485  1.7044
   41MOL   H45234132   0.260   1.324   0.622  1.5031 -1.7278 -0.0350
   41MOL   H45334133   0.318   1.458   0.426 -1.1094  0.2762  1.3446
   41MOL   H45434134   0.482   1.468   0.468 -1.3142  2.6667 -2.9528
   41MOL   H45534135   0.497   1.206   0.419 -0.2186  0.1711  1.1280
   41MOL   H45634136   0.333   1.207   0.384  0.2262  0.0981  2.7915
   41MOL   H45734137   0.555   1.358   0.248  0.3648 -0.6240 -0.9852
   41MOL   H45834138   0.380   1.394   0.210 -3.2023 -2.0182 -0.1654
   41MOL   H45934139   0.519   1.131   0.167  0.9244  0.0248 -0.4070
   41MOL   H46034140   0.353   1.171   0.127 -0.7640 -1.1907  1.4928
   41MOL   H46134141   0.423   1.335   7.658  0.2685 -0.6895 -2.4358
   41MOL   H46234142   0.551   1.195   7.634  3.7867  2.6779 -0.1840
   41MOL   H46334143   0.580   1.350   0.025  0.0360  0.2109  0.3339
   41MOL   C46434144   0.462   2.127   1.099  0.0483  0.4431 -0.4723
   41MOL   C46534145   0.551   2.245   1.055 -0.1971 -0.7458 -0.6552
   41MOL   C46634146   0.466   2.358   0.990  0.3678  0.6109  0.2129
   41MOL   C46734147   0.378   2.444   1.080  0.5035 -0.5039 -0.5532
   41MOL   C46834148   0.326   2.563   1.006  0.4295  0.1248  0.1092
   41MOL   C46934149   0.218   2.648   1.083  0.2041 -0.3774 -1.0832
   41MOL   C47034150   0.265   2.673   1.228 -0.3351 -0.4144 -0.0135
   41MOL   C47134151   0.159   2.738   1.318  0.2802  0.9598  0.2102
   41MOL   C47234152   0.179   2.739   1.473  0.0399  0.1041  0.0437
   41MOL   C47334153   0.072   2.822   1.547 -0.0928  0.1822  0.1117
   41MOL   C47434154   0.107   2.818   1.699  0.3744 -0.2242 -1.1710
   41MOL   C47534155   0.026   2.932   1.776 -0.1335 -0.1197  0.0030
   41MOL   C47634156   0.055   2.924   1.925 -0.5475  0.3227  0.2957
   41MOL   C47734157   7.662   3.019   2.008 -0.4705 -0.2731  0.3015
   41MOL   H47834158   0.400   2.166   1.180 -2.7321 -1.5824 -1.5664
   41MOL   H47934159   0.392   2.118   1.016 -2.2181 -3.7012  1.7620
   41MOL   H48034160   0.615   2.219   0.970 -0.6410  2.0138 -1.8945
   41MOL   H48134161   0.525   2.431   0.935  0.9661  2.1615  2.8365
   41MOL   H48234162   0.406   2.320   0.907 -1.7348  3.1723  0.5021
   41MOL   H48334163   0.432   2.481   1.167  1.5380 -0.2141 -1.3220
   41MOL   H48434164   0.298   2.384   1.124  2.3328 -1.5573  1.4675
   41MOL   H48534165   0.293   2.524   0.910 -0.1084 -2.8323  1.4156
   41MOL   H48634166   0.411   2.629   0.990 -0.4195  0.9244 -1.1956
   41MOL   H48734167   0.201   2.748   1.044 -0.0348  1.2695  3.0065
   41MOL   H48834168   0.119   2.603   1.086 -0.3192  0.6775 -2.2027
   41MOL   H48934169   0.306   2.587   1.281 -0.6056  0.8799  2.3746
   41MOL   H49034170   0.348   2.742   1.217 -2.4030  2.3734  1.0283
   41MOL   H49134171   0.136   2.837   1.277 -0.1882  1.9436  2.7147
   41MOL   H49234172   0.074   2.672   1.306  1.2567 -0.3514  0.4598
   41MOL   H49334173   0.185   2.639   1.517 -0.6912  0.6985  1.5028
   41MOL   H49434174   0.275   2.784   1.497 -0.9967  2.1182  0.5220
   41MOL   H49534175   0.058   2.918   1.497  2.1747  0.6200  0.2729
   41MOL   H49634176   7.678   2.763   1.528  0.1756 -0.3678  0.5281
   41MOL   H49734177   0.076   2.724   1.745 -0.3901 -0.3006 -1.8427
   41MOL   H49834178   0.213   2.832   1.723 -0.1936 -0.4817  1.6408
   41MOL   H49934179   7.615   2.913   1.764 -0.0965 -0.3192  0.0003
   41MOL   H50034180   0.043   3.030   1.731  1.2852 -0.4061 -0.0864
   41MOL   H50134181   0.044   2.823   1.962 -1.6044  0.6024  0.7850
   41MOL   H50234182   0.159   2.953   1.938 -0.5694  0.1316  0.8865
   41MOL   H50334183   7.673   3.116   1.959  1.6812 -0.6527  0.0320
   41MOL   H50434184   7.555   2.995   2.012 -0.1724 -1.7814 -0.6117
   41MOL   H50534185   0.004   3.032   2.109  0.2163 -0.9597  0.1330
   41MOL   C50634186   0.643   2.290   1.165 -0.4195  0.9910 -0.4976
   41MOL   C50734187   0.742   2.404   1.135  0.1035 -0.1617  0.4105
   41MOL   C50834188   0.782   2.497   1.256  0.0430 -0.1142  0.4221
   41MOL   C50934189   0.673   2.582   1.311  0.6051 -0.5899 -0.3456
   41MOL   C51034190   0.696   2.634   1.456 -0.1823 -0.1441  0.2810
   41MOL   C51134191   0.582   2.715   1.502 -0.0431  0.6911 -0.9722
   41MOL   C51234192   0.615   2.788   1.632 -0.1473 -0.7397  0.5752
   41MOL   C51334193   0.530   2.902   1.657 -0.2952 -0.0444 -0.0296
   41MOL   C51434194   0.530   2.960   1.802  0.5766  0.1247  0.0098
   41MOL   C51534195   0.482   2.859   1.911  0.0517 -0.6407  0.4125
   41MOL   C51634196   0.472   2.928   2.048  0.1607  0.5243 -0.5138
   41MOL   C51734197   0.414   2.843   2.169  0.1005  0.2562 -0.2605
   41MOL   C51834198   0.414   2.921   2.301 -0.1668 -0.8560  0.0181
   41MOL   C51934199   0.314   3.035   2.307  0.0760 -0.1106 -0.1154
   41MOL   H52034200   0.701   2.205   1.202  0.2551  1.5705 -0.2013
   41MOL   H52134201   0.568   2.320   1.239  2.4232  1.7961  2.1901
   41MOL   H52234202   0.695   2.466   1.059  1.4343 -0.7009 -0.8627
   41MOL   H52334203   0.816   2.429   1.334 -0.1843 -0.1651  0.4758
   41MOL   H52434204   0.872   2.556   1.239  0.0877 -0.4285 -0.4988
   41MOL   H52534205   0.647   2.653   1.233  1.6243 -1.2477 -1.2968
   41MOL   H52634206   0.584   2.519   1.312  0.6145 -0.6126 -0.8705
   41MOL   H52734207   0.780   2.702   1.469 -0.5894  0.1621  1.3456
   41MOL   H52834208   0.712   2.548   1.521 -0.7761  0.1685  0.8466
   41MOL   H52934209   0.492   2.654   1.509 -0.4332  1.2804 -0.8305
   41MOL   H53034210   0.555   2.787   1.424 -2.4948  0.7042 -0.1584
   41MOL   H53134211   0.607   2.716   1.713 -1.3645 -1.3816 -0.1150
   41MOL   H53234212   0.720   2.818   1.641  0.0896 -1.3881  0.0682
   41MOL   H53334213   0.424   2.882   1.637 -0.7524  1.5425  0.7167
   41MOL   H53434214   0.555   2.970   1.576  1.6299 -0.9202 -0.1923
   41MOL   H53534215   0.464   3.047   1.803  0.1666 -0.1472 -2.3470
   41MOL   H53634216   0.632   2.989   1.828 -0.0344 -0.0921  2.8620
   41MOL   H53734217   0.387   2.816   1.882  0.7798 -1.4896 -0.7598
   41MOL   H53834218   0.551   2.774   1.916 -0.8650 -1.3316  1.4210
   41MOL   H53934219   0.570   2.972   2.066  0.0600 -0.0546  1.5303
   41MOL   H54034220   0.407   3.014   2.031 -3.1201 -1.5166  1.1074
   41MOL   H54134221   0.482   2.759   2.184  1.0297  1.2014  0.9836
   41MOL   H54234222   0.314   2.806   2.151 -0.4708  0.6481  1.9132
   41MOL   H54334223   0.512   2.965   2.316  0.4623 -1.7895 -1.2725
   41MOL   H54434224   0.399   2.848   2.381  0.1063 -0.1151  0.7554
   41MOL   H54534225   0.327   3.126   2.248  0.1762  1.1222  1.7633
   41MOL   H54634226   0.220   3.001   2.264 -1.1678  2.4028  0.5650
   41MOL   H54734227   0.306   3.090   2.401 -1.6310  2.1131 -1.5235
   41MOL   C54834228   0.876   2.335   1.073  0.6861 -0.8738  0.1673
   41MOL   C54934229   0.977   2.425   0.995  1.0041 -0.4613  0.6832
   41MOL   C55034230   1.095   2.343   0.941  0.3643  0.3688  0.2576
   41MOL   C55134231   1.175   2.260   1.050 -0.6863 -1.3500 -0.4411
   41MOL   C55234232   1.303   2.210   0.992  0.2955  0.2890 -0.0796
   41MOL   C55334233   1.386   2.123   1.082  0.0293 -0.1446  0.0256
   41MOL   C55434234   1.510   2.057   1.018 -0.5483  0.6896 -0.1062
   41MOL   C55534235   1.616   1.997   1.118  0.2425 -0.1669  0.3236
   41MOL   C55634236   1.571   1.882   1.209  0.5961  0.7174 -0.3619
   41MOL   C55734237   1.686   1.830   1.285  0.5437  0.0881  0.3079
   41MOL   C55834238   1.732   1.938   1.383 -0.1107  0.1662  0.1413
   41MOL   C55934239   1.820   1.886   1.497 -0.0654  0.1468 -0.2669
   41MOL   C56034240   1.845   1.998   1.595  0.8589  0.0032  0.1591
   41MOL   C56134241   1.937   1.944   1.701 -0.4167  0.2438  0.2025
   41MOL   H56234242   0.916   2.281   1.159  0.3632 -1.2731  0.0728
   41MOL   H56334243   0.834   2.265   1.000 -0.9713  2.5960 -2.3306
   41MOL   H56434244   1.014   2.507   1.056 -1.4446 -0.2570  1.9477
   41MOL   H56534245   1.060   2.275   0.863  1.8758  0.0674 -0.1732
   41MOL   H56634246   1.170   2.410   0.899 -0.5006  1.2248  0.0558
   41MOL   H56734247   1.123   2.176   1.095 -1.4666 -1.6080 -1.7833
   41MOL   H56834248   1.208   2.318   1.136 -2.5729 -0.8918 -0.0021
   41MOL   H56934249   1.271   2.151   0.907 -0.2259 -1.3713  1.2333
   41MOL   H57034250   1.360   2.295   0.954 -0.5713  1.1995  0.6189
   41MOL   H57134251   1.323   2.042   1.117  0.4904  0.7484  3.1332
   41MOL   H57234252   1.419   2.172   1.174 -0.6206  1.3019 -0.4841
   41MOL   H57334253   1.482   1.975   0.952 -1.9924  0.0067  1.3103
   41MOL   H57434254   1.576   2.124   0.963 -0.9691  0.6807 -0.6227
   41MOL   H57534255   1.655   2.081   1.175  0.4763  0.9950 -1.5024
   41MOL   H57634256   1.703   1.965   1.060 -0.8117 -1.2835 -0.6852
   41MOL   H57734257   1.541   1.802   1.142  0.5753  1.2118 -0.9447
   41MOL   H57834258   1.487   1.902   1.276  1.9451 -1.1949  1.9928
   41MOL   H57934259   1.648   1.738   1.328  1.2031 -0.0963  0.5044
   41MOL   H58034260   1.768   1.801   1.220  0.3992  1.4852 -0.5205
   41MOL   H58134261   1.643   1.972   1.436  0.7080  0.9759  1.0358
   41MOL   H58234262   1.768   2.028   1.335  0.3597 -1.6445 -3.0248
   41MOL   H58334263   1.795   1.793   1.547  1.5091  0.0649  0.4050
   41MOL   H58434264   1.916   1.859   1.453  0.8482  1.2935  0.9600
   41MOL   H58534265   1.884   2.086   1.542  0.7456  0.0895  0.2190
   41MOL   H58634266   1.754   2.034   1.642  1.5121  1.0673  0.6488
   41MOL   H58734267   2.036   1.906   1.676 -0.6933  0.1708 -0.7652
   41MOL   H58834268   1.959   2.029   1.765  0.2268  1.4257 -1.5724
   41MOL   H58934269   1.880   1.874   1.762  1.9032  0.1435  2.3333
   41MOL   C59034270   0.902   2.500   0.877  0.1966  0.3607  0.2952
   41MOL   C59134271   0.965   2.639   0.835 -0.7203 -0.3235  1.0146
   41MOL   C59234272   0.878   2.683   0.710 -0.0016 -0.3409  0.3576
   41MOL   C59334273   0.935   2.804   0.633  0.1911 -0.0374 -0.1502
   41MOL   C59434274   0.844   2.866   0.530 -0.0270  0.4814 -0.0321
   41MOL   C59534275   0.852   3.020   0.517  0.3073 -0.3026  0.7358
   41MOL   C59634276   0.752   3.078   0.423  0.3638  0.1136  1.0573
   41MOL   C59734277   0.748   3.231   0.407 -0.0744  0.9073 -0.0450
   41MOL   C59834278   0.631   3.277   0.315 -0.6010 -0.4267 -0.3214
   41MOL   C59934279   0.698   3.327   0.187  0.3679 -0.7404 -0.8626
   41MOL   C60034280   0.592   3.366   0.087 -0.7399  0.2557 -0.2172
   41MOL   C60134281   0.515   3.255   0.028 -0.1685  0.3967 -0.3165
   41MOL   C60234282   0.480   3.285   7.572 -0.0560  0.0055  0.7826
   41MOL   C60334283   0.375   3.204   7.492 -0.2169 -0.1906  0.8690
   41MOL   H60434284   0.798   2.520   0.904  0.2721 -1.4575  2.1286
   41MOL   H60534285   0.897   2.436   0.788 -0.0538 -2.4717  2.2510
   41MOL   H60634286   1.067   2.625   0.801 -0.0624  1.5426  2.1708
   41MOL   H60734287   0.786   2.713   0.759 -0.3509 -0.8339  0.0078
   41MOL   H60834288   0.846   2.610   0.636 -2.4031  0.6029  0.4087
   41MOL   H60934289   1.032   2.790   0.585  0.2186  1.0752 -0.4335
   41MOL   H61034290   0.951   2.884   0.705 -1.1955  0.4752 -0.3887
   41MOL   H61134291   0.740   2.846   0.557  0.3347 -1.2545  0.1916
   41MOL   H61234292   0.850   2.810   0.437 -1.2292  2.1595 -1.1451
   41MOL   H61334293   0.951   3.054   0.484 -0.9355  2.0280 -0.6891
   41MOL   H61434294   0.833   3.059   0.616 -1.0874 -0.1108  0.3923
   41MOL   H61534295   0.763   3.036   0.323 -0.5304 -2.1032  1.8629
   41MOL   H61634296   0.653   3.048   0.457 -0.3554  1.7699  0.5000
   41MOL   H61734297   0.738   3.267   0.509  1.7753  0.4086  0.3176
   41MOL   H61834298   0.844   3.273   0.378  0.0379  0.4266 -0.3765
   41MOL   H61934299   0.585   3.185   0.280  0.4291 -0.9615 -0.2766
   41MOL   H62034300   0.577   3.357   0.365  0.5561  0.1658  0.0088
   41MOL   H62134301   0.763   3.414   0.194  1.6229 -1.7542  0.3055
   41MOL   H62234302   0.763   3.247   0.153 -0.6308 -0.6969 -2.9814
   41MOL   H62334303   0.655   3.410   0.010 -0.5640  0.8256  0.2442
   41MOL   H62434304   0.527   3.442   0.129 -0.4360  0.2080  0.3533
   41MOL   H62534305   0.424   3.241   0.086  0.1225 -2.7633 -0.5034
   41MOL   H62634306   0.570   3.161   0.027  0.4582  0.7329  1.3937
   41MOL   H62734307   0.455   3.391   7.569  1.4623  0.4008  1.4572
   41MOL   H62834308   0.573   3.277   7.516 -0.8374 -0.9683 -0.3811
   41MOL   H62934309   0.282   3.199   7.549 -1.9018  2.3025 -1.5278
   41MOL   H63034310   0.414   3.103   7.503 -0.3978 -0.2342  1.1235
   41MOL   H63134311   0.370   3.230   7.386  0.7984 -1.8024  0.4066
   41MOL   C63234312   0.961   2.738   0.953  0.0748  0.1253  0.1431
   41MOL   C63334313   1.097   2.775   1.018 -0.5258  0.0193  0.3335
   41MOL   C63434314   1.164   2.887   0.939  0.1763  0.5630  0.9402
   41MOL   C63534315   1.313   2.911   0.980  0.6225  0.5680  0.1313
   41MOL   C63634316   1.407   2.792   0.951 -0.0469 -0.7996  0.7314
   41MOL   C63734317   1.552   2.843   0.962 -0.4135 -0.1973  0.2237
   41MOL   C63834318   1.655   2.727   0.932 -0.4437 -0.3836 -0.9874
   41MOL   C63934319   1.642   2.618   1.045 -0.0132  0.0781  0.5971
   41MOL   C64034320   1.746   2.501   1.052  0.3535 -0.6889  0.0479
   41MOL   C64134321   1.708   2.389   0.959  0.2282 -0.6051 -0.4726
   41MOL   C64234322   1.828   2.290   0.938  0.5774  0.0187 -0.2281
   41MOL   C64334323   1.815   2.200   0.817 -0.7134 -0.3325  0.0049
   41MOL   C64434324   1.917   2.092   0.810 -0.1237 -0.9640 -0.0265
   41MOL   C64534325   1.883   1.992   0.699 -0.0311 -0.4222  0.1762
   41MOL   H64634326   0.904   2.694   1.035 -0.2822  0.7181  0.2203
   41MOL   H64734327   0.897   2.824   0.934  1.0566  0.8741  0.1525
   41MOL   H64834328   1.157   2.684   1.011 -1.5601 -0.5241 -2.3494
   41MOL   H64934329   1.172   2.860   0.834 -0.1503  0.8850  0.8334
   41MOL   H65034330   1.104   2.978   0.939 -0.2863  0.2642 -0.6280
   41MOL   H65134331   1.311   2.931   1.087 -2.7639 -1.2530  0.4890
   41MOL   H65234332   1.347   3.003   0.933  0.1952 -0.0260 -1.3687
   41MOL   H65334333   1.383   2.746   0.856  0.8774 -1.1507  0.6579
   41MOL   H65434334   1.394   2.719   1.031  0.5077 -0.1316  1.4500
   41MOL   H65534335   1.565   2.917   0.884  1.6678  1.1870  1.8435
   41MOL   H65634336   1.561   2.889   1.060 -1.8050  2.6418 -0.9141
   41MOL   H65734337   1.641   2.677   0.836  2.6016  0.4207 -1.8857
   41MOL   H65834338   1.750   2.779   0.930 -0.6314  0.2624  3.2496
   41MOL   H65934339   1.541   2.580   1.037 -0.0686 -0.1994  2.4734
   41MOL   H66034340   1.647   2.675   1.138 -0.1082  3.6137 -1.4778
   41MOL   H66134341   1.754   2.472   1.156 -0.0940  0.0628  0.2940
   41MOL   H66234342   1.839   2.546   1.019 -1.3892  2.0340 -1.3430
   41MOL   H66334343   1.624   2.344   1.012 -0.8066  3.0352  1.1901
   41MOL   H66434344   1.668   2.422   0.863  1.7660  1.0235 -0.5859
   41MOL   H66534345   1.917   2.347   0.914  0.1448  1.4222  1.4314
   41MOL   H66634346   1.870   2.238   1.024 -0.7857 -0.4921  0.1432
   41MOL   H66734347   1.818   2.250   0.720  0.6520  0.7135  0.5735
   41MOL   H66834348   1.713   2.162   0.822 -1.1778  1.1399  2.0997
   41MOL   H66934349   1.922   2.043   0.907  2.3065  1.8076  1.3319
   41MOL   H67034350   2.015   2.134   0.786 -1.3127  0.7835 -1.9792
   41MOL   H67134351   1.882   2.026   0.595  0.7706 -1.6200 -0.2320
   41MOL   H67234352   1.951   1.907   0.707 -0.8574 -0.8833  2.4087
   41MOL   H67334353   1.795   1.930   0.717 -1.0056  0.2345 -2.1082
   41MOL   C67434354   1.085   2.810   1.168 -0.1258 -0.5168 -0.6450
   41MOL   C67534355   1.027   2.947   1.208  0.1267 -0.2448 -0.8802
   41MOL   C67634356   0.877   2.942   1.236 -0.5256  0.2163 -1.1531
   41MOL   C67734357   0.806   3.070   1.220  0.0878  0.7612  0.0601
   41MOL   C67834358   0.651   3.056   1.251 -0.2523 -0.3384 -0.2804
   41MOL   C67934359   0.575   3.186   1.229 -0.9575  0.2054  0.1787
   41MOL   C68034360   0.432   3.174   1.289 -1.0003  0.1855  0.1875
   41MOL   C68134361   0.345   3.295   1.273 -0.3012 -0.5536  0.5526
   41MOL   C68234362   0.197   3.270   1.312 -0.0125  0.1420  0.0877
   41MOL   C68334363   0.118   3.402   1.320 -0.4793  0.0713  0.0680
   41MOL   C68434364   7.672   3.397   1.389  0.0761 -0.1601 -0.2996
   41MOL   C68534365   7.666   3.309   1.515  0.4658  0.9916 -0.4510
   41MOL   C68634366   7.523   3.309   1.579 -0.0362  0.5013 -0.9064
   41MOL   C68734367   7.525   3.247   1.720  0.2116  0.0354  0.0765
   41MOL   H68834368   1.190   2.808   1.197 -0.6049  0.9996  1.2670
   41MOL   H68934369   1.042   2.733   1.232 -0.6881  1.8274  1.8878
   41MOL   H69034370   1.049   3.022   1.132  0.6737 -0.2254 -0.7058
   41MOL   H69134371   0.819   2.876   1.170 -0.1980 -0.8011 -0.4395
   41MOL   H69234372   0.855   2.904   1.336  0.2618  0.1849 -0.9913
   41MOL   H69334373   0.850   3.141   1.290  1.9730 -0.6774  0.3786
   41MOL   H69434374   0.821   3.118   1.123  1.8298  0.8216  0.3434
   41MOL   H69534375   0.610   2.984   1.180  1.0111  0.4665 -1.8632
   41MOL   H69634376   0.637   3.007   1.347 -0.2916 -0.2522 -0.2426
   41MOL   H69734377   0.631   3.272   1.268 -0.5335 -0.0476  0.1258
   41MOL   H69834378   0.574   3.203   1.122  0.5246  2.3050  0.4456
   41MOL   H69934379   0.375   3.086   1.258 -2.2563  0.1933  2.4090
   41MOL   H70034380   0.453   3.160   1.395  2.2469 -0.2352 -0.4652
   41MOL   H70134381   0.387   3.387   1.313 -0.5521  0.4205 -1.3678
   41MOL   H70234382   0.352   3.324   1.168 -1.0001  1.2902  1.0034
   41MOL   H70334383   0.157   3.204   1.235 -0.5707  1.5761 -0.8783
   41MOL   H70434384   0.197   3.219   1.408  2.0517 -0.0621  0.0037
   41MOL   H70534385   0.113   3.443   1.219  2.8474 -1.7421 -0.8668
   41MOL   H70634386   0.177   3.475   1.375 -0.9532  0.6551 -0.1875
   41MOL   H70734387   7.605   3.357   1.313 -0.6374 -1.2124  0.8655
   41MOL   H70834388   7.635   3.497   1.413  0.4033 -0.5255  1.8004
   41MOL   H70934389   0.043   3.356   1.581  1.6182 -1.7013  0.2342
   41MOL   H71034390   0.010   3.209   1.500  1.0138  1.0081  0.9094
   41MOL   H71134391   7.478   3.408   1.590  0.5630  0.8551 -1.5479
   41MOL   H71234392   7.459   3.261   1.505 -0.4160  1.5788 -1.2907
   41MOL   H71334393   7.434   3.273   1.774  0.4516  3.3530 -1.0370
   41MOL   H71434394   7.538   3.139   1.720 -2.4531 -0.3309 -1.3339
   41MOL   H71534395   7.604   3.285   1.784  0.0942 -0.7612  0.7026
   41MOL   C71634396   1.113   3.004   1.330 -0.6580 -0.7633 -0.2484
   41MOL   C71734397   1.105   2.954   1.475 -0.3243 -0.2882 -0.5473
   41MOL   C71834398   1.189   2.825   1.484 -0.3788  0.4606  0.4267
   41MOL   C71934399   1.173   2.744   1.619 -0.3401 -0.0347 -0.5008
   41MOL   C72034400   1.045   2.676   1.667  0.0508 -0.0956  0.1328
   41MOL   C72134401   1.069   2.572   1.774  1.0314  0.6509 -0.5553
   41MOL   C72234402   0.929   2.535   1.825 -0.2977 -0.0359  0.8485
   41MOL   C72334403   0.933   2.467   1.957 -0.5083  0.2631  0.0777
   41MOL   C72434404   0.800   2.406   2.012  0.3533  0.1377 -0.4059
   41MOL   C72534405   0.807   2.331   2.140 -0.2846  0.2591  0.4409
   41MOL   C72634406   0.664   2.295   2.190 -0.5545 -0.6031 -0.1874
   41MOL   C72734407   0.666   2.206   2.310 -0.4288  0.1829 -0.5739
   41MOL   C72834408   0.529   2.188   2.376  0.6517  0.4783 -0.0142
   41MOL   C72934409   0.423   2.115   2.290 -0.3624 -0.8829 -0.1383
   41MOL   H73034410   1.219   3.003   1.306 -0.7485  2.1086 -1.0270
   41MOL   H73134411   1.100   3.112   1.338  1.5415 -0.6082  1.4558
   41MOL   H73234412   1.000   2.924   1.479 -0.2115 -0.8457 -1.6246
   41MOL   H73334413   1.291   2.857   1.467 -1.3435  2.7080 -1.5671
   41MOL   H73434414   1.165   2.749   1.408 -0.2321  1.7447 -0.9262
   41MOL   H73534415   1.247   2.665   1.609  0.4295  0.7199 -0.9606
   41MOL   H73634416   1.201   2.812   1.699  1.8732 -0.9431 -0.4601
   41MOL   H73734417   0.973   2.752   1.700 -2.0624 -2.0718  0.2139
   41MOL   H73834418   1.005   2.620   1.582  0.7811  2.4332 -1.9639
   41MOL   H73934419   1.107   2.482   1.726 -2.8774 -1.2469 -0.2898
   41MOL   H74034420   1.124   2.624   1.852 -0.4016 -1.0274  1.6189
   41MOL   H74134421   0.873   2.628   1.825 -0.5385 -0.1763  1.6315
   41MOL   H74234422   0.879   2.469   1.754 -1.4032  0.7309  0.9069
   41MOL   H74334423   0.987   2.526   2.031 -0.3998 -1.0996  1.0996
   41MOL   H74434424   0.997   2.382   1.931  0.9922  1.0135  1.2074
   41MOL   H74534425   0.725   2.485   2.017 -0.7739 -0.8704 -1.0612
   41MOL   H74634426   0.755   2.333   1.944 -0.8511  0.4682  0.0181
   41MOL   H74734427   0.852   2.231   2.133  1.2546  0.9239  0.6820
   41MOL   H74834428   0.866   2.391   2.209 -1.6119  2.3809 -0.2218
   41MOL   H74934429   0.611   2.383   2.226  0.7147 -0.4877  1.4618
   41MOL   H75034430   0.600   2.267   2.106 -1.5763  1.1928 -0.0234
   41MOL   H75134431   0.710   2.109   2.286 -1.4116 -0.7634  1.3021
   41MOL   H75234432   0.744   2.241   2.378 -0.2980 -0.3229 -0.4577
   41MOL   H75334433   0.474   2.278   2.403  0.1220 -0.0129  0.5537
   41MOL   H75434434   0.543   2.133   2.469 -0.1335  1.4454  0.6765
   41MOL   H75534435   0.333   2.099   2.350 -1.9584 -0.8124 -2.4652
   41MOL   H75634436   0.473   2.026   2.251  0.9252 -1.0818  1.8591
   41MOL   H75734437   0.398   2.172   2.201 -3.2697 -1.9182 -0.0583
   41MOL   C75834438   1.142   3.056   1.584  0.4590  0.2128 -0.0606
   41MOL   C75934439   1.016   3.088   1.676 -0.1273 -0.6947  0.2471
   41MOL   C76034440   1.059   3.130   1.819  0.0099  0.1817 -0.0306
   41MOL   C76134441   1.083   3.285   1.837 -0.1223  0.1599 -0.0597
   41MOL   C76234442   1.128   3.318   1.979  0.2263  0.0075 -0.0782
   41MOL   C76334443   1.183   3.456   2.005  0.0692 -0.2924  0.3653
   41MOL   C76434444   1.099   3.562   1.928  0.1767 -0.1647  0.1609
   41MOL   C76534445   1.118   3.713   1.978  0.0041 -0.3248  0.1789
   41MOL   C76634446   0.995   3.803   1.939 -0.6787 -0.0759  0.1897
   41MOL   C76734447   1.017   3.845   1.793  0.4521  0.0550  0.2317
   41MOL   C76834448   0.888   3.906   1.733 -0.0952  0.4353  0.1855
   41MOL   C76934449   0.884   3.930   1.583 -0.3228  0.1745  0.2122
   41MOL   C77034450   0.742   3.909   1.527  0.1661  0.4051  0.3001
   41MOL   C77134451   0.737   3.926   1.382  0.4038  0.6759 -0.2717
   41MOL   H77234452   1.220   3.008   1.643  0.6816 -0.2692 -0.7382
   41MOL   H77334453   1.193   3.145   1.549  0.6514  0.0278 -0.2553
   41MOL   H77434454   0.966   2.992   1.694  0.1196 -0.7228  0.7866
   41MOL   H77534455   0.981   3.106   1.891  0.8133  0.5340  0.9707
   41MOL   H77634456   1.145   3.075   1.858  0.8304  1.3415 -0.1839
   41MOL   H77734457   1.168   3.308   1.773 -0.0136 -1.7334 -0.6226
   41MOL   H77834458   0.989   3.334   1.813 -0.5345 -0.6170 -0.0538
   41MOL   H77934459   1.210   3.249   2.001  0.1516  0.4054  1.5308
   41MOL   H78034460   1.047   3.303   2.051 -0.2730 -0.7398 -0.7939
   41MOL   H78134461   1.285   3.468   1.968 -0.3547  3.4910  0.2604
   41MOL   H78234462   1.198   3.481   2.110  0.8374 -0.9955  0.4350
   41MOL   H78334463   1.111   3.550   1.820  0.7204  1.0324  0.0716
   41MOL   H78434464   0.992   3.540   1.931 -0.8413  3.6858 -3.0593
   41MOL   H78534465   1.210   3.761   1.944 -0.3864 -0.2586 -0.7817
   41MOL   H78634466   1.124   3.711   2.087 -0.8849 -1.5442  0.2109
   41MOL   H78734467   0.986   3.892   2.001 -0.0051  1.0346 -1.2576
   41MOL   H78834468   0.903   3.750   1.962 -0.8304  0.8250  1.7357
   41MOL   H78934469   1.057   3.767   1.728  0.7274  0.9943 -0.7421
   41MOL   H79034470   1.097   3.920   1.798  1.0097 -0.6236  1.8094
   41MOL   H79134471   0.811   3.832   1.757  0.1038 -0.2483 -1.1954
   41MOL   H79234472   0.858   3.999   1.780 -1.8127  0.3108 -0.6123
   41MOL   H79334473   0.924   4.028   1.557 -0.5148  0.1435 -0.2062
   41MOL   H79434474   0.948   3.861   1.529  1.5130  1.6055  0.5105
   41MOL   H79534475   0.697   3.816   1.560 -0.0214 -0.4202 -2.1827
   41MOL   H79634476   0.701   3.996   1.579  1.9217  2.3855 -1.5384
   41MOL   H79734477   0.788   4.018   1.354  2.7315  0.0950  1.8952
   41MOL   H79834478   0.794   3.851   1.328 -0.4911 -0.4800  0.3697
   41MOL   H79934479   0.637   3.929   1.339  0.2551  2.8158  0.1721
   41MOL   C80034480   0.933   3.189   1.595 -0.0291  0.0426  0.4025
   41MOL   C80134481   0.787   3.217   1.634  0.4311  0.0742  0.4617
   41MOL   C80234482   0.731   3.352   1.572 -0.0903 -0.9673  0.2674
   41MOL   C80334483   0.590   3.375   1.621  1.0982 -0.3843 -0.4043
   41MOL   C80434484   0.539   3.524   1.587 -0.5795  0.2793 -0.3222
   41MOL   C80534485   0.391   3.547   1.617  0.2463 -0.0801 -0.3937
   41MOL   C80634486   0.347   3.692   1.592  0.0462  0.6062 -0.1475
   41MOL   C80734487   0.192   3.721   1.599 -0.5179 -0.2838  0.4304
   41MOL   C80834488   0.131   3.727   1.736  0.2711 -0.2871  0.2603
   41MOL   C80934489   7.690   3.796   1.745 -0.1584  0.1675 -0.2031
   41MOL   C81034490   7.578   3.702   1.692  0.1217 -0.2400  0.1727
   41MOL   C81134491   7.440   3.755   1.727  0.7832 -0.1563  0.1740
   41MOL   C81234492   7.336   3.675   1.657 -0.6547 -0.0175 -0.1698
   41MOL   C81334493   7.205   3.754   1.679  0.0322 -0.6089 -0.1014
   41MOL   H81434494   0.934   3.162   1.489 -1.5570  0.7109  0.2055
   41MOL   H81534495   0.978   3.288   1.593 -1.2738  0.6005 -0.7776
   41MOL   H81634496   0.788   3.214   1.743  0.8552  0.7055  0.4780
   41MOL   H81734497   0.733   3.345   1.463 -1.3688 -0.7921  0.2316
   41MOL   H81834498   0.788   3.440   1.602  0.6655 -1.5585  0.5702
   41MOL   H81934499   0.592   3.356   1.729  0.7074 -2.2554 -0.7076
   41MOL   H82034500   0.536   3.289   1.583  0.8609 -0.0128 -0.9054
   41MOL   H82134501   0.604   3.587   1.648  0.2703 -0.9004 -0.0031
   41MOL   H82234502   0.554   3.551   1.483 -2.0530 -1.0836 -0.9136
   41MOL   H82334503   0.347   3.505   1.708 -0.0364  0.1819 -0.4098
   41MOL   H82434504   0.335   3.484   1.546 -0.3755  0.1213 -0.0874
   41MOL   H82534505   0.398   3.751   1.668  1.2929  0.2297 -0.6809
   41MOL   H82634506   0.390   3.726   1.498  2.1221 -0.9237  0.2106
   41MOL   H82734507   0.177   3.819   1.555 -2.4575 -0.0688  1.5023
   41MOL   H82834508   0.135   3.649   1.540  1.0104 -0.1184 -1.2552
   41MOL   H82934509   0.119   3.624   1.770  0.0264 -1.3740 -2.9609
   41MOL   H83034510   0.202   3.774   1.804  1.0007  0.0980 -0.7495
   41MOL   H83134511   7.685   3.890   1.689  0.7492  0.4291  0.1445
   41MOL   H83234512   7.674   3.830   1.847  0.5729  1.1357 -0.4086
   41MOL   H83334513   7.585   3.677   1.586  0.0138  0.2588  0.0483
   41MOL   H83434514   7.581   3.608   1.748 -3.0734 -1.0051 -0.8360
   41MOL   H83534515   7.428   3.852   1.679  0.7487 -0.1140  0.2666
   41MOL   H83634516   7.410   3.774   1.830 -0.8023 -1.5210 -0.0090
   41MOL   H83734517   7.360   3.661   1.551  2.6081 -1.0956  0.6451
   41MOL   H83834518   7.312   3.575   1.693 -2.1756 -0.2918 -1.8454
   41MOL   H83934519   7.180   3.762   1.785 -0.0842  0.3573 -0.1924
   41MOL   H84034520   7.195   3.852   1.630 -1.2775  0.1324  1.5894
   41MOL   H84134521   7.127   3.693   1.634 -1.1860 -0.6716  2.0274
   41MOL   H84234522   0.723   3.130   1.619  0.5049  0.3592 -1.6150
   42MOL     C134523   0.202   4.474   6.050 -0.0849 -0.2385 -1.0552
   42MOL     C234524   0.211   4.617   6.080  0.2547  0.3168 -0.3499
   42MOL     C334525   0.067   4.688   6.062  0.3998 -0.1148 -0.5826
   42MOL     C434526   0.035   4.716   5.916  0.2216 -0.0871  0.3380
   42MOL     C534527   7.598   4.786   5.896 -0.2436 -0.0541 -0.7149
   42MOL     C634528   7.564   4.811   5.748 -0.3500  0.4854  0.6828
   42MOL     C734529   7.420   4.847   5.738 -0.2378 -0.7265  0.4422
   42MOL     C834530   7.389   4.889   5.595  0.1296  0.3046  0.3334
   42MOL     C934531   7.372   5.035   5.576  0.0230  0.5000  0.1943
   42MOL    C1034532   7.315   5.062   5.435 -0.2027  0.1853 -0.7760
   42MOL    C1134533   7.345   5.202   5.366 -0.6898 -0.3157 -0.0169
   42MOL    C1234534   7.399   5.191   5.231  0.4708  0.3190 -0.0583
   42MOL    C1334535   7.424   5.322   5.161 -0.2434 -0.5113  0.6617
   42MOL    C1434536   7.515   5.305   5.041 -0.7190 -0.5535  0.6867
   42MOL    H1534537   0.142   4.423   6.126  1.4590 -0.4927  0.0009
   42MOL    H1634538   0.301   4.429   6.048  0.8387  1.7009 -0.1893
   42MOL    H1734539   0.283   4.667   6.015  0.7183 -0.2814 -0.3014
   42MOL    H1834540   7.695   4.624   6.118 -0.3786  2.3277  1.3446
   42MOL    H1934541   0.057   4.781   6.117  0.8520 -0.5602  0.2555
   42MOL    H2034542   0.036   4.619   5.867 -0.5252 -0.6064  1.3357
   42MOL    H2134543   0.116   4.777   5.875 -0.0017  0.6288  0.9584
   42MOL    H2234544   7.592   4.882   5.948  0.7884  0.6249 -1.8436
   42MOL    H2334545   7.520   4.720   5.935  0.5280 -1.5029 -1.6158
   42MOL    H2434546   7.577   4.724   5.684 -3.8186  1.3479 -1.3396
   42MOL    H2534547   7.633   4.884   5.705 -2.0260  1.8623  0.2869
   42MOL    H2634548   7.365   4.761   5.776 -1.5988  0.2280  0.6586
   42MOL    H2734549   7.411   4.939   5.796 -3.4809  1.8829 -3.9120
   42MOL    H2834550   7.293   4.844   5.569  0.2338  1.8402 -3.0138
   42MOL    H2934551   7.459   4.856   5.518 -2.7269 -0.4702 -2.0341
   42MOL    H3034552   7.302   5.082   5.645 -1.8868  1.5505 -2.3553
   42MOL    H3134553   7.473   5.074   5.586  1.5604 -3.5615  1.1973
   42MOL    H3234554   7.329   4.973   5.374  0.8990 -0.5919  0.5776
   42MOL    H3334555   7.207   5.059   5.449 -0.3485 -0.9295 -1.9930
   42MOL    H3434556   7.247   5.247   5.349 -0.0646  1.1925  0.2690
   42MOL    H3534557   7.394   5.271   5.435  0.2537 -0.3634 -0.6373
   42MOL    H3634558   7.345   5.124   5.165  1.1258 -1.3895  1.0848
   42MOL    H3734559   7.499   5.151   5.251  0.7008 -0.1494 -2.0676
   42MOL    H3834560   7.333   5.364   5.118 -0.5967 -1.5494  0.3799
   42MOL    H3934561   7.483   5.379   5.233 -1.0629 -0.6760  1.4751
   42MOL    H4034562   7.522   5.408   5.006  2.7254 -0.7896  0.5957
   42MOL    H4134563   7.616   5.275   5.067  0.9176  3.3263 -0.9525
   42MOL    H4234564   7.480   5.236   4.964  0.1795  0.9163 -1.0689
   42MOL    H4334565   0.165   4.453   5.950 -1.6008  2.5325 -1.1087
   42MOL    C4434566   0.246   4.640   6.235 -0.7079  0.3408 -0.3641
   42MOL    C4534567   0.394   4.605   6.270  0.0565 -0.2412 -0.2802
   42MOL    C4634568   0.407   4.456   6.306 -0.4009 -0.0673 -0.2112
   42MOL    C4734569   0.546   4.393   6.293 -0.5293 -0.0190 -0.6837
   42MOL    C4834570   0.562   4.251   6.339  0.0667  0.7488 -0.0984
   42MOL    C4934571   0.471   4.148   6.266  0.3374  0.1913  0.1022
   42MOL    C5034572   0.503   4.005   6.283 -0.3178  0.1549 -0.0958
   42MOL    C5134573   0.506   3.950   6.428 -0.3006  0.0661 -0.1720
   42MOL    C5234574   0.377   3.949   6.498 -0.1535  0.2823  0.2809
   42MOL    C5334575   0.387   3.869   6.634  0.0228  0.7314  0.5152
   42MOL    C5434576   0.372   3.724   6.614 -0.2338 -0.1932  0.7998
   42MOL    C5534577   0.408   3.653   6.744 -0.0489  0.0675  0.3953
   42MOL    C5634578   0.395   3.493   6.732 -0.0976  0.0464 -0.9377
   42MOL    C5734579   0.467   3.423   6.845  0.1940  0.3245 -0.3561
   42MOL    H5834580   0.230   4.746   6.257 -0.2197 -0.0649  2.0604
   42MOL    H5934581   0.183   4.581   6.302  0.4324 -0.7360 -0.2307
   42MOL    H6034582   0.459   4.622   6.184 -1.7355 -0.4342 -1.6910
   42MOL    H6134583   0.366   4.440   6.406 -3.1387 -1.8845 -1.5502
   42MOL    H6234584   0.333   4.399   6.248 -0.4928 -2.7372  2.4232
   42MOL    H6334585   0.615   4.450   6.355 -2.6017  3.9199 -1.8371
   42MOL    H6434586   0.580   4.407   6.190  0.5783 -1.1417 -0.4804
   42MOL    H6534587   0.548   4.244   6.447  1.7479  3.6438  0.3658
   42MOL    H6634588   0.666   4.219   6.332  0.6536  2.4019  0.8787
   42MOL    H6734589   0.367   4.168   6.291  0.1119 -0.4797 -0.2873
   42MOL    H6834590   0.493   4.167   6.161  3.9870 -0.4409  0.6814
   42MOL    H6934591   0.443   3.936   6.223 -1.1368  0.3629  0.4725
   42MOL    H7034592   0.599   3.998   6.234 -1.2057  2.2328 -2.2161
   42MOL    H7134593   0.568   4.013   6.492  1.0537 -0.2307 -1.1910
   42MOL    H7234594   0.567   3.861   6.439  4.0193  2.8597 -0.1088
   42MOL    H7334595   0.350   4.052   6.517  0.1909  0.4365 -0.0463
   42MOL    H7434596   0.304   3.893   6.440  0.7552  0.6772 -1.2732
   42MOL    H7534597   0.308   3.900   6.702 -0.9246 -2.7356  1.1015
   42MOL    H7634598   0.486   3.887   6.675  0.7979 -1.2212 -0.4044
   42MOL    H7734599   0.433   3.691   6.530 -0.4729  0.9874  0.1579
   42MOL    H7834600   0.267   3.709   6.586  0.6348 -3.6610 -0.9138
   42MOL    H7934601   0.509   3.680   6.776  0.5671 -2.0467  0.3086
   42MOL    H8034602   0.340   3.685   6.823 -1.0005  0.6223 -0.6355
   42MOL    H8134603   0.448   3.470   6.640 -0.1436  1.4606 -1.3364
   42MOL    H8234604   0.289   3.466   6.735 -0.2323  0.5420 -1.1045
   42MOL    H8334605   0.572   3.455   6.847  0.1777  0.7203 -3.2439
   42MOL    H8434606   0.461   3.314   6.841  0.6899  0.2351  0.9003
   42MOL    H8534607   0.437   3.442   6.948 -0.2417  2.4519 -0.8492
   42MOL    C8634608   0.459   4.679   6.387  0.0967 -0.6702 -0.2803
   42MOL    C8734609   0.522   4.813   6.354 -0.6907  0.3934 -0.6046
   42MOL    C8834610   0.659   4.795   6.287  0.0758 -0.0887  0.7737
   42MOL    C8934611   0.726   4.923   6.244  0.0736  0.1375  0.0110
   42MOL    C9034612   0.819   4.899   6.127  0.0862  0.5745  0.8164
   42MOL    C9134613   0.919   5.015   6.105  0.1479 -0.2043 -0.6669
   42MOL    C9234614   1.008   4.993   5.985 -0.1242 -0.4054  0.1272
   42MOL    C9334615   1.093   5.117   5.932  0.3262  0.3096  0.7417
   42MOL    C9434616   1.198   5.169   6.027  0.2875 -0.4723 -0.5716
   42MOL    C9534617   1.288   5.282   5.957 -0.0323 -0.6216  1.2650
   42MOL    C9634618   1.416   5.310   6.030  0.2913  0.9952  0.1618
   42MOL    C9734619   1.500   5.414   5.952 -0.3339  0.0562 -0.2245
   42MOL    C9834620   1.633   5.443   6.021  0.3633  0.0374  0.0986
   42MOL    C9934621   1.700   5.557   5.947 -0.1988 -0.1059 -0.4193
   42MOL   H10034622   0.372   4.688   6.452 -0.6771 -0.3455 -1.3423
   42MOL   H10134623   0.528   4.614   6.440  0.0533  1.4591  2.4914
   42MOL   H10234624   0.452   4.873   6.297 -3.5347 -0.7883  1.4997
   42MOL   H10334625   0.725   4.742   6.355  0.3688 -0.4708  0.1955
   42MOL   H10434626   0.650   4.727   6.202 -0.4048  3.0633 -1.8183
   42MOL   H10534627   0.649   4.997   6.222 -0.3216  0.1003  1.2605
   42MOL   H10634628   0.779   4.973   6.325 -2.1845  1.3016  0.8048
   42MOL   H10734629   0.765   4.872   6.036  2.4063  1.6020 -0.9121
   42MOL   H10834630   0.879   4.811   6.153 -1.8225 -0.2155  2.6246
   42MOL   H10934631   0.979   5.019   6.196 -1.5899 -0.9629  0.5405
   42MOL   H11034632   0.865   5.109   6.093 -0.2066 -0.2021  0.7772
   42MOL   H11134633   1.071   4.909   6.016 -0.8829 -0.5035  1.4344
   42MOL   H11234634   0.955   4.955   5.898 -0.1305  0.2410 -0.1564
   42MOL   H11334635   1.030   5.205   5.917  0.9956  0.6141 -0.3202
   42MOL   H11434636   1.141   5.088   5.839  1.0767  0.3574  1.1067
   42MOL   H11534637   1.147   5.198   6.119  1.3586  2.2690 -0.8227
   42MOL   H11634638   1.262   5.088   6.063 -0.8628 -0.7754  0.8770
   42MOL   H11734639   1.228   5.373   5.950 -1.5865 -1.5899  1.8657
   42MOL   H11834640   1.309   5.255   5.854 -1.4884 -2.0086  1.3074
   42MOL   H11934641   1.386   5.359   6.123  2.6927 -0.0840  1.5423
   42MOL   H12034642   1.468   5.217   6.051 -2.0756 -1.1288 -2.9190
   42MOL   H12134643   1.539   5.371   5.860  2.9101  1.4587  0.3864
   42MOL   H12234644   1.450   5.510   5.941  0.4441  0.6057  0.8649
   42MOL   H12334645   1.699   5.357   6.011  1.9774  1.3332 -0.5992
   42MOL   H12434646   1.607   5.463   6.125 -0.9064  0.9581 -0.3856
   42MOL   H12534647   1.713   5.526   5.843  1.6550 -1.1402  0.0914
   42MOL   H12634648   1.644   5.650   5.934 -0.1530 -0.0988 -0.5740
   42MOL   H12734649   1.792   5.575   6.002  0.4743 -0.1568 -1.5079
   42MOL   C12834650   0.548   4.888   6.484 -0.0882 -0.1458  0.1138
   42MOL   C12934651   0.414   4.946   6.553 -0.6285 -0.2386  0.3226
   42MOL   C13034652   0.381   4.871   6.685  0.3965  0.0126  0.0235
   42MOL   C13134653   0.246   4.908   6.758 -0.7350  1.0494 -0.1453
   42MOL   C13234654   0.181   4.799   6.856  0.1187  0.8661 -0.6165
   42MOL   C13334655   0.121   4.853   6.985 -0.2988 -0.0878 -0.1038
   42MOL   C13434656   0.010   4.770   7.044 -0.1966 -0.2115 -0.5202
   42MOL   C13534657   7.631   4.853   7.150  0.3997 -0.0471  0.2206
   42MOL   C13634658   7.523   4.772   7.221  0.1794 -0.4171 -0.0240
   42MOL   C13734659   7.436   4.863   7.310  0.0844  0.0955  0.3078
   42MOL   C13834660   7.320   4.799   7.387 -1.0545 -0.6581 -0.2407
   42MOL   C13934661   7.212   4.747   7.304  0.3494 -0.2270 -0.5849
   42MOL   C14034662   7.095   4.688   7.392  0.7508  0.8459  0.2749
   42MOL   C14134663   6.987   4.634   7.297  0.2375 -0.1262 -0.0536
   42MOL   H14234664   0.604   4.829   6.557  0.6830  0.8248  0.3230
   42MOL   H14334665   0.613   4.974   6.464 -1.3225  0.8943  0.5217
   42MOL   H14434666   0.335   4.911   6.487 -0.8350  2.1493 -0.7509
   42MOL   H14534667   0.365   4.773   6.641  0.9565 -1.0772  2.2350
   42MOL   H14634668   0.459   4.864   6.761 -0.1975  1.7074  0.8119
   42MOL   H14734669   0.256   5.004   6.809 -3.3935  0.3721  1.6919
   42MOL   H14834670   0.176   4.920   6.676  0.0766 -0.2916 -1.0608
   42MOL   H14934671   0.095   4.752   6.810  1.0398 -0.2142 -1.2696
   42MOL   H15034672   0.254   4.718   6.868  0.9788  1.5197 -1.3601
   42MOL   H15134673   0.205   4.859   7.054 -0.6760  2.1892  0.1726
   42MOL   H15234674   0.095   4.958   6.978 -0.4385 -0.0786  0.5150
   42MOL   H15334675   7.636   4.740   6.966  0.7542  0.6037 -1.6953
   42MOL   H15434676   0.046   4.678   7.090  3.0262  1.6862  0.9264
   42MOL   H15534677   0.004   4.910   7.213 -0.8540  1.2876  0.4215
   42MOL   H15634678   7.571   4.923   7.092  0.1055 -0.6536 -0.2081
   42MOL   H15734679   7.458   4.729   7.145 -1.2381 -0.9020  1.4241
   42MOL   H15834680   7.566   4.688   7.276  1.1758  0.9491  1.3002
   42MOL   H15934681   7.393   4.935   7.240 -2.3413 -1.0845  0.5176
   42MOL   H16034682   7.498   4.916   7.382 -0.2557  0.5789  0.2449
   42MOL   H16134683   7.353   4.714   7.446 -1.9837 -1.3537 -0.7333
   42MOL   H16234684   7.290   4.876   7.459  1.2544 -0.7121  0.8324
   42MOL   H16334685   7.172   4.824   7.238  0.7974  1.2181  0.7819
   42MOL   H16434686   7.257   4.674   7.236  0.5554  0.4580 -1.1895
   42MOL   H16534687   7.127   4.594   7.437 -1.4910 -0.9615 -1.7461
   42MOL   H16634688   7.044   4.753   7.463 -0.1991  0.9248 -0.4783
   42MOL   H16734689   7.038   4.568   7.227 -1.7818  0.1263 -1.8202
   42MOL   H16834690   6.911   4.573   7.346  0.6686 -0.0301  0.7508
   42MOL   H16934691   6.939   4.712   7.238  1.1731 -0.4777 -1.2878
   42MOL   C17034692   0.403   5.099   6.559 -0.1426 -0.5208 -0.2049
   42MOL   C17134693   0.328   5.159   6.438 -0.4612 -0.0762  0.4202
   42MOL   C17234694   0.182   5.132   6.442 -0.0708  1.1581 -0.0976
   42MOL   C17334695   0.112   5.198   6.559  0.1131 -0.2034 -0.3920
   42MOL   C17434696   7.652   5.191   6.540 -0.1188  0.8941 -0.0892
   42MOL   C17534697   7.586   5.276   6.425 -0.1218 -0.1209  0.0509
   42MOL   C17634698   7.430   5.269   6.435 -0.2171  0.2158  0.0542
   42MOL   C17734699   7.359   5.364   6.333 -0.2554 -1.1509  0.5331
   42MOL   C17834700   7.209   5.386   6.369  0.3296 -0.5191 -0.3247
   42MOL   C17934701   7.126   5.468   6.271  0.4185 -0.3339 -0.1737
   42MOL   C18034702   6.990   5.516   6.330 -0.8605  0.4962  0.6687
   42MOL   C18134703   6.914   5.626   6.253  0.7444  0.3300 -0.4831
   42MOL   C18234704   6.775   5.660   6.311 -0.2411  0.5813 -0.9447
   42MOL   C18334705   6.711   5.777   6.238  0.5625 -0.2488 -0.0780
   42MOL   H18434706   0.502   5.144   6.572 -0.6090  1.0767 -1.9563
   42MOL   H18534707   0.350   5.126   6.650 -1.6058  0.4961 -1.3402
   42MOL   H18634708   0.360   5.115   6.344 -0.0715  1.8745 -0.3834
   42MOL   H18734709   0.131   5.162   6.350  1.2080  0.1184 -1.1588
   42MOL   H18834710   0.162   5.026   6.457  1.0023  0.9168 -0.3393
   42MOL   H18934711   0.136   5.150   6.654  1.6829  1.1789 -0.0693
   42MOL   H19034712   0.134   5.304   6.568  2.0167 -0.2709 -3.4251
   42MOL   H19134713   7.628   5.085   6.531  4.0424 -0.2003  0.7701
   42MOL   H19234714   7.609   5.239   6.628 -1.0340  0.5260 -0.3296
   42MOL   H19334715   7.619   5.237   6.329  1.5401 -0.0395  0.5820
   42MOL   H19434716   7.617   5.380   6.428  0.2147 -0.2371  0.6935
   42MOL   H19534717   7.403   5.299   6.536  1.4754 -0.5306  0.7549
   42MOL   H19634718   7.398   5.165   6.428 -1.6495  0.6356  0.3164
   42MOL   H19734719   7.389   5.336   6.232  1.3260  0.3468  0.5573
   42MOL   H19834720   7.403   5.464   6.341 -1.2380 -0.7163  0.6449
   42MOL   H19934721   7.202   5.427   6.470 -1.2348 -2.4463  0.4005
   42MOL   H20034722   7.156   5.291   6.359 -0.6586  0.1752 -1.7999
   42MOL   H20134723   7.104   5.416   6.178 -0.6422  0.3848 -0.3365
   42MOL   H20234724   7.184   5.551   6.228 -0.8447  0.5027 -0.2947
   42MOL   H20334725   6.997   5.542   6.435  0.9936 -0.3087  0.7589
   42MOL   H20434726   6.932   5.424   6.341  1.6256 -1.1023  0.5943
   42MOL   H20534727   6.968   5.720   6.258  0.4416  0.4479  0.6668
   42MOL   H20634728   6.910   5.598   6.148 -3.7950 -0.9613 -0.0866
   42MOL   H20734729   6.721   5.565   6.313  1.2478 -0.2774 -0.4082
   42MOL   H20834730   6.789   5.690   6.414 -2.2332 -1.5426 -0.0055
   42MOL   H20934731   6.690   5.751   6.134  0.1495 -1.0896  0.2108
   42MOL   H21034732   6.776   5.864   6.248 -0.8821  1.5197 -4.5114
   42MOL   H21134733   6.612   5.795   6.279 -0.7036  0.0853 -3.1533
   42MOL   C21234734   0.361   5.309   6.429  0.0139 -0.6473  0.6652
   42MOL   C21334735   0.506   5.350   6.370  0.6167  0.9202 -1.0896
   42MOL   C21434736   0.499   5.375   6.221  0.2744  0.9929 -0.2315
   42MOL   C21534737   0.641   5.410   6.169 -1.1672 -0.2963 -0.0196
   42MOL   C21634738   0.621   5.447   6.020 -0.4932  0.8277 -0.1242
   42MOL   C21734739   0.759   5.468   5.949  0.0769  1.0554 -0.2234
   42MOL   C21834740   0.824   5.599   5.988  0.0985  0.0207  0.0395
   42MOL   C21934741   0.938   5.636   5.891 -0.3980  0.0154  0.2400
   42MOL   C22034742   1.021   5.752   5.957  0.5738  0.0259 -0.5929
   42MOL   C22134743   1.125   5.799   5.857  0.2551 -0.3367  0.2542
   42MOL   C22234744   1.196   5.914   5.918 -0.2173  0.4014 -0.8482
   42MOL   C22334745   1.333   5.940   5.842  0.1522 -0.0976 -0.7478
   42MOL   C22434746   1.387   6.080   5.887 -0.5307  0.2534 -0.4086
   42MOL   C22534747   1.501   6.123   5.794  0.6997 -0.6496 -0.0801
   42MOL   H22634748   0.350   5.350   6.530 -0.1988 -1.2579  0.8904
   42MOL   H22734749   0.284   5.367   6.377  0.8442 -1.4151 -1.4572
   42MOL   H22834750   0.568   5.262   6.389 -2.7021 -1.1457  0.6978
   42MOL   H22934751   0.461   5.297   6.156 -0.3863  2.5195 -1.7253
   42MOL   H23034752   0.440   5.465   6.203  0.2109  0.7081 -1.4883
   42MOL   H23134753   0.710   5.326   6.176  1.3207  1.6503 -0.5776
   42MOL   H23234754   0.676   5.498   6.223 -0.0959  0.5783 -2.0671
   42MOL   H23334755   0.562   5.535   5.997 -1.0575  0.7350  0.9723
   42MOL   H23434756   0.578   5.365   5.963 -0.4004  0.5435  0.2156
   42MOL   H23534757   0.752   5.453   5.841  2.5895 -0.5277 -0.1971
   42MOL   H23634758   0.816   5.379   5.974  1.3470  1.5168 -1.3967
   42MOL   H23734759   0.755   5.684   5.984 -1.1553 -0.9230  1.3258
   42MOL   H23834760   0.867   5.583   6.087 -0.5678  0.9359  0.4887
   42MOL   H23934761   0.999   5.549   5.865  0.9042  1.5132 -1.7976
   42MOL   H24034762   0.898   5.667   5.795  0.6041 -0.5297 -0.3631
   42MOL   H24134763   1.065   5.723   6.052  1.0670  3.9585  0.4479
   42MOL   H24234764   0.959   5.834   5.992 -1.2402 -1.4505 -0.2370
   42MOL   H24334765   1.197   5.720   5.836 -0.2086 -0.8048  0.4391
   42MOL   H24434766   1.076   5.829   5.764 -1.1830 -1.7497  0.5329
   42MOL   H24534767   1.227   5.874   6.014 -1.4099  0.8796 -0.2576
   42MOL   H24634768   1.131   6.001   5.925  0.2777  0.6570  0.6670
   42MOL   H24734769   1.316   5.935   5.734  0.5981  1.7151 -0.9157
   42MOL   H24834770   1.403   5.859   5.861  0.3072  0.2917  0.3473
   42MOL   H24934771   1.434   6.079   5.986 -0.3261 -0.3927 -0.5080
   42MOL   H25034772   1.309   6.155   5.902 -1.2423 -0.7033  0.8717
   42MOL   H25134773   1.465   6.144   5.693 -1.1825  2.7325  1.1999
   42MOL   H25234774   1.527   6.224   5.825 -0.7178 -0.2637 -0.1234
   42MOL   H25334775   1.592   6.063   5.789  1.9242  1.1033  0.4965
   42MOL   C25434776   0.565   5.464   6.455  0.1010  0.1824 -0.3015
   42MOL   C25534777   0.647   5.421   6.575  0.0934  0.1324  0.3552
   42MOL   C25634778   0.788   5.379   6.529  0.0124  0.1838 -0.3243
   42MOL   C25734779   0.888   5.488   6.476 -0.1373 -0.2941 -0.1632
   42MOL   C25834780   1.005   5.415   6.405  0.0083 -0.7919  0.5785
   42MOL   C25934781   1.088   5.513   6.316  0.2232 -0.6133 -0.0819
   42MOL   C26034782   1.224   5.555   6.373 -0.1991  0.1032  0.4347
   42MOL   C26134783   1.299   5.637   6.255  0.7272 -0.2927  0.5335
   42MOL   C26234784   1.442   5.676   6.307 -0.2018  0.0137  0.2664
   42MOL   C26334785   1.520   5.753   6.200  0.7101  0.3342  0.2076
   42MOL   C26434786   1.671   5.762   6.224  0.5410  0.5425 -0.2196
   42MOL   C26534787   1.740   5.868   6.141  0.4121  0.1618  0.0566
   42MOL   C26634788   1.875   5.910   6.197 -0.1772 -0.2439  0.2252
   42MOL   C26734789   1.916   6.053   6.168 -0.1749  0.4206  0.9623
   42MOL   H26834790   0.482   5.531   6.477  0.4381  0.8476 -1.0381
   42MOL   H26934791   0.640   5.529   6.409  2.8083 -0.4521  2.9720
   42MOL   H27034792   0.603   5.335   6.625  0.3625  1.5449  3.1189
   42MOL   H27134793   0.780   5.300   6.454  3.2910 -0.9138  0.4105
   42MOL   H27234794   0.839   5.332   6.613 -0.5827  0.4639  0.2035
   42MOL   H27334795   0.907   5.566   6.550  1.5282 -2.0028  1.2606
   42MOL   H27434796   0.844   5.552   6.399 -0.3143 -2.7403 -2.1483
   42MOL   H27534797   0.969   5.346   6.329  0.2120  0.4647 -0.6952
   42MOL   H27634798   1.069   5.360   6.473 -0.5191  0.3968  2.0562
   42MOL   H27734799   1.036   5.604   6.288  1.4122 -0.3095 -1.3768
   42MOL   H27834800   1.097   5.467   6.217  1.8094  0.8543 -0.6557
   42MOL   H27934801   1.210   5.612   6.465  2.1219  2.0236 -0.3628
   42MOL   H28034802   1.280   5.469   6.408 -0.7011 -1.2124 -1.8355
   42MOL   H28134803   1.238   5.724   6.230 -2.0932 -2.2627  0.3209
   42MOL   H28234804   1.307   5.579   6.164  0.2176  0.6952 -0.1478
   42MOL   H28334805   1.425   5.750   6.385 -2.2786  0.0599 -0.2044
   42MOL   H28434806   1.500   5.594   6.349  0.1743 -0.1704 -0.6070
   42MOL   H28534807   1.479   5.853   6.193  0.4814  0.0743 -2.5355
   42MOL   H28634808   1.495   5.705   6.106 -0.8904 -0.9337  1.2622
   42MOL   H28734809   1.721   5.666   6.216  0.8211  0.6189  0.5391
   42MOL   H28834810   1.670   5.792   6.329  0.6773 -0.4661  0.0714
   42MOL   H28934811   1.724   5.835   6.038 -0.0807  1.3593 -0.2520
   42MOL   H29034812   1.676   5.955   6.154  0.9106  0.7712 -1.4738
   42MOL   H29134813   1.881   5.903   6.306  1.7213 -1.0325  0.0869
   42MOL   H29234814   1.947   5.832   6.172  1.0386  0.2345  2.1542
   42MOL   H29334815   1.936   6.072   6.063 -0.9478  0.9537  0.9132
   42MOL   H29434816   2.014   6.072   6.214  0.6181  0.7088 -0.8043
   42MOL   H29534817   1.830   6.113   6.198 -0.3484 -0.1165  1.5671
   42MOL   C29634818   0.649   5.537   6.677  0.2652 -0.0819  0.4683
   42MOL   C29734819   0.711   5.498   6.814 -0.0562 -0.4821  0.2712
   42MOL   C29834820   0.748   5.620   6.901 -0.2964 -1.1685 -0.1559
   42MOL   C29934821   0.869   5.699   6.854 -0.5425  1.1634 -0.7709
   42MOL   C30034822   0.899   5.814   6.952 -0.2781  0.5042  0.4217
   42MOL   C30134823   0.995   5.923   6.893  0.3123 -0.6598 -0.3186
   42MOL   C30234824   1.142   5.886   6.883 -0.7158 -0.2475  0.9120
   42MOL   C30334825   1.221   5.979   6.784 -0.1479  0.2012 -0.4002
   42MOL   C30434826   1.371   5.949   6.775  0.6576 -0.8706 -0.1940
   42MOL   C30534827   1.399   5.832   6.681 -0.0828 -0.1698  0.2954
   42MOL   C30634828   1.533   5.758   6.688  0.1244  0.0806 -0.5346
   42MOL   C30734829   1.558   5.704   6.827 -0.4706  0.1045  0.4612
   42MOL   C30834830   1.681   5.613   6.834  1.0651  0.1748  0.1896
   42MOL   C30934831   1.645   5.470   6.789  0.0885 -0.7970  0.3332
   42MOL   H31034832   0.544   5.565   6.687  0.0756  0.4973 -2.8078
   42MOL   H31134833   0.702   5.625   6.640 -1.1905  1.2240  1.4001
   42MOL   H31234834   0.800   5.439   6.792 -1.0870 -2.2403  0.7178
   42MOL   H31334835   0.762   5.599   7.007 -0.9640 -0.8506 -0.0007
   42MOL   H31434836   0.661   5.686   6.901  0.1654 -0.5570 -0.2446
   42MOL   H31534837   0.843   5.755   6.763 -2.1584 -0.0043 -1.0455
   42MOL   H31634838   0.949   5.631   6.826 -0.5833  0.9541 -0.3697
   42MOL   H31734839   0.800   5.858   6.968 -0.5558 -0.0169  0.1677
   42MOL   H31834840   0.940   5.769   7.043  2.8079 -0.9471 -1.5892
   42MOL   H31934841   0.981   6.001   6.968 -2.4312 -1.6507  0.2820
   42MOL   H32034842   0.960   5.951   6.793  0.5249 -2.3701 -0.8769
   42MOL   H32134843   1.184   5.899   6.983 -1.3743 -1.5528  1.3619
   42MOL   H32234844   1.152   5.782   6.850 -0.9944 -0.1970  0.6650
   42MOL   H32334845   1.209   6.081   6.819  0.8215 -0.1344  0.9301
   42MOL   H32434846   1.169   5.976   6.688 -1.5690 -1.3648  0.3909
   42MOL   H32534847   1.430   6.034   6.741 -0.4055 -0.0717 -0.0677
   42MOL   H32634848   1.409   5.941   6.877 -1.6090  0.6562  0.8183
   42MOL   H32734849   1.386   5.864   6.578  1.1502  0.5886  0.3654
   42MOL   H32834850   1.332   5.755   6.721 -0.0369 -0.0441  0.6141
   42MOL   H32934851   1.607   5.832   6.658  0.4135  0.7848  1.7601
   42MOL   H33034852   1.536   5.691   6.602 -1.1490  0.1935 -0.6709
   42MOL   H33134853   1.469   5.657   6.868 -0.6568  0.0147 -0.0540
   42MOL   H33234854   1.572   5.779   6.905  0.4263  0.9470 -0.5034
   42MOL   H33334855   1.724   5.613   6.934  0.3280 -0.2543  0.5130
   42MOL   H33434856   1.762   5.661   6.780  2.1834  2.7701  4.0135
   42MOL   H33534857   1.736   5.411   6.797 -0.0564 -0.9685  0.7264
   42MOL   H33634858   1.574   5.421   6.857 -1.5719 -0.4089 -1.0750
   42MOL   H33734859   1.600   5.462   6.690 -0.3039  0.5219  0.3988
   42MOL   C33834860   0.615   5.397   6.887  0.8340  0.0929  0.5284
   42MOL   C33934861   0.660   5.335   7.021 -0.7597 -0.0233  0.0275
   42MOL   C34034862   0.545   5.250   7.082  0.8160 -0.4580 -0.2129
   42MOL   C34134863   0.446   5.322   7.173  0.0578  0.0301  0.6574
   42MOL   C34234864   0.327   5.224   7.214 -0.5384 -0.1419 -0.5191
   42MOL   C34334865   0.199   5.298   7.257 -0.2134  0.0158  0.1284
   42MOL   C34434866   0.068   5.207   7.283  0.1147  0.3140  0.0109
   42MOL   C34534867   7.650   5.275   7.365 -0.0757  0.0506 -0.4164
   42MOL   C34634868   7.515   5.208   7.351  0.3934  0.3036 -0.0031
   42MOL   C34734869   7.410   5.270   7.451  0.2794  0.4690 -0.8829
   42MOL   C34834870   7.273   5.199   7.448 -0.3329 -0.1474  0.3214
   42MOL   C34934871   7.210   5.218   7.306  0.3623 -0.4740 -0.0528
   42MOL   C35034872   7.069   5.162   7.304  0.0648  0.4992 -0.1488
   42MOL   C35134873   7.027   5.126   7.156  0.5535  0.8057 -0.1826
   42MOL   H35234874   0.526   5.457   6.905  1.0983  0.4546  0.6131
   42MOL   H35334875   0.595   5.310   6.824 -1.3780 -0.2541  1.6483
   42MOL   H35434876   0.671   5.422   7.086 -0.5536  1.1444 -1.5208
   42MOL   H35534877   0.487   5.193   7.010 -0.2014  1.3453 -0.8517
   42MOL   H35634878   0.595   5.177   7.146  0.7161 -0.1992  0.1655
   42MOL   H35734879   0.401   5.408   7.124  1.7800  1.1296  0.9699
   42MOL   H35834880   0.488   5.361   7.265 -0.7806  1.7445  0.3233
   42MOL   H35934881   0.366   5.162   7.294  2.0820 -0.1695 -1.7572
   42MOL   H36034882   0.292   5.149   7.142  0.0095 -1.3378  0.4504
   42MOL   H36134883   0.233   5.354   7.345  0.9228 -2.1006  1.0629
   42MOL   H36234884   0.170   5.371   7.182 -0.2437 -2.1722 -2.0365
   42MOL   H36334885   0.031   5.170   7.188 -0.1941 -1.1962  0.6847
   42MOL   H36434886   0.106   5.124   7.343  2.5872 -0.3671 -2.3843
   42MOL   H36534887   7.687   5.263   7.467 -0.5325 -0.0666 -0.2674
   42MOL   H36634888   7.638   5.380   7.338 -0.8063  0.4068  1.3028
   42MOL   H36734889   7.489   5.225   7.246  0.0814 -0.2661 -0.0202
   42MOL   H36834890   7.524   5.099   7.358  0.1455  0.3674  1.4074
   42MOL   H36934891   7.455   5.267   7.550 -2.7016  1.4772  0.5326
   42MOL   H37034892   7.411   5.377   7.429  2.2152  1.0621  1.8335
   42MOL   H37134893   7.214   5.247   7.526  1.8592  2.6982  0.3087
   42MOL   H37234894   7.297   5.094   7.468  0.8262  0.2422  1.0156
   42MOL   H37334895   7.274   5.169   7.232 -1.2193  0.0230 -1.7819
   42MOL   H37434896   7.205   5.326   7.293  0.0362 -0.5840 -0.8984
   42MOL   H37534897   7.071   5.073   7.368  0.5015  0.3955 -0.3027
   42MOL   H37634898   7.003   5.236   7.349  0.3196  0.0506  0.9728
   42MOL   H37734899   6.924   5.090   7.161  1.1345 -1.0303 -0.9170
   42MOL   H37834900   7.042   5.216   7.097 -0.3282  0.7043 -0.5733
   42MOL   H37934901   7.090   5.042   7.126  0.6597  0.1866  1.7443
   42MOL   C38034902   0.797   5.265   7.007 -0.3515  0.4290  0.3007
   42MOL   C38134903   0.870   5.251   7.141  0.0863  0.0183 -0.2530
   42MOL   C38234904   0.986   5.149   7.132  0.0076 -0.4930  0.0474
   42MOL   C38334905   1.048   5.106   7.270  0.1183 -0.3764 -0.1258
   42MOL   C38434906   1.118   4.970   7.278 -0.1624  0.2968 -0.5495
   42MOL   C38534907   1.148   4.925   7.416  0.3876 -0.3436 -0.3599
   42MOL   C38634908   1.032   4.857   7.482  0.2212 -0.4242  0.6252
   42MOL   C38734909   1.059   4.831   7.631 -0.0748 -0.0416 -0.1178
   42MOL   C38834910   0.931   4.773   7.694 -0.0930 -0.9157 -0.2278
   42MOL   C38934911   0.947   4.705   0.128 -0.4681 -0.3294  0.9537
   42MOL   C39034912   1.001   4.785   0.251 -0.4589 -0.3084 -0.0272
   42MOL   C39134913   0.989   4.707   0.386 -0.6410  0.8797  0.5778
   42MOL   C39234914   0.999   4.797   0.508 -0.4156  0.1120  0.1567
   42MOL   C39334915   1.014   4.718   0.644  0.3497  0.0154  0.0589
   42MOL   H39434916   0.860   5.320   6.937 -0.5955  2.2255  1.4456
   42MOL   H39534917   0.792   5.166   6.962  0.2042  0.5346 -0.0008
   42MOL   H39634918   0.801   5.204   7.210  0.5961 -1.5246 -0.7738
   42MOL   H39734919   1.071   5.186   7.074  0.4014  3.3856  2.9260
   42MOL   H39834920   0.961   5.055   7.083  3.8727 -0.1512 -2.9005
   42MOL   H39934921   0.965   5.104   7.341 -0.5986 -0.2582 -0.9536
   42MOL   H40034922   1.113   5.188   7.303 -0.9364  0.2969  0.3125
   42MOL   H40134923   1.213   4.991   7.228  0.5290  2.5111  1.6024
   42MOL   H40234924   1.068   4.896   7.215 -0.4054  2.6396 -3.1963
   42MOL   H40334925   1.184   5.011   7.471 -0.3568  0.6198 -1.3619
   42MOL   H40434926   1.226   4.851   7.397  0.5864 -0.4531  0.8971
   42MOL   H40534927   0.937   4.908   7.462  0.2137 -0.3916  0.7444
   42MOL   H40634928   1.004   4.761   7.439  2.3280 -0.9630  0.4322
   42MOL   H40734929   1.137   4.756   7.642 -0.9909 -1.0393 -0.3169
   42MOL   H40834930   1.088   4.924   7.680 -0.0760  0.6596 -1.4173
   42MOL   H40934931   0.853   4.848   0.008  1.4959  0.4517  2.4921
   42MOL   H41034932   0.876   4.704   7.630 -1.3425 -0.3831  0.2548
   42MOL   H41134933   1.015   4.626   0.098  1.3797  0.1175  3.7864
   42MOL   H41234934   0.848   4.663   0.145 -1.0550 -0.4315 -2.3626
   42MOL   H41334935   1.103   4.818   0.233 -0.5359 -0.5489 -0.9092
   42MOL   H41434936   0.948   4.880   0.263  0.0978  0.3115 -2.2536
   42MOL   H41534937   1.071   4.634   0.387 -1.0478  0.3861 -1.3087
   42MOL   H41634938   0.898   4.648   0.385  0.9806 -1.6973 -0.5147
   42MOL   H41734939   1.075   4.875   0.504  2.3146 -2.5326 -2.3157
   42MOL   H41834940   0.911   4.861   0.510  0.8493  1.8914  0.0601
   42MOL   H41934941   0.970   4.764   0.732 -3.4276  1.4542 -2.4384
   42MOL   H42034942   1.120   4.698   0.657  0.2486 -2.0561 -1.9018
   42MOL   H42134943   0.958   4.625   0.640 -0.7348  0.6467  0.2925
   42MOL   C42234944   0.922   5.376   7.200 -0.4634 -0.3560 -0.1872
   42MOL   C42334945   0.842   5.435   7.323 -0.1234 -0.0797  0.2911
   42MOL   C42434946   0.876   5.369   7.454  0.0377  0.0341  0.0574
   42MOL   C42534947   0.777   5.262   7.499 -0.4601 -0.2043  0.0520
   42MOL   C42634948   0.836   5.157   7.597 -0.3972  0.4889 -0.3579
   42MOL   C42734949   0.874   5.226   0.039 -0.0238  0.4803 -0.2104
   42MOL   C42834950   0.890   5.127   0.148  0.0012  0.6572 -0.2584
   42MOL   C42934951   0.938   5.172   0.279 -0.1778  0.1557  1.0484
   42MOL   C43034952   1.088   5.218   0.277  0.3946 -0.3919 -0.6597
   42MOL   C43134953   1.137   5.271   0.415 -0.3128  0.6912  0.2468
   42MOL   C43234954   1.088   5.413   0.464 -0.1832 -0.2181  0.2317
   42MOL   C43334955   1.120   5.426   0.610  0.1069 -0.1667 -0.3990
   42MOL   C43434956   1.136   5.567   0.679  0.4059  0.1625 -0.1546
   42MOL   C43534957   1.159   5.561   0.837  0.5378  0.4680  0.6676
   42MOL   H43634958   0.933   5.448   7.119  1.9765  0.1017  0.4919
   42MOL   H43734959   1.026   5.369   7.231 -0.2763  2.3514 -0.0556
   42MOL   H43834960   0.735   5.438   7.308 -0.2723 -1.4857  1.0179
   42MOL   H43934961   0.891   5.446   7.529 -0.9086  0.2472  0.0282
   42MOL   H44034962   0.975   5.324   7.452 -0.4524 -1.0375 -0.6658
   42MOL   H44134963   0.690   5.311   7.542  0.1875  1.2681 -0.2497
   42MOL   H44234964   0.753   5.216   7.403  1.1570 -0.7786 -0.0974
   42MOL   H44334965   0.926   5.123   7.547 -1.5793  0.6671 -2.6288
   42MOL   H44434966   0.775   5.067   7.602 -0.2147  0.4758  3.0434
   42MOL   H44534967   0.810   5.311   0.062 -1.6059 -0.7128 -0.1209
   42MOL   H44634968   0.974   5.263   0.019  0.4148 -0.7986 -0.4307
   42MOL   H44734969   0.795   5.075   0.154  0.6587 -0.8000 -1.8087
   42MOL   H44834970   0.949   5.050   0.097 -2.0603 -0.4149 -1.0573
   42MOL   H44934971   0.869   5.253   0.302 -1.5131 -0.7112  0.1914
   42MOL   H45034972   0.921   5.102   0.361  0.9074  0.2574  1.3707
   42MOL   H45134973   1.137   5.129   0.236 -2.2893 -1.4989 -1.5505
   42MOL   H45234974   1.093   5.304   0.210  1.9273 -0.5258 -0.7533
   42MOL   H45334975   1.114   5.196   0.491  0.7313 -0.3029 -0.4163
   42MOL   H45434976   1.245   5.269   0.419 -0.3380  1.2925  1.9156
   42MOL   H45534977   1.122   5.494   0.400 -0.3850  0.2568  0.7335
   42MOL   H45634978   0.980   5.421   0.452 -0.2445 -2.3630 -0.9677
   42MOL   H45734979   1.221   5.384   0.617  0.2048  0.3502  1.7429
   42MOL   H45834980   1.053   5.359   0.664  2.0932 -0.3871  1.9236
   42MOL   H45934981   1.222   5.610   0.627  1.8761 -1.8455  0.5212
   42MOL   H46034982   1.051   5.628   0.650  0.1905 -0.6112 -1.1649
   42MOL   H46134983   1.134   5.659   0.878 -0.4788  0.4318  0.1275
   42MOL   H46234984   1.263   5.541   0.866  0.2349 -1.2096  0.6413
   42MOL   H46334985   1.096   5.480   0.874 -0.2897  0.2895 -1.1093
   42MOL   C46434986   0.862   5.590   7.325 -0.7375  0.0190 -0.2826
   42MOL   C46534987   0.776   5.675   7.421 -0.2359  0.1473 -0.5936
   42MOL   C46634988   0.845   5.812   7.471  0.5900 -0.2785 -0.3096
   42MOL   C46734989   0.862   5.919   7.362 -0.2287 -0.1773  0.0622
   42MOL   C46834990   0.928   6.055   7.410 -0.0601  0.2014  0.9398
   42MOL   C46934991   0.912   6.146   7.288 -0.1196  0.4348  0.0201
   42MOL   C47034992   0.981   6.278   7.326  0.5589 -0.4614  0.0611
   42MOL   C47134993   0.968   6.386   7.215 -1.1848  0.0823  0.0330
   42MOL   C47234994   1.022   6.521   7.250  0.3589  0.2724  0.4448
   42MOL   C47334995   0.993   6.637   7.151 -0.1755  0.4922  0.6414
   42MOL   C47434996   1.107   6.736   7.143  0.1415 -0.7367 -0.4867
   42MOL   C47534997   1.068   6.864   7.074  0.2618 -0.1514 -0.0398
   42MOL   C47634998   1.179   6.970   7.063 -0.1131 -0.6475 -0.2714
   42MOL   C47734999   1.130   7.110   7.008 -0.8441  0.0258  0.4464
   42MOL   H47835000   0.859   5.625   7.222 -0.6237 -0.3734 -0.4174
   42MOL   H47935001   0.968   5.612   7.340 -0.8112 -0.7424  1.5498
   42MOL   H48035002   0.766   5.616   7.511  0.0529  0.8466 -0.0965
   42MOL   H48135003   0.776   5.838   7.551 -0.0585 -0.6157 -0.7612
   42MOL   H48235004   0.939   5.792   7.522  1.6692  1.7753 -1.4169
   42MOL   H48335005   0.772   5.949   7.309  0.0548  1.3934  0.4260
   42MOL   H48435006   0.924   5.872   7.286  0.7348  2.2981 -0.7439
   42MOL   H48535007   1.032   6.048   7.442 -0.2221  0.2350  1.4710
   42MOL   H48635008   0.868   6.094   7.493 -0.5184 -0.8781  1.1191
   42MOL   H48735009   0.946   6.104   7.193 -0.0846 -0.0527  0.2484
   42MOL   H48835010   0.808   6.177   7.286 -0.2209  0.0717 -2.2690
   42MOL   H48935011   0.938   6.325   7.414 -1.2625 -0.3760 -0.8399
   42MOL   H49035012   1.087   6.271   7.351  1.5058  1.0754 -3.1790
   42MOL   H49135013   1.008   6.351   7.120 -1.3552 -1.0465  0.3610
   42MOL   H49235014   0.863   6.390   7.188 -0.9649 -1.9548 -1.2058
   42MOL   H49335015   0.998   6.548   7.353 -0.5850  0.0632  0.2833
   42MOL   H49435016   1.131   6.513   7.255  0.3412 -1.5707 -1.2042
   42MOL   H49535017   0.949   6.595   7.060 -0.1248 -0.7034  1.1487
   42MOL   H49635018   0.905   6.684   7.196 -1.8631 -1.2039 -0.7715
   42MOL   H49735019   1.127   6.759   7.247 -2.0564  0.6729 -0.3690
   42MOL   H49835020   1.194   6.692   7.093  1.6504  1.7235 -0.0989
   42MOL   H49935021   0.978   6.904   7.121 -0.0840  2.2577 -2.6371
   42MOL   H50035022   1.027   6.845   6.975 -0.2445  1.4376 -0.1633
   42MOL   H50135023   1.232   6.972   7.159  1.5630  1.0204 -1.1810
   42MOL   H50235024   1.256   6.947   6.989  0.5334 -0.7341  0.4182
   42MOL   H50335025   1.075   7.105   6.914  0.5803  2.5930 -0.5760
   42MOL   H50435026   1.076   7.172   7.079 -1.1683  0.7812 -0.4549
   42MOL   H50535027   1.215   7.177   6.996 -0.2395 -0.3516  2.4657
   42MOL   C50635028   0.629   5.682   7.371 -0.1810 -0.1243 -0.4256
   42MOL   C50735029   0.516   5.697   7.472 -0.3849  0.1293  0.3312
   42MOL   C50835030   0.393   5.763   7.397 -0.3921  0.6961  0.2632
   42MOL   C50935031   0.338   5.685   7.276 -0.7551 -0.0313 -0.7122
   42MOL   C51035032   0.200   5.726   7.228 -0.2185 -1.1628 -0.2340
   42MOL   C51135033   0.089   5.699   7.325 -0.7865 -0.2423 -1.2730
   42MOL   C51235034   7.652   5.722   7.258 -0.4929  0.0103 -0.6003
   42MOL   C51335035   7.535   5.690   7.348  0.5274  0.8610 -0.2180
   42MOL   C51435036   7.399   5.721   7.272 -0.0279 -0.1646  0.0174
   42MOL   C51535037   7.276   5.687   7.348  0.0001 -0.2750  0.5250
   42MOL   C51635038   7.249   5.765   7.477  0.5213 -0.0289 -0.4779
   42MOL   C51735039   7.108   5.739   7.526  0.3040  0.0234 -0.2700
   42MOL   C51835040   7.065   5.819   7.653 -0.9589 -0.2456 -0.7037
   42MOL   C51935041   7.052   5.973   7.634  0.1056 -0.0086 -0.3091
   42MOL   H52035042   0.600   5.595   7.311 -0.4301 -1.4384  1.5778
   42MOL   H52135043   0.618   5.763   7.299 -2.1177 -1.5303 -1.7682
   42MOL   H52235044   0.544   5.778   7.540 -0.7568  0.4037  0.1636
   42MOL   H52335045   0.315   5.774   7.473 -0.7190  0.5202 -0.0455
   42MOL   H52435046   0.421   5.862   7.362  2.1276 -0.0376  0.1255
   42MOL   H52535047   0.410   5.690   7.193  1.0800 -1.7473  0.7211
   42MOL   H52635048   0.327   5.580   7.302  0.6347 -0.5525 -2.1150
   42MOL   H52735049   0.179   5.650   7.152  1.9483 -3.0664  0.9957
   42MOL   H52835050   0.192   5.827   7.190 -0.8549 -0.9313  0.5121
   42MOL   H52935051   0.094   5.765   7.412 -0.2000  0.0908 -1.5579
   42MOL   H53035052   0.102   5.596   7.359  0.1666  0.9174  2.0912
   42MOL   H53135053   7.641   5.821   7.216 -1.5294  0.0390 -0.2847
   42MOL   H53235054   7.640   5.655   7.173  1.6775 -1.8802  0.5234
   42MOL   H53335055   7.528   5.740   7.445  0.7984  0.3238  0.0800
   42MOL   H53435056   7.529   5.586   7.380  1.7787  0.7536 -0.3116
   42MOL   H53535057   7.398   5.656   7.185  1.1058 -2.1467  1.4392
   42MOL   H53635058   7.402   5.827   7.248  1.2212  0.0140  0.9213
   42MOL   H53735059   7.191   5.713   7.285 -0.2022 -0.3837  0.7543
   42MOL   H53835060   7.269   5.581   7.371 -1.8323 -0.9261 -2.7239
   42MOL   H53935061   7.324   5.740   7.552  0.6400 -1.9903 -1.2200
   42MOL   H54035062   7.269   5.869   7.452  1.4123  0.3212  1.5862
   42MOL   H54135063   7.104   5.634   7.555  3.6924  0.2363  1.1317
   42MOL   H54235064   7.026   5.751   7.456 -1.2404 -0.7914  1.3484
   42MOL   H54335065   7.127   5.797   0.044 -0.7620 -0.4908 -0.9065
   42MOL   H54435066   6.972   5.775   7.687 -0.0976 -2.2075 -0.8168
   42MOL   H54535067   6.994   6.004   7.547 -0.6862 -0.2804  0.1163
   42MOL   H54635068   7.014   6.032   0.021  0.7186 -0.8336  0.5750
   42MOL   H54735069   7.151   6.019   7.628 -0.6223  1.8087  1.2608
   42MOL   C54835070   0.482   5.569   7.554  0.0808  0.3781 -0.6605
   42MOL   C54935071   0.361   5.575   7.647  0.9011  0.1313 -0.0301
   42MOL   C55035072   0.351   5.437   0.027  0.1886 -0.1974  0.5448
   42MOL   C55135073   0.303   5.315   7.638  0.0419  0.1608 -0.3043
   42MOL   C55235074   0.277   5.193   0.027  0.2403  0.1928  0.8101
   42MOL   C55335075   0.395   5.101   0.044 -0.6718 -0.3437 -0.3067
   42MOL   C55435076   0.430   5.022   7.612  0.3277  0.0783 -0.9297
   42MOL   C55535077   0.512   4.898   7.647 -0.2005 -0.4477 -0.2039
   42MOL   C55635078   0.543   4.797   7.539 -0.1750  0.2965 -0.8167
   42MOL   C55735079   0.613   4.847   7.412 -0.0966 -0.5880 -0.4645
   42MOL   C55835080   0.631   4.746   7.302 -0.1063  0.2396 -0.7049
   42MOL   C55935081   0.688   4.819   7.181  1.0458  1.3283 -0.7754
   42MOL   C56035082   0.686   4.721   7.061 -0.2341  0.2056 -0.3541
   42MOL   C56135083   0.709   4.801   6.929 -0.5046 -0.5108 -0.1212
   42MOL   H56235084   0.460   5.494   7.478 -0.2421  0.6084 -0.7954
   42MOL   H56335085   0.568   5.540   7.614 -0.2060  0.8942  0.0105
   42MOL   H56435086   0.266   5.576   7.593  0.8702 -0.8848 -0.0145
   42MOL   H56535087   0.430   5.405   0.095 -0.6730 -0.4990  1.4276
   42MOL   H56635088   0.269   5.444   0.099 -0.2496  0.2163  0.0118
   42MOL   H56735089   0.377   5.281   7.565 -0.1764 -2.5842  0.6915
   42MOL   H56835090   0.217   5.342   7.577  0.0637 -0.8769 -0.8075
   42MOL   H56935091   0.243   5.223   0.126  0.0366  0.9413  0.5203
   42MOL   H57035092   0.193   5.142   7.675  0.8548  0.5539 -0.7069
   42MOL   H57135093   0.367   5.031   0.122 -0.4747  0.5190  0.5467
   42MOL   H57235094   0.484   5.155   0.078 -0.0102 -0.8196 -1.2526
   42MOL   H57335095   0.335   4.999   7.563 -0.6507  1.0587  0.4765
   42MOL   H57435096   0.478   5.089   7.542  0.3850 -0.0487 -1.0117
   42MOL   H57535097   0.460   4.841   0.028  2.2125 -0.8266  1.2131
   42MOL   H57635098   0.608   4.928   7.691 -1.3436  1.7330  0.8855
   42MOL   H57735099   0.447   4.763   7.502  0.3950 -0.4715 -1.6020
   42MOL   H57835100   0.599   4.716   7.585 -1.9952 -0.8417 -0.5799
   42MOL   H57935101   0.553   4.926   7.367 -0.1535 -0.3513  0.0246
   42MOL   H58035102   0.709   4.891   7.440 -1.4046  1.1361  1.4473
   42MOL   H58135103   0.540   4.693   7.274  1.4756 -2.2971 -1.2324
   42MOL   H58235104   0.698   4.668   7.338  0.8688  1.1619 -0.5155
   42MOL   H58335105   0.627   4.905   7.152 -1.4881  0.1177  0.8680
   42MOL   H58435106   0.783   4.854   7.224  0.8616 -0.0804  0.8176
   42MOL   H58535107   0.777   4.662   7.067 -0.2808  0.3363  1.9524
   42MOL   H58635108   0.598   4.656   7.054 -0.1015 -0.0138  0.0193
   42MOL   H58735109   0.798   4.863   6.931 -0.3938 -0.6263 -0.9700
   42MOL   H58835110   0.727   4.736   6.843  0.6075 -0.0130 -0.2769
   42MOL   H58935111   0.621   4.863   6.910  0.0624  0.2828 -0.1976
   42MOL   C59035112   0.367   5.701   0.041  0.2757 -0.0068  0.7330
   42MOL   C59135113   0.246   5.730   0.131  0.6749  0.1051  0.3691
   42MOL   C59235114   0.287   5.835   0.248 -0.0284  0.1907  0.0689
   42MOL   C59335115   0.231   5.819   0.389  0.7989 -0.0030 -0.3319
   42MOL   C59435116   0.292   5.906   0.494 -0.1021  0.2708  0.0009
   42MOL   C59535117   0.267   6.056   0.494 -0.1550  0.1097 -0.3538
   42MOL   C59635118   0.317   6.131   0.617 -0.3109 -0.3248  0.3794
   42MOL   C59735119   0.203   6.138   0.717 -0.0186 -0.4591  1.1030
   42MOL   C59835120   0.243   6.130   0.864 -0.8333  0.3159  0.6843
   42MOL   C59935121   0.324   6.248   0.926  0.0103 -0.1135  0.3835
   42MOL   C60035122   0.318   6.236   1.081 -0.6015  0.4165 -0.1051
   42MOL   C60135123   0.399   6.121   1.141  0.3107 -0.1411 -0.3849
   42MOL   C60235124   0.548   6.148   1.176  0.4331  0.4386 -0.3070
   42MOL   C60335125   0.651   6.150   1.060  1.1193  0.1463 -0.1652
   42MOL   H60435126   0.371   5.796   7.683 -3.1755 -1.0370 -1.4929
   42MOL   H60535127   0.454   5.699   0.107  0.4514 -1.9059  0.4703
   42MOL   H60635128   0.218   5.638   0.182  1.0622 -0.9511 -1.3091
   42MOL   H60735129   0.263   5.933   0.208  0.7269  0.5613  0.5185
   42MOL   H60835130   0.394   5.857   0.252  0.6481 -2.0831 -3.2815
   42MOL   H60935131   0.251   5.716   0.416  0.1507 -0.3054 -0.9794
   42MOL   H61035132   0.125   5.845   0.385  0.6263 -0.8414 -1.7711
   42MOL   H61135133   0.401   5.896   0.491 -0.0599  1.0785 -1.5924
   42MOL   H61235134   0.258   5.857   0.586 -0.1309  0.6806  0.2101
   42MOL   H61335135   0.164   6.084   0.475 -1.0450 -1.0743  2.4136
   42MOL   H61435136   0.315   6.101   0.408 -1.1306 -0.3756 -1.1639
   42MOL   H61535137   0.392   6.064   0.657 -0.9214 -0.2975  1.6018
   42MOL   H61635138   0.352   6.233   0.600 -0.0259 -0.1840  1.7358
   42MOL   H61735139   0.132   6.218   0.694 -2.2602 -3.3948 -2.7792
   42MOL   H61835140   0.144   6.047   0.710 -0.9381  0.1428  0.8863
   42MOL   H61935141   0.150   6.131   0.920 -0.6265  0.0315  1.0396
   42MOL   H62035142   0.294   6.033   0.862 -1.0357  0.2245  0.1593
   42MOL   H62135143   0.427   6.260   0.893 -0.3900  0.2815 -0.7669
   42MOL   H62235144   0.277   6.341   0.892  1.3941  0.4687  0.0070
   42MOL   H62335145   0.214   6.239   1.116 -0.2951  1.7528  0.7341
   42MOL   H62435146   0.360   6.333   1.109  0.1171 -0.0257  0.3621
   42MOL   H62535147   0.393   6.028   1.083  1.7319 -2.2734  2.7321
   42MOL   H62635148   0.351   6.101   1.237 -0.6551  3.4792 -0.0531
   42MOL   H62735149   0.561   6.231   1.245 -0.3456  0.6272 -0.3859
   42MOL   H62835150   0.576   6.059   1.233 -0.4501 -0.3642 -1.1032
   42MOL   H62935151   0.631   6.071   0.988 -3.4510  0.4017  0.6794
   42MOL   H63035152   0.754   6.137   1.091  2.2070 -0.3666 -3.7714
   42MOL   H63135153   0.649   6.241   0.999  3.3161  1.3675  1.5277
   42MOL   C63235154   0.120   5.765   0.052 -0.4351 -0.1677  0.3027
   42MOL   C63335155   7.679   5.761   0.130 -0.7294  0.0568 -0.0355
   42MOL   C63435156   7.566   5.820   0.040 -0.0825  0.0693 -0.2539
   42MOL   C63535157   7.569   5.974   0.034 -0.4325 -0.0655  0.0257
   42MOL   C63635158   7.508   6.024   7.599 -0.2983 -0.0855  0.9337
   42MOL   C63735159   7.605   6.030   7.484  0.1933 -0.1989 -0.2908
   42MOL   C63835160   7.686   6.162   7.489 -0.3182 -0.2813  0.1004
   42MOL   C63935161   0.106   6.173   7.385 -0.2572 -0.1620 -0.5869
   42MOL   C64035162   0.059   6.164   7.240  0.5971 -0.2496 -0.2457
   42MOL   C64135163   0.167   6.220   7.141 -0.1930  0.0009 -0.0077
   42MOL   C64235164   0.274   6.118   7.116 -0.0440 -0.3292 -0.1081
   42MOL   C64335165   0.381   6.161   7.021  0.5401  0.0806  0.1345
   42MOL   C64435166   0.520   6.103   7.064 -0.3391 -0.0804 -0.4344
   42MOL   C64535167   0.525   5.957   7.036  0.1186  0.0147 -0.6165
   42MOL   H64635168   0.110   5.699   7.661  4.3117 -0.2380 -0.3528
   42MOL   H64735169   0.131   5.865   0.011 -1.4961  0.0208  0.4673
   42MOL   H64835170   7.692   5.826   0.217  0.4303 -0.3881  0.1236
   42MOL   H64935171   7.578   5.784   7.634  0.4054  0.8777 -0.4872
   42MOL   H65035172   7.467   5.788   0.073 -0.2916 -0.7473 -1.6455
   42MOL   H65135173   7.668   6.015   0.055  0.3787 -1.4907 -0.8948
   42MOL   H65235174   7.507   6.018   0.111  1.8000  1.9630  0.7471
   42MOL   H65335175   7.458   6.119   7.618  0.2501  0.2846  0.5648
   42MOL   H65435176   7.428   5.952   7.581 -0.4255 -0.0634  1.3997
   42MOL   H65535177   7.669   5.942   7.496 -0.4927 -0.4996  1.3463
   42MOL   H65635178   7.548   6.034   7.391 -0.7326  2.1203  0.3454
   42MOL   H65735179   7.624   6.251   7.497 -0.3905 -0.1753 -1.3852
   42MOL   H65835180   0.037   6.151   7.587 -0.4280 -0.6684  0.1090
   42MOL   H65935181   0.173   6.092   7.411 -2.2738 -0.7618  2.9957
   42MOL   H66035182   0.153   6.271   7.396 -0.4877 -0.3114  1.9664
   42MOL   H66135183   7.671   6.230   7.222 -1.2807 -2.5895 -0.3774
   42MOL   H66235184   0.027   6.063   7.212  0.0639 -0.2603  0.3896
   42MOL   H66335185   0.118   6.229   7.044  1.7052 -0.9942 -1.0832
   42MOL   H66435186   0.211   6.317   7.164  0.9138  0.3713 -3.4605
   42MOL   H66535187   0.318   6.089   7.211 -2.9228  1.4027  1.8038
   42MOL   H66635188   0.228   6.023   7.088 -0.7562 -0.0368  0.0686
   42MOL   H66735189   0.403   6.267   7.019  0.6796  0.0138 -2.5867
   42MOL   H66835190   0.365   6.120   6.922 -0.8535  1.2045 -0.1197
   42MOL   H66935191   0.538   6.109   7.171  0.2570 -1.0002 -0.4721
   42MOL   H67035192   0.603   6.157   7.018 -0.7926  0.7221 -0.3177
   42MOL   H67135193   0.615   5.904   7.067  1.0120  2.1200  0.4316
   42MOL   H67235194   0.446   5.900   7.085  0.8508 -2.2895 -2.0397
   42MOL   H67335195   0.518   5.927   6.931 -1.6670 -1.5583 -0.0879
   42MOL   C67435196   7.629   5.623   0.175 -0.5774 -0.0062 -0.3758
   42MOL   C67535197   7.526   5.635   0.290 -0.0298  0.3874  0.3103
   42MOL   C67635198   7.425   5.523   0.278  0.4114  0.0592 -0.4382
   42MOL   C67735199   7.317   5.542   0.166 -0.0704 -0.3372 -0.2145
   42MOL   C67835200   7.237   5.414   0.130  0.4034  0.1776 -0.2094
   42MOL   C67935201   7.152   5.338   0.245  0.0268 -0.2423  0.3814
   42MOL   C68035202   7.029   5.427   0.299 -0.0548 -0.9241 -0.0516
   42MOL   C68135203   6.937   5.351   0.389  0.1531 -0.5360  0.4105
   42MOL   C68235204   6.805   5.431   0.420  0.4774 -0.0531  0.3639
   42MOL   C68335205   6.706   5.345   0.496  0.1408  0.5565 -0.8979
   42MOL   C68435206   6.746   5.319   0.640  0.5432  0.2100  0.4294
   42MOL   C68535207   6.642   5.225   0.712  0.2910 -0.0745 -0.1906
   42MOL   C68635208   6.679   5.079   0.690 -0.6877 -0.0341 -0.0167
   42MOL   C68735209   6.610   4.980   0.787  0.2078  0.3578 -0.3493
   42MOL   H68835210   0.012   5.559   0.215  0.1009  0.1922 -1.3761
   42MOL   H68935211   7.596   5.564   0.090 -0.8915 -0.6215  0.1711
   42MOL   H69035212   7.474   5.730   0.278 -0.5001  0.2949  1.5317
   42MOL   H69135213   7.464   5.421   0.276 -1.1461 -0.5345 -1.1847
   42MOL   H69235214   7.371   5.527   0.372  2.4435  0.1508  0.7359
   42MOL   H69335215   7.251   5.619   0.204 -1.2651 -1.5387  0.1774
   42MOL   H69435216   7.353   5.576   0.069 -0.0061  1.1525  0.3201
   42MOL   H69535217   7.158   5.449   0.063 -0.7578  1.7606  1.9443
   42MOL   H69635218   7.292   5.337   0.075 -0.0400  0.0948 -0.5401
   42MOL   H69735219   7.109   5.245   0.208  0.6105  0.0511 -1.0781
   42MOL   H69835220   7.223   5.314   0.324  0.7703 -0.3651 -0.3127
   42MOL   H69935221   7.060   5.522   0.343 -1.3165 -1.3111  1.7144
   42MOL   H70035222   6.974   5.463   0.212  0.8573  1.1152  0.1848
   42MOL   H70135223   6.910   5.258   0.340  0.0505 -0.0511 -0.4534
   42MOL   H70235224   6.986   5.318   0.481 -0.0839 -0.7998  0.4419
   42MOL   H70335225   6.823   5.528   0.466 -0.1912 -0.0905  0.6998
   42MOL   H70435226   6.752   5.464   0.331  1.8665  1.2953  0.0210
   42MOL   H70535227   6.687   5.254   0.439 -1.0650  1.8993 -2.6777
   42MOL   H70635228   6.610   5.396   0.502 -0.1962 -0.2221  0.5209
   42MOL   H70735229   6.743   5.413   0.696 -1.7471 -0.3092  1.2421
   42MOL   H70835230   6.848   5.281   0.641  0.5816  0.3105  0.9039
   42MOL   H70935231   6.540   5.253   0.688 -0.2270 -2.4022 -0.8141
   42MOL   H71035232   6.658   5.251   0.817  3.0187  0.0941 -0.5982
   42MOL   H71135233   6.655   5.058   0.586 -2.6758  2.0256 -0.0140
   42MOL   H71235234   6.786   5.076   0.710 -1.2030  2.6743  3.7299
   42MOL   H71335235   6.646   4.990   0.889  0.8583 -2.4384 -0.2750
   42MOL   H71435236   6.502   4.990   0.796  0.5826  2.2239  2.3589
   42MOL   H71535237   6.639   4.876   0.770  1.5956  0.6543  0.1497
   42MOL   C71635238   7.594   5.636   0.428  0.3894  0.0992  0.2283
   42MOL   C71735239   7.525   5.721   0.537 -0.0474 -0.5060  0.3238
   42MOL   C71835240   7.603   5.696   0.670 -0.0888  0.2136 -0.4534
   42MOL   C71935241   7.549   5.754   0.798  0.1243 -0.2137 -0.0016
   42MOL   C72035242   7.638   5.706   0.919 -0.2756 -0.1424  0.0305
   42MOL   C72135243   7.585   5.746   1.052 -0.2732 -0.0140 -0.1990
   42MOL   C72235244   7.589   5.899   1.083  0.5757 -0.1297  0.5096
   42MOL   C72335245   7.515   5.931   1.213  0.1111  0.3583 -0.3050
   42MOL   C72435246   7.514   6.087   1.229  0.2810  0.0078 -0.0175
   42MOL   C72535247   7.463   6.113   1.372  0.7133 -0.0821 -0.7259
   42MOL   C72635248   7.453   6.270   1.405  0.0654  0.6527  0.5007
   42MOL   C72735249   7.312   6.329   1.392  0.8524  0.1076  0.2776
   42MOL   C72835250   7.310   6.463   1.470  0.1380  0.4923 -0.6946
   42MOL   C72935251   7.392   6.569   1.406 -1.2874  0.0600 -0.4572
   42MOL   H73035252   7.594   5.528   0.445  3.7032  0.3075  2.0982
   42MOL   H73135253   0.003   5.669   0.430  0.6402 -0.6080 -0.8462
   42MOL   H73235254   7.424   5.681   0.543 -0.3443  0.0221 -1.0275
   42MOL   H73335255   0.012   5.728   0.659 -0.3425  0.2527 -2.9485
   42MOL   H73435256   7.612   5.588   0.673  1.6303  0.3241 -0.9399
   42MOL   H73535257   7.542   5.863   0.793 -1.7765 -0.3898 -1.5488
   42MOL   H73635258   7.441   5.738   0.802 -0.3545  2.2838 -2.0574
   42MOL   H73735259   7.647   5.597   0.914  1.6567 -0.0552  1.1849
   42MOL   H73835260   0.044   5.743   0.904 -0.5342  0.6910  0.3235
   42MOL   H73935261   7.480   5.716   1.048 -0.4077  0.5408 -0.8408
   42MOL   H74035262   7.634   5.705   1.140  0.2559  0.4207 -0.2925
   42MOL   H74135263   7.692   5.929   1.098  0.3655 -0.1524  2.0972
   42MOL   H74235264   7.541   5.954   1.001  2.9107 -1.1217 -1.5824
   42MOL   H74335265   7.562   5.881   1.298 -0.7443  0.9818  0.5480
   42MOL   H74435266   7.418   5.883   1.225  0.2205  0.6056  1.6859
   42MOL   H74535267   7.613   6.131   1.216  0.3422  0.3083  1.4257
   42MOL   H74635268   7.448   6.127   1.152 -0.2209 -0.6920  0.0498
   42MOL   H74735269   7.373   6.054   1.386 -0.3618  1.6500 -0.2262
   42MOL   H74835270   7.537   6.071   1.440  0.8819 -1.0368 -1.4939
   42MOL   H74935271   7.499   6.291   1.501 -0.4133  2.1705  0.4067
   42MOL   H75035272   7.516   6.329   1.338 -0.4893  0.2510 -0.4002
   42MOL   H75135273   7.278   6.345   1.290 -1.2420  0.1739  0.9575
   42MOL   H75235274   7.244   6.262   1.444 -0.0735  1.5703  0.9885
   42MOL   H75335275   7.360   6.452   1.566 -0.8984 -2.6921 -0.4585
   42MOL   H75435276   7.211   6.497   1.499 -0.5914 -2.5368  0.5302
   42MOL   H75535277   7.362   6.668   1.441 -0.7634 -0.3344  1.1438
   42MOL   H75635278   7.366   6.576   1.300 -0.0146  1.3573 -0.7081
   42MOL   H75735279   7.500   6.554   1.412 -1.2901  0.2317  0.0620
   42MOL   C75835280   7.540   5.871   0.501  0.0570 -0.2814 -0.2560
   42MOL   C75935281   7.415   5.959   0.516 -0.2497 -0.9174  0.4763
   42MOL   C76035282   7.448   6.111   0.526  0.5336 -0.0890 -0.1110
   42MOL   C76135283   7.487   6.159   0.667 -0.4243  0.2463 -0.4874
   42MOL   C76235284   7.481   6.307   0.687 -0.4260 -0.4316 -0.6803
   42MOL   C76335285   7.556   6.361   0.815 -0.7499  0.2950 -0.1393
   42MOL   C76435286   7.563   6.513   0.822  0.4906  0.0624 -0.5643
   42MOL   C76535287   7.656   6.585   0.723  0.7136 -0.0279  0.3977
   42MOL   C76635288   0.107   6.529   0.734  0.1759 -0.3098  0.8816
   42MOL   C76735289   0.185   6.606   0.628  0.2928  0.3281  0.4836
   42MOL   C76835290   0.343   6.574   0.626 -0.2831 -0.0323 -0.0461
   42MOL   C76935291   0.404   6.651   0.505 -0.1224 -0.3486 -0.1971
   42MOL   C77035292   0.549   6.620   0.470  0.0599  0.3418 -0.0617
   42MOL   C77135293   0.605   6.698   0.350  0.1013  0.5960  0.4181
   42MOL   H77235294   7.617   5.920   0.560 -0.7171 -1.6952  2.0053
   42MOL   H77335295   7.587   5.882   0.403  2.2468 -0.3236  0.7701
   42MOL   H77435296   7.366   5.932   0.610 -0.5141 -0.7231  0.3958
   42MOL   H77535297   7.529   6.131   0.457  1.2799 -1.2154  0.4157
   42MOL   H77635298   7.358   6.169   0.506  1.0198  0.3385 -1.0634
   42MOL   H77735299   7.432   6.109   0.747 -1.6795  0.2550 -1.3213
   42MOL   H77835300   7.591   6.133   0.683 -0.5170  0.4504  0.4816
   42MOL   H77935301   7.378   6.342   0.688 -0.3526 -0.2172 -0.6799
   42MOL   H78035302   7.537   6.349   0.604  0.3301 -0.0354  0.0164
   42MOL   H78135303   7.654   6.315   0.830 -1.6894 -1.9872 -0.6765
   42MOL   H78235304   7.498   6.325   0.899  0.4126 -2.6935 -0.5224
   42MOL   H78335305   7.461   6.553   0.815  0.4124 -0.3619 -1.9020
   42MOL   H78435306   7.595   6.544   0.922  0.7188 -0.8720 -0.3389
   42MOL   H78535307   7.650   6.692   0.738  1.4943 -0.0716  1.1271
   42MOL   H78635308   7.624   6.556   0.623 -3.3010 -0.6447  1.7891
   42MOL   H78735309   0.115   6.423   0.710 -2.9813 -0.9230  2.3147
   42MOL   H78835310   0.142   6.552   0.834 -0.9367  2.1126  0.7539
   42MOL   H78935311   0.179   6.708   0.666  0.3737  0.3982  0.3079
   42MOL   H79035312   0.139   6.592   0.530 -1.3621 -2.7444  1.6100
   42MOL   H79135313   0.385   6.605   0.722 -1.4642  1.6732 -0.0662
   42MOL   H79235314   0.362   6.467   0.617 -3.3200 -0.5848 -0.1878
   42MOL   H79335315   0.341   6.629   0.418  0.7563 -1.7330 -0.4971
   42MOL   H79435316   0.399   6.759   0.525  3.2084 -0.1627 -0.1165
   42MOL   H79535317   0.604   6.666   0.552 -2.9809  0.3281  2.0610
   42MOL   H79635318   0.586   6.519   0.455  0.1922  0.5521 -1.1720
   42MOL   H79735319   0.564   6.660   0.256  2.1712  1.6205 -0.9505
   42MOL   H79835320   0.580   6.804   0.354 -3.9014 -0.2039 -1.2346
   42MOL   H79935321   0.714   6.690   0.347  0.2923  2.2099  2.3034
   42MOL   C80035322   7.311   5.925   0.404  0.4298 -0.0348 -0.4200
   42MOL   C80135323   7.171   5.960   0.456  0.0699  0.4360  0.3389
   42MOL   C80235324   7.077   5.909   0.338 -0.0920 -0.1425  0.4736
   42MOL   C80335325   6.927   5.924   0.368  0.0638  0.1801  0.6049
   42MOL   C80435326   6.839   5.837   0.267  0.0365  0.0999  0.0014
   42MOL   C80535327   6.694   5.864   0.287  0.8198 -0.1686  0.0587
   42MOL   C80635328   6.599   5.760   0.242 -0.1520 -0.4166 -0.0268
   42MOL   C80735329   6.453   5.797   0.262 -0.5485 -0.0146 -0.1391
   42MOL   C80835330   6.362   5.701   0.180 -0.3196  0.1607 -0.3598
   42MOL   C80935331   6.221   5.716   0.210  0.7480 -0.1441  0.0314
   42MOL   C81035332   6.140   5.630   0.112 -0.4813  0.7404  0.1310
   42MOL   C81135333   5.990   5.667   0.099 -0.0723  0.5230 -0.3758
   42MOL   C81235334   5.904   5.577   0.007  0.1874  0.2488 -0.1728
   42MOL   C81335335   5.778   5.649   7.667 -0.4541 -0.2507 -0.0027
   42MOL   H81435336   7.318   5.817   0.393  0.4851  0.0620 -1.3184
   42MOL   H81535337   7.326   5.955   0.301  1.9120 -1.4355 -0.6322
   42MOL   H81635338   7.161   6.065   0.485 -0.4574 -0.1442  2.3055
   42MOL   H81735339   7.095   5.802   0.329  1.2319  0.1714 -0.6292
   42MOL   H81835340   7.092   5.953   0.240  0.8675 -2.1330 -0.2862
   42MOL   H81935341   6.892   6.027   0.361 -1.3383 -0.3439 -0.4914
   42MOL   H82035342   6.906   5.880   0.465  0.9953 -0.0086  0.7216
   42MOL   H82135343   6.853   5.878   0.167 -0.6734  0.2376 -0.0433
   42MOL   H82235344   6.871   5.733   0.254 -1.7050 -0.3362 -0.8754
   42MOL   H82335345   6.670   5.962   0.247  0.2825 -0.6840 -0.8934
   42MOL   H82435346   6.676   5.856   0.394 -0.3339 -0.5501 -0.1517
   42MOL   H82535347   6.617   5.761   0.135 -1.8502 -1.9541 -0.3676
   42MOL   H82635348   6.624   5.664   0.288 -2.3047 -0.9671  0.0871
   42MOL   H82735349   6.427   5.790   0.368 -2.3579  3.2154 -0.3196
   42MOL   H82835350   6.431   5.898   0.229  0.8571  1.0126  1.9502
   42MOL   H82935351   6.383   5.725   0.076 -0.0559 -0.3070 -0.4137
   42MOL   H83035352   6.403   5.600   0.184 -0.5208  0.1474  2.9240
   42MOL   H83135353   6.188   5.819   0.193 -0.1979 -0.1784  1.4998
   42MOL   H83235354   6.195   5.698   0.315 -1.8902 -2.2120 -0.9300
   42MOL   H83335355   6.189   5.642   0.016 -0.1526  0.8636  0.3141
   42MOL   H83435356   6.148   5.524   0.137  1.4863  1.1870  1.5242
   42MOL   H83535357   5.975   5.770   0.068 -0.2578 -0.0509 -2.2721
   42MOL   H83635358   5.952   5.659   0.201 -2.1211 -1.3164 -1.2232
   42MOL   H83735359   5.952   5.544   7.610  0.0667  0.4867 -0.3211
   42MOL   H83835360   5.887   5.482   0.058  0.7481  0.6690  0.8153
   42MOL   H83935361   5.739   5.704   0.057  1.7015 -0.4842  1.1671
   42MOL   H84035362   5.811   5.728   7.599  1.7755  0.6095  2.0077
   42MOL   H84135363   5.707   5.585   7.614 -1.4057  0.1365  0.7919
   42MOL   H84235364   7.149   5.904   0.547  0.2022 -0.8999 -0.4480
   43MOL     C135365   0.780   2.096   3.145 -0.0544  0.4464 -0.1564
   43MOL     C235366   0.824   2.228   3.218  0.2805 -0.1374 -0.2398
   43MOL     C335367   0.970   2.229   3.275  0.2065 -0.2534 -0.2321
   43MOL     C435368   1.082   2.236   3.172  0.0398  0.6583  0.1234
   43MOL     C535369   1.212   2.272   3.243  0.0202  0.5879  0.3040
   43MOL     C635370   1.325   2.314   3.148  0.2653 -0.1687 -0.1256
   43MOL     C735371   1.465   2.326   3.212  0.4098 -0.3151  0.0655
   43MOL     C835372   1.481   2.435   3.308  0.2094 -0.1053 -0.0808
   43MOL     C935373   1.626   2.462   3.356  1.5199 -0.2615 -0.5618
   43MOL    C1035374   1.642   2.587   3.451 -0.3239 -0.6386 -0.6264
   43MOL    C1135375   1.783   2.599   3.512  0.1634  0.1583 -0.1514
   43MOL    C1235376   1.808   2.741   3.561  0.7089 -1.0569  0.5053
   43MOL    C1335377   1.948   2.746   3.623  0.2094 -0.1363  0.8441
   43MOL    C1435378   1.998   2.886   3.652  0.2169  0.4812  0.0296
   43MOL    H1535379   0.671   2.092   3.133 -0.2175  0.9546  1.0517
   43MOL    H1635380   0.814   2.004   3.192 -0.5933 -0.2146 -1.0333
   43MOL    H1735381   0.763   2.232   3.308 -0.5895  1.7783 -0.8625
   43MOL    H1835382   0.965   2.321   3.334  0.7619  0.7552 -1.7219
   43MOL    H1935383   0.980   2.142   3.340 -2.0400 -1.2790 -1.2227
   43MOL    H2035384   1.064   2.319   3.104  2.5088  0.8930 -0.2759
   43MOL    H2135385   1.090   2.140   3.120  0.2329  1.3184 -1.0844
   43MOL    H2235386   1.250   2.191   3.305 -1.3576 -0.0541  0.3238
   43MOL    H2335387   1.188   2.353   3.313 -0.3019  1.3373 -0.6558
   43MOL    H2435388   1.299   2.410   3.103 -0.4666 -1.5439 -2.7548
   43MOL    H2535389   1.331   2.240   3.067  0.0196  1.6184 -1.8137
   43MOL    H2635390   1.479   2.225   3.251 -1.4516  0.0225  1.7079
   43MOL    H2735391   1.543   2.332   3.136 -0.4020 -2.3409 -0.9734
   43MOL    H2835392   1.411   2.422   3.391 -0.6514 -0.4001 -0.8529
   43MOL    H2935393   1.460   2.532   3.262  0.2115  0.5397  1.2301
   43MOL    H3035394   1.653   2.368   3.405 -1.3337 -0.9383 -0.2100
   43MOL    H3135395   1.694   2.461   3.271  0.2099 -0.4173 -1.6243
   43MOL    H3235396   1.632   2.679   3.393  0.5843 -1.7220 -2.5474
   43MOL    H3335397   1.564   2.592   3.526 -0.4576  0.7323 -0.8391
   43MOL    H3435398   1.776   2.544   3.606 -2.5631  1.5942  0.5150
   43MOL    H3535399   1.866   2.555   3.456  0.4745  1.0357 -0.3982
   43MOL    H3635400   1.728   2.777   3.625  2.2110  1.1659  1.1949
   43MOL    H3735401   1.810   2.809   3.476  1.7292 -1.5073  0.1620
   43MOL    H3835402   1.949   2.689   3.715  1.5656  0.2290  1.0654
   43MOL    H3935403   2.010   2.684   3.557 -2.0216  0.9613 -2.4354
   43MOL    H4035404   2.098   2.876   3.693  0.4422  2.7058  0.0429
   43MOL    H4135405   2.005   2.941   3.558  2.7507 -3.5389 -2.2687
   43MOL    H4235406   1.937   2.951   3.715  1.0982  1.6977 -0.3680
   43MOL    H4335407   0.835   2.091   3.051 -2.0243 -1.1057 -1.2694
   43MOL    C4435408   0.796   2.353   3.135 -0.2749  0.4654 -0.1600
   43MOL    C4535409   0.646   2.400   3.126 -0.3536  0.2357 -0.2403
   43MOL    C4635410   0.635   2.496   3.001 -0.3221  0.0356 -0.5926
   43MOL    C4735411   0.613   2.438   2.867  0.1375  0.2732  0.7452
   43MOL    C4835412   0.621   2.537   2.759  0.1806 -0.2661  0.1469
   43MOL    C4935413   0.596   2.465   2.631  0.2279  0.5511  1.3180
   43MOL    C5035414   0.609   2.559   2.508 -0.2783 -0.7018 -0.1696
   43MOL    C5135415   0.743   2.589   2.444  0.0735 -0.1975  0.0307
   43MOL    C5235416   0.719   2.676   2.319 -0.2711  0.0426  0.3162
   43MOL    C5335417   0.855   2.714   2.267  0.7365 -0.1337 -0.3450
   43MOL    C5435418   0.854   2.807   2.152 -0.1312 -0.5842  0.1877
   43MOL    C5535419   0.996   2.835   2.101 -0.4171  0.1754 -0.0108
   43MOL    C5635420   1.060   2.954   2.178 -0.1910  0.2844  0.1981
   43MOL    C5735421   1.210   2.970   2.134 -0.0190 -0.1783 -0.2602
   43MOL    H5835422   0.854   2.435   3.176  2.1637 -0.6052 -1.3677
   43MOL    H5935423   0.833   2.334   3.034 -1.1908  0.6194 -0.5301
   43MOL    H6035424   0.587   2.311   3.109 -0.2749 -0.1456  1.4201
   43MOL    H6135425   0.544   2.553   3.022 -0.7358 -1.4386  1.9095
   43MOL    H6235426   0.714   2.570   3.008 -1.1537  0.9587 -0.9043
   43MOL    H6335427   0.515   2.391   2.871  0.3467 -0.2084  0.3928
   43MOL    H6435428   0.679   2.355   2.840 -2.7566 -2.1902  1.0522
   43MOL    H6535429   0.719   2.585   2.763 -0.1937  0.3847  4.3397
   43MOL    H6635430   0.548   2.616   2.782  0.4570  0.1485 -0.3847
   43MOL    H6735431   0.659   2.378   2.613 -2.5953 -1.1612 -0.6699
   43MOL    H6835432   0.494   2.427   2.634  0.0276  1.0825  1.3640
   43MOL    H6935433   0.554   2.510   2.428  0.1003  1.1996 -1.5993
   43MOL    H7035434   0.543   2.640   2.536 -0.2336 -0.0867 -1.8100
   43MOL    H7135435   0.797   2.497   2.421  0.2966 -0.0516 -0.0269
   43MOL    H7235436   0.810   2.643   2.511 -0.2560  1.4820 -0.9476
   43MOL    H7335437   0.653   2.634   2.243  0.1476 -0.4643  0.2311
   43MOL    H7435438   0.675   2.764   2.366  0.1641  0.3583  0.1409
   43MOL    H7535439   0.921   2.632   2.240  0.8932  0.1769 -0.9209
   43MOL    H7635440   0.908   2.767   2.347 -1.4083  0.3516  0.7881
   43MOL    H7735441   0.801   2.900   2.171  0.4756 -0.3204  0.5846
   43MOL    H7835442   0.802   2.755   2.071 -0.4041 -2.7369  1.7062
   43MOL    H7935443   1.059   2.750   2.123 -1.2213 -0.4429 -0.0666
   43MOL    H8035444   1.001   2.853   1.993  2.3050  0.8343  0.1902
   43MOL    H8135445   1.057   2.954   2.287 -0.7327 -0.7718  0.1894
   43MOL    H8235446   1.005   3.043   2.147 -0.0086 -1.2016 -4.7227
   43MOL    H8335447   1.211   2.949   2.027 -2.8955  0.4567 -0.4382
   43MOL    H8435448   1.281   2.893   2.165  0.4670  0.5832  0.5221
   43MOL    H8535449   1.264   3.061   2.160 -2.0902  1.0727 -0.2484
   43MOL    C8635450   0.590   2.460   3.260  0.9143  0.0488 -0.0269
   43MOL    C8735451   0.439   2.441   3.276 -0.7914 -0.6062  0.0719
   43MOL    C8835452   0.380   2.547   3.368 -0.5284 -0.4943  0.8647
   43MOL    C8935453   0.374   2.687   3.294 -0.1703 -0.2119  0.1787
   43MOL    C9035454   0.314   2.799   3.395 -0.2209  0.6466 -0.1915
   43MOL    C9135455   0.259   2.914   3.312  0.6433  0.2997  0.0609
   43MOL    C9235456   0.372   3.013   3.277  0.6403 -0.0286  0.3451
   43MOL    C9335457   0.432   3.089   3.402  0.1749  0.2089 -0.2728
   43MOL    C9435458   0.549   3.189   3.367  0.2504 -0.0707 -0.3848
   43MOL    C9535459   0.645   3.238   3.477  0.1956 -0.0373 -0.5605
   43MOL    C9635460   0.746   3.339   3.438  0.7156 -0.8598  0.1711
   43MOL    C9735461   0.686   3.461   3.367  0.0577 -0.1152  0.3241
   43MOL    C9835462   0.782   3.576   3.327 -0.2592  0.0783 -0.4170
   43MOL    C9935463   0.702   3.682   3.248  0.9429 -0.2851  0.0210
   43MOL   H10035464   0.650   2.429   3.346 -0.5755 -1.1345  0.6126
   43MOL   H10135465   0.629   2.562   3.256  0.4200  0.1790 -1.6932
   43MOL   H10235466   0.393   2.448   3.177  0.3600  0.4170 -0.3986
   43MOL   H10335467   0.278   2.516   3.392 -0.9914 -1.5086 -2.2170
   43MOL   H10435468   0.438   2.554   3.460  0.8526  0.0433 -0.0363
   43MOL   H10535469   0.468   2.724   3.254 -0.1025  0.3134  0.8054
   43MOL   H10635470   0.318   2.678   3.201 -1.9843  0.5049  1.1635
   43MOL   H10735471   0.396   2.819   3.464  0.5985 -0.1717 -0.9133
   43MOL   H10835472   0.240   2.760   3.466  0.7356  1.0754  1.0626
   43MOL   H10935473   0.171   2.955   3.363 -0.9153  0.1926 -2.3966
   43MOL   H11035474   0.217   2.865   3.224 -0.7414 -0.9238  1.3744
   43MOL   H11135475   0.461   2.965   3.236  0.3449 -1.9510  1.9122
   43MOL   H11235476   0.346   3.090   3.204  1.6648  0.3858  0.4026
   43MOL   H11335477   0.461   3.017   3.479 -1.3388  0.0136  0.1321
   43MOL   H11435478   0.354   3.144   3.454 -1.1342 -1.6472 -0.2055
   43MOL   H11535479   0.621   3.136   3.305 -1.1200 -3.8347  1.0910
   43MOL   H11635480   0.509   3.273   3.311  2.0729  0.5582 -0.7863
   43MOL   H11735481   0.683   3.150   3.530 -1.3773 -1.1291 -1.1959
   43MOL   H11835482   0.581   3.280   3.554  1.8160 -0.2143  0.9083
   43MOL   H11935483   0.802   3.371   3.525  2.5661 -0.7153 -1.0361
   43MOL   H12035484   0.818   3.299   3.366  1.4113 -1.5704  1.2371
   43MOL   H12135485   0.645   3.422   3.274  2.1564  0.4836 -0.8763
   43MOL   H12235486   0.608   3.503   3.431 -1.1325  0.1760 -1.2961
   43MOL   H12335487   0.855   3.526   3.262 -1.1885 -2.3578  0.3442
   43MOL   H12435488   0.827   3.631   3.409 -0.1869  0.4192 -0.6837
   43MOL   H12535489   0.607   3.705   3.297 -0.1252  3.4894 -3.5780
   43MOL   H12635490   0.750   3.775   3.218 -0.9228  0.6306 -0.2166
   43MOL   H12735491   0.673   3.634   3.155 -1.3806  1.8718 -0.4131
   43MOL   C12835492   0.403   2.300   3.326  0.1391 -0.2346 -0.1815
   43MOL   C12935493   0.316   2.210   3.227 -0.1790 -0.2084  0.7368
   43MOL   C13035494   0.358   2.062   3.225 -0.1401  0.1792  0.4359
   43MOL   C13135495   0.348   1.996   3.356 -0.2549 -0.5376 -0.0721
   43MOL   C13235496   0.376   1.843   3.341  0.0394 -0.7493 -0.0522
   43MOL   C13335497   0.328   1.757   3.461  0.1651  0.5492  0.2809
   43MOL   C13435498   0.404   1.781   3.593 -0.8439  0.5896 -0.7681
   43MOL   C13535499   0.339   1.713   3.713 -0.2967  0.7422  0.3528
   43MOL   C13635500   0.418   1.744   3.836  0.5034  0.1418 -0.1184
   43MOL   C13735501   0.349   1.682   3.963  0.1578  0.2354  0.2372
   43MOL   C13835502   0.409   1.741   4.093 -0.0627  0.0491  0.7473
   43MOL   C13935503   0.328   1.708   4.224 -0.1399  0.5203  0.1933
   43MOL   C14035504   0.400   1.742   4.355 -0.1576 -0.6419  0.8813
   43MOL   C14135505   0.457   1.883   4.363 -0.2125 -0.8318  0.2761
   43MOL   H14235506   0.491   2.241   3.351 -0.0181  0.1807  1.3829
   43MOL   H14335507   0.363   2.307   3.427  3.1015 -1.7887  1.1792
   43MOL   H14435508   0.339   2.234   3.123  0.8966  3.0778  1.6933
   43MOL   H14535509   0.300   2.018   3.144 -0.1726  0.5095  0.2788
   43MOL   H14635510   0.463   2.047   3.198 -0.3875  0.5366 -0.7632
   43MOL   H14735511   0.416   2.045   3.426  2.5296 -1.0260 -2.3274
   43MOL   H14835512   0.246   2.010   3.393  0.1975 -1.5734  1.6281
   43MOL   H14935513   0.321   1.805   3.255 -0.9514  0.8559 -0.1545
   43MOL   H15035514   0.482   1.821   3.330  0.5530  1.2667  0.6714
   43MOL   H15135515   0.219   1.754   3.470 -0.1166  2.3319 -1.8578
   43MOL   H15235516   0.354   1.656   3.429  1.6154  0.8749  0.4341
   43MOL   H15335517   0.510   1.758   3.586 -0.4071  1.8092  1.3727
   43MOL   H15435518   0.395   1.889   3.604 -0.0664  0.7474 -1.6338
   43MOL   H15535519   0.238   1.754   3.721 -0.0116  0.8924  3.7901
   43MOL   H15635520   0.334   1.607   3.687 -2.2439  0.8933  0.0670
   43MOL   H15735521   0.525   1.726   3.836  0.8155  1.8875  0.6187
   43MOL   H15835522   0.418   1.852   3.849 -1.4772  0.1974 -0.4182
   43MOL   H15935523   0.336   1.574   3.972  1.0159  0.0552 -0.6530
   43MOL   H16035524   0.245   1.714   3.956  0.1761  0.5963  1.6091
   43MOL   H16135525   0.511   1.706   4.111  0.0375 -0.0125  0.0555
   43MOL   H16235526   0.421   1.849   4.087 -2.7789  0.3356 -0.4854
   43MOL   H16335527   0.231   1.758   4.220 -1.1034 -1.4004 -1.2194
   43MOL   H16435528   0.300   1.603   4.223  2.2790 -0.1437 -0.5921
   43MOL   H16535529   0.325   1.733   4.434 -0.7366  2.4568  0.7518
   43MOL   H16635530   0.472   1.668   4.388  2.0937  1.3633  0.6404
   43MOL   H16735531   0.528   1.897   4.282 -1.5184  0.4009 -0.6762
   43MOL   H16835532   0.372   1.951   4.361  1.0998  0.9010  1.6137
   43MOL   H16935533   0.504   1.902   4.460  0.1888 -0.8425  0.0831
   43MOL   C17035534   0.162   2.225   3.239 -0.8436  0.1979 -0.2959
   43MOL   C17135535   0.095   2.352   3.176  0.6359  0.2048  0.0211
   43MOL   C17235536   0.106   2.358   3.022 -0.0110  0.3807  0.1893
   43MOL   C17335537   0.143   2.498   2.965 -0.0220 -0.5120 -0.4624
   43MOL   C17435538   0.213   2.499   2.828  0.1603 -0.0390 -0.4960
   43MOL   C17535539   0.226   2.643   2.775  0.6796 -0.6636 -0.1994
   43MOL   C17635540   0.295   2.731   2.877  0.4490  0.7753 -0.1661
   43MOL   C17735541   0.354   2.853   2.816 -0.4373  0.1400 -0.2763
   43MOL   C17835542   0.452   2.919   2.912  0.2237 -0.2462 -0.6253
   43MOL   C17935543   0.525   3.034   2.838  0.0210  0.0065  0.6327
   43MOL   C18035544   0.618   3.116   2.923 -0.6801 -0.6417  0.8780
   43MOL   C18135545   0.682   3.232   2.850 -0.3232 -0.8650 -0.2578
   43MOL   C18235546   0.747   3.339   2.948 -0.4063  0.0384 -0.4786
   43MOL   C18335547   0.842   3.443   2.873 -0.5686 -0.3615  0.1500
   43MOL   H18435548   0.147   2.211   3.346 -1.1331  0.5358 -0.2925
   43MOL   H18535549   0.117   2.133   3.202  2.0441 -1.7748  0.8843
   43MOL   H18635550   0.144   2.440   3.217  1.2111  0.3037 -0.8450
   43MOL   H18735551   0.186   2.291   2.990  0.2132  0.4808  0.5357
   43MOL   H18835552   0.014   2.315   2.983 -0.7732  2.0560  0.0983
   43MOL   H18935553   0.056   2.564   2.966 -0.6155 -1.2860  0.6180
   43MOL   H19035554   0.213   2.540   3.036  0.6353 -0.0064 -1.4011
   43MOL   H19135555   0.313   2.459   2.841  0.5440  0.8584 -0.6404
   43MOL   H19235556   0.166   2.436   2.752 -0.3161 -0.7419  0.3767
   43MOL   H19335557   0.125   2.674   2.751 -0.2245 -2.4693  1.1216
   43MOL   H19435558   0.283   2.641   2.683  1.6639 -0.4775  0.3973
   43MOL   H19535559   0.361   2.660   2.925 -0.5809  1.1434  1.8280
   43MOL   H19635560   0.226   2.758   2.957  1.2522 -1.8584  1.4767
   43MOL   H19735561   0.275   2.924   2.790  0.7739  1.6351  0.0962
   43MOL   H19835562   0.403   2.837   2.720 -1.7354  0.2336 -0.9731
   43MOL   H19935563   0.529   2.849   2.944 -0.3482 -0.3018  0.6368
   43MOL   H20035564   0.388   2.956   2.992 -0.2432  0.1432 -1.1724
   43MOL   H20135565   0.449   3.098   2.792  0.5443  0.8390  0.9142
   43MOL   H20235566   0.594   2.994   2.764 -1.8854 -0.6058 -0.8712
   43MOL   H20335567   0.682   3.058   2.989 -1.0486  0.0079  1.8231
   43MOL   H20435568   0.552   3.169   2.992 -2.9593  0.8115 -2.2398
   43MOL   H20535569   0.757   3.201   2.778  0.8987  2.3082 -0.4336
   43MOL   H20635570   0.605   3.269   2.783 -0.6638 -5.0665 -2.3025
   43MOL   H20735571   0.665   3.397   2.990  0.9682  0.5116  1.6575
   43MOL   H20835572   0.808   3.294   3.027 -0.5806 -0.4674 -0.6329
   43MOL   H20935573   0.919   3.387   2.819 -1.2565 -1.4291  0.2656
   43MOL   H21035574   0.891   3.512   2.941 -1.7282  0.8425 -0.2370
   43MOL   H21135575   0.792   3.498   2.794  0.9474 -1.5582 -1.7121
   43MOL   C21235576   7.640   2.351   3.221  0.2730 -0.0075 -0.0341
   43MOL   C21335577   7.550   2.471   3.182 -0.2974  0.5451 -0.4283
   43MOL   C21435578   7.409   2.434   3.195 -0.0580 -0.1039 -0.2023
   43MOL   C21535579   7.341   2.428   3.332  0.5308  0.3887  0.1201
   43MOL   C21635580   7.221   2.348   3.321 -0.7349 -0.1025  0.4453
   43MOL   C21735581   7.122   2.342   3.440  0.8214  0.4517 -0.2017
   43MOL   C21835582   7.060   2.479   3.456  0.1993 -0.0897  0.1035
   43MOL   C21935583   6.945   2.464   3.567  0.2875  0.7418 -0.0308
   43MOL   C22035584   6.838   2.579   3.575 -0.1569  0.5348 -0.1136
   43MOL   C22135585   6.755   2.590   3.449 -0.1756  0.1707 -0.0477
   43MOL   C22235586   6.648   2.702   3.456 -0.5898  0.0492 -0.2993
   43MOL   C22335587   6.556   2.712   3.330 -0.6447  0.5202  0.1789
   43MOL   C22435588   6.429   2.799   3.354  0.2966 -0.7642  0.7141
   43MOL   C22535589   6.329   2.808   3.235 -0.2726 -0.3706  0.3729
   43MOL   H22635590   7.635   2.325   3.327  0.0790 -3.5288 -0.8743
   43MOL   H22735591   7.590   2.269   3.170 -1.8686  1.8741 -1.0456
   43MOL   H22835592   7.570   2.485   3.076  3.3977 -2.8199 -0.2911
   43MOL   H22935593   7.355   2.481   3.113  1.0969  0.3739 -0.6931
   43MOL   H23035594   7.399   2.333   3.154  0.7282  0.6459 -2.2947
   43MOL   H23135595   7.313   2.531   3.353 -0.4757  0.3386 -0.9200
   43MOL   H23235596   7.402   2.386   3.412  1.4252 -0.2566 -0.8855
   43MOL   H23335597   7.253   2.249   3.288  1.0907 -0.0037  1.8596
   43MOL   H23435598   7.166   2.386   3.236 -0.1620  0.8942  0.5142
   43MOL   H23535599   7.160   2.308   3.537 -0.4454  0.3657  0.2794
   43MOL   H23635600   7.048   2.269   3.408  1.9657 -0.2248 -1.3415
   43MOL   H23735601   7.132   2.555   3.487  0.6121  0.3701 -1.9104
   43MOL   H23835602   7.017   2.513   3.361 -2.9160  2.8976  2.4378
   43MOL   H23935603   6.884   2.379   3.536  1.2914  0.0174 -0.0881
   43MOL   H24035604   6.984   2.436   3.665 -0.3318  1.0923  0.3152
   43MOL   H24135605   6.883   2.673   3.606  0.8136  0.0492 -0.0094
   43MOL   H24235606   6.760   2.559   3.648  1.3369  0.5669  1.5198
   43MOL   H24335607   6.808   2.602   3.354 -0.0177  0.9105  0.1305
   43MOL   H24435608   6.703   2.496   3.429 -0.4064  0.6188 -1.5965
   43MOL   H24535609   6.702   2.797   3.464 -1.3964  0.2756  3.2085
   43MOL   H24635610   6.594   2.686   3.549 -1.2044  2.0286 -0.2853
   43MOL   H24735611   6.516   2.615   3.301 -2.5652  0.7950  1.7529
   43MOL   H24835612   6.615   2.760   3.252  0.6013 -2.2885 -0.6576
   43MOL   H24935613   6.462   2.901   3.371 -2.1613  0.3898 -1.1764
   43MOL   H25035614   6.388   2.761   3.448 -0.9501  0.4800  0.6962
   43MOL   H25135615   6.264   2.721   3.222 -0.1571 -0.6226  1.4726
   43MOL   H25235616   6.253   2.880   3.263 -1.6765 -1.1848 -1.1904
   43MOL   H25335617   6.380   2.852   3.149 -2.4550  3.2618  0.8647
   43MOL   C25435618   7.589   2.601   3.255  0.4493 -0.1750  0.7262
   43MOL   C25535619   7.522   2.736   3.216 -0.1346  0.2385 -0.0869
   43MOL   C25635620   7.491   2.820   3.343  0.2735 -0.2872  0.2927
   43MOL   C25735621   7.606   2.868   3.418 -0.6844  0.5588 -0.3245
   43MOL   C25835622   7.569   2.912   3.562  0.1909 -1.2815 -0.3010
   43MOL   C25935623   7.678   2.987   3.642 -0.2929 -0.2785 -0.5423
   43MOL   C26035624   7.630   3.019   3.790  0.4628 -0.5374  0.3371
   43MOL   C26135625   0.051   3.063   3.876 -0.2679 -0.1882  0.2033
   43MOL   C26235626   0.004   3.103   4.017 -0.1808  0.0369 -0.0358
   43MOL   C26335627   0.122   3.169   4.105  0.0705  0.4553 -0.1226
   43MOL   C26435628   0.107   3.172   4.260  0.1230  0.0443  0.0775
   43MOL   C26535629   0.230   3.229   4.329  0.0329 -0.3895  0.5792
   43MOL   C26635630   0.203   3.236   4.483 -0.2335  0.7346  0.3745
   43MOL   C26735631   0.256   3.111   4.557 -0.0498 -0.6789  0.3167
   43MOL   H26835632   0.001   2.617   3.259  0.4526 -0.7268  4.1071
   43MOL   H26935633   7.556   2.584   3.357  0.8824 -1.0484  0.7256
   43MOL   H27035634   7.427   2.718   3.167 -0.7797 -0.0511  1.2599
   43MOL   H27135635   7.434   2.754   3.408  1.5459 -0.4228  1.2949
   43MOL   H27235636   7.418   2.898   3.323 -1.0674 -1.2582  1.3654
   43MOL   H27335637   7.641   2.955   3.363 -0.3669  0.2867 -0.5501
   43MOL   H27435638   7.682   2.790   3.418 -1.6160 -0.3650  0.1463
   43MOL   H27535639   7.537   2.828   3.623  0.2575 -1.2880 -0.2755
   43MOL   H27635640   7.493   2.989   3.556 -0.1366 -1.6870 -1.7328
   43MOL   H27735641   0.011   3.072   3.580  0.8117 -0.9476 -0.9846
   43MOL   H27835642   0.067   2.920   3.658 -0.1775 -0.1003 -0.3985
   43MOL   H27935643   7.557   3.101   3.788  1.8749  0.6994 -2.0109
   43MOL   H28035644   7.580   2.935   3.838 -0.1363  0.6331  1.8456
   43MOL   H28135645   0.112   3.141   3.829  1.5661 -2.4346 -1.2373
   43MOL   H28235646   0.120   2.981   3.895 -0.0101  0.2318  1.1088
   43MOL   H28335647   7.610   3.165   4.023 -0.8230 -0.9786  1.4345
   43MOL   H28435648   7.677   3.007   4.064 -1.1586  0.3107  0.0646
   43MOL   H28535649   0.134   3.272   4.074 -0.7623  0.3814 -0.6995
   43MOL   H28635650   0.212   3.133   4.055 -0.2734  1.5932 -1.5782
   43MOL   H28735651   0.091   3.071   4.299 -0.1452  0.8965  2.2159
   43MOL   H28835652   0.020   3.234   4.282 -0.6449 -0.7123 -0.7505
   43MOL   H28935653   0.318   3.168   4.308  0.4807  1.2488 -2.5544
   43MOL   H29035654   0.241   3.332   4.296  0.0733 -0.6276 -0.1600
   43MOL   H29135655   0.259   3.321   4.522  1.9302 -0.5084  0.0844
   43MOL   H29235656   0.105   3.264   4.520  0.8782  1.6687  2.7138
   43MOL   H29335657   0.358   3.081   4.530  0.1828 -1.3286  1.8512
   43MOL   H29435658   0.193   3.023   4.543 -0.8044  0.2551 -2.4761
   43MOL   H29535659   0.261   3.155   4.657  4.4119  1.7305 -0.8456
   43MOL   C29635660   7.608   2.800   3.105 -0.8272 -0.0483 -0.4876
   43MOL   C29735661   7.540   2.924   3.029 -0.2011 -0.4159 -0.5063
   43MOL   C29835662   7.649   3.013   2.963  0.3167  0.4736 -0.0965
   43MOL   C29935663   0.026   3.105   3.059  0.5476  0.2072 -0.7082
   43MOL   C30035664   0.085   3.233   2.990 -0.2843  0.3990 -0.2882
   43MOL   C30135665   0.140   3.332   3.094  0.2854  0.4606 -0.2396
   43MOL   C30235666   0.246   3.424   3.023  0.8928  0.8609 -0.0958
   43MOL   C30335667   0.262   3.546   3.115 -0.1965 -0.8376 -0.3579
   43MOL   C30435668   0.337   3.661   3.046  0.6605  0.6995 -0.0425
   43MOL   C30535669   0.335   3.781   3.146  0.0903 -0.6670  0.0161
   43MOL   C30635670   0.428   3.900   3.117  0.2885  0.2981  0.0112
   43MOL   C30735671   0.384   3.977   2.991  1.1204  0.3650 -0.0598
   43MOL   C30835672   0.500   4.047   2.919  0.6536  0.5029 -0.0142
   43MOL   C30935673   0.586   4.121   3.018  0.3103  0.7319 -0.0312
   43MOL   H31035674   7.639   2.718   3.040  0.7424  0.0796  0.0655
   43MOL   H31135675   0.009   2.835   3.141  0.0402 -0.5125 -2.2940
   43MOL   H31235676   7.487   2.986   3.101  0.7420 -0.1681 -0.0204
   43MOL   H31335677   7.598   3.070   2.885 -0.8205 -1.1740 -0.6094
   43MOL   H31435678   0.024   2.947   2.913 -1.2916 -2.6254  1.5832
   43MOL   H31535679   0.115   3.050   3.093  0.2944  0.4221  0.3062
   43MOL   H31635680   7.653   3.131   3.139  2.0605 -0.3125  0.7956
   43MOL   H31735681   0.170   3.204   2.929 -1.9321 -2.0094 -1.5426
   43MOL   H31835682   0.008   3.284   2.933  0.5204  1.1810 -0.6718
   43MOL   H31935683   0.192   3.278   3.174 -2.6077 -0.6616  0.9516
   43MOL   H32035684   0.058   3.381   3.146  0.4718 -0.2987  0.7954
   43MOL   H32135685   0.338   3.374   2.990  1.1028  2.9859 -3.0156
   43MOL   H32235686   0.198   3.471   2.937  0.8599  1.4474  0.2450
   43MOL   H32335687   0.320   3.529   3.206  0.3892  2.7052 -0.0066
   43MOL   H32435688   0.162   3.577   3.145  0.6734  1.3181  0.3558
   43MOL   H32535689   0.440   3.636   3.021  1.0665 -1.0374  3.1280
   43MOL   H32635690   0.294   3.695   2.951  0.4672  0.1037 -0.1692
   43MOL   H32735691   0.374   3.743   3.240  0.0524  1.1546  0.7978
   43MOL   H32835692   0.235   3.821   3.166  0.2676  0.5245 -1.3569
   43MOL   H32935693   0.529   3.865   3.098 -0.3073  0.0604 -3.0334
   43MOL   H33035694   0.436   3.960   3.208 -0.3287  0.3782  0.0135
   43MOL   H33135695   0.318   4.056   3.027  0.3050 -0.6700  0.7603
   43MOL   H33235696   0.324   3.909   2.931 -0.1048  0.9494  0.4973
   43MOL   H33335697   0.451   4.115   2.849  0.9163 -0.7300 -1.4172
   43MOL   H33435698   0.558   3.977   2.859 -1.4623  1.0243 -2.7407
   43MOL   H33535699   0.518   4.178   3.082 -0.0518 -0.6145  0.8148
   43MOL   H33635700   0.638   4.056   3.088 -0.6434  0.1326  0.1345
   43MOL   H33735701   0.665   4.183   2.977  1.5315 -1.4542 -1.0520
   43MOL   C33835702   7.430   2.880   2.932 -0.2200 -0.2598  0.3053
   43MOL   C33935703   7.318   2.980   2.908 -0.5441  0.8788 -0.2061
   43MOL   C34035704   7.236   2.938   2.778 -0.6605 -0.4545 -0.6485
   43MOL   C34135705   7.313   2.961   2.642  0.2462 -0.5029  0.0333
   43MOL   C34235706   7.217   2.979   2.529 -0.2528  0.1436  0.3515
   43MOL   C34335707   7.287   2.965   2.396 -0.1255 -0.5827  0.4691
   43MOL   C34435708   7.200   3.019   2.278  0.0590  0.1067 -0.2925
   43MOL   C34535709   7.282   2.990   2.149 -0.1305  0.4241  0.4952
   43MOL   C34635710   7.205   3.033   2.023 -0.1817  0.1424  0.2414
   43MOL   C34735711   7.289   3.003   1.887  0.5204 -0.6204  0.5018
   43MOL   C34835712   7.227   3.047   1.756  0.2700  1.2853 -0.0598
   43MOL   C34935713   7.091   2.974   1.721 -0.1868  0.0613 -0.4976
   43MOL   C35035714   7.038   3.019   1.589  0.7928 -0.2834 -0.6601
   43MOL   C35135715   7.111   2.944   1.472 -0.4797 -0.0157  0.0185
   43MOL   H35235716   7.468   2.857   2.832  1.6360  0.4217  0.8408
   43MOL   H35335717   7.388   2.784   2.961  0.0490 -0.5675 -0.3051
   43MOL   H35435718   7.371   3.072   2.882 -0.5530  1.8960  3.0980
   43MOL   H35535719   7.191   2.839   2.791 -0.3972 -0.2569  2.0236
   43MOL   H35635720   7.150   3.004   2.775 -0.8581 -0.6336  0.9251
   43MOL   H35735721   7.380   2.876   2.626  0.3740 -0.1937 -1.1665
   43MOL   H35835722   7.378   3.049   2.642  0.8737 -0.9453 -1.5588
   43MOL   H35935723   7.168   3.076   2.529  1.6689  1.1927 -2.7838
   43MOL   H36035724   7.141   2.901   2.534  0.2656 -0.3284  1.0555
   43MOL   H36135725   7.375   3.029   2.393  0.4167 -1.3101  0.7584
   43MOL   H36235726   7.316   2.862   2.375  0.8665 -0.6771  2.1965
   43MOL   H36335727   7.105   2.965   2.281  0.6485 -0.9752 -0.6570
   43MOL   H36435728   7.176   3.124   2.294 -0.0968 -0.0494  0.5455
   43MOL   H36535729   7.377   3.041   2.158  0.1222  0.6598 -2.8148
   43MOL   H36635730   7.303   2.883   2.137 -2.0049  0.1651 -0.8756
   43MOL   H36735731   7.105   2.990   2.031 -0.9672  1.4531 -2.0693
   43MOL   H36835732   7.190   3.138   2.048 -0.2362 -0.1981  1.6847
   43MOL   H36935733   7.390   3.045   1.887  0.3173 -0.1084 -0.6489
   43MOL   H37035734   7.307   2.895   1.888  3.1224 -0.2551 -0.6180
   43MOL   H37135735   7.302   3.032   1.678 -1.3633  0.5121 -1.5340
   43MOL   H37235736   7.200   3.152   1.767 -0.1214  1.0483  1.3335
   43MOL   H37335737   7.010   2.995   1.790  0.1831 -2.0023  0.6096
   43MOL   H37435738   7.095   2.866   1.733 -2.2046  0.0357 -0.0123
   43MOL   H37535739   6.930   3.001   1.592  0.7212  0.2818  1.5136
   43MOL   H37635740   7.048   3.125   1.565 -2.1737 -0.9676 -5.6214
   43MOL   H37735741   7.219   2.950   1.488 -0.7531 -0.5183  2.1849
   43MOL   H37835742   7.092   2.837   1.477  0.3287 -0.2187 -0.9800
   43MOL   H37935743   7.081   2.975   1.372  0.1785  0.6831  0.0307
   43MOL   C38035744   7.230   3.026   3.026  0.1034  0.3607 -0.1192
   43MOL   C38135745   7.258   3.171   3.074  0.4807 -0.5245 -0.9973
   43MOL   C38235746   7.218   3.271   2.962  0.5094  0.1370 -0.1772
   43MOL   C38335747   7.276   3.413   2.977 -0.6364 -0.0727  0.1881
   43MOL   C38435748   7.438   3.408   2.990 -0.2281 -1.0720  0.0874
   43MOL   C38535749   7.493   3.550   2.992 -0.1983  0.5165  0.9386
   43MOL   C38635750   7.543   3.602   2.856  0.2023  0.4630  0.1650
   43MOL   C38735751   7.608   3.742   2.864 -0.7726  0.3638  0.2380
   43MOL   C38835752   0.035   3.756   2.771 -0.5233 -0.0097 -0.1391
   43MOL   C38935753   0.009   3.751   2.619 -0.5807 -1.1168  0.3969
   43MOL   C39035754   0.136   3.790   2.536 -0.8798  0.4473 -0.4165
   43MOL   C39135755   0.178   3.932   2.572 -0.1262  0.1389 -0.9784
   43MOL   C39235756   0.271   3.994   2.470 -0.5941 -0.4362  0.2242
   43MOL   C39335757   0.334   4.124   2.515  0.0590 -0.0858 -0.3729
   43MOL   H39435758   7.245   2.948   3.100 -2.3773  0.4465  0.5387
   43MOL   H39535759   7.124   3.019   3.003  0.3833  0.8358 -1.6060
   43MOL   H39635760   7.362   3.182   3.104  0.0675 -0.1893  0.3465
   43MOL   H39735761   7.110   3.286   2.958  0.5816  0.4127 -1.5012
   43MOL   H39835762   7.250   3.235   2.864  0.2628 -0.5537 -0.0010
   43MOL   H39935763   7.237   3.459   3.067 -2.3285  0.7654 -0.9421
   43MOL   H40035764   7.251   3.474   2.890 -0.7653 -0.2284  0.1157
   43MOL   H40135765   7.492   3.358   2.910 -0.0884  0.5725 -0.8543
   43MOL   H40235766   7.470   3.363   3.084  1.6382  0.7074  0.3113
   43MOL   H40335767   7.579   3.566   3.056  0.8538  1.4889 -0.6928
   43MOL   H40435768   7.417   3.620   3.028 -0.6295  0.4961  0.0979
   43MOL   H40535769   7.598   3.521   2.809 -0.4806 -0.3498  0.7426
   43MOL   H40635770   7.451   3.609   2.798  0.0081  0.2154  0.4444
   43MOL   H40735771   7.537   3.823   2.848 -1.0456  0.6662  2.7608
   43MOL   H40835772   7.633   3.772   2.965 -0.2101 -2.2590  0.9191
   43MOL   H40935773   0.082   3.850   2.797 -0.9540  0.4306 -0.9558
   43MOL   H41035774   0.099   3.672   2.797  0.0690  0.8538  1.2371
   43MOL   H41135775   7.617   3.811   2.593  0.2885  0.0007 -0.0101
   43MOL   H41235776   7.661   3.656   2.588 -3.0487  0.3780 -0.9241
   43MOL   H41335777   0.217   3.726   2.571 -1.6261  0.4311  1.3303
   43MOL   H41435778   0.117   3.778   2.430 -0.6077 -1.8201 -0.2331
   43MOL   H41535779   0.210   3.947   2.675  0.6123 -2.1040 -0.8449
   43MOL   H41635780   0.089   3.996   2.572 -1.5921 -1.8433  0.4052
   43MOL   H41735781   0.348   3.920   2.445  2.1986  2.3487  0.3061
   43MOL   H41835782   0.220   4.002   2.374 -1.1487  0.3817  0.5892
   43MOL   H41935783   0.264   4.207   2.522  1.3838  0.8882  1.4910
   43MOL   H42035784   0.401   4.164   2.439 -0.0873  1.4562  0.3068
   43MOL   H42135785   0.382   4.121   2.613  0.8005  0.7139 -0.7056
   43MOL   C42235786   7.168   3.218   3.193 -0.0701 -0.1165  0.3703
   43MOL   C42335787   7.185   3.130   3.321  0.1490  0.4063  0.5537
   43MOL   C42435788   7.280   3.188   3.434  0.5716  0.0355  0.8795
   43MOL   C42535789   7.394   3.272   3.394  0.3343 -0.0962 -0.5050
   43MOL   C42635790   7.473   3.317   3.519  0.4937  0.4345  0.3780
   43MOL   C42735791   7.610   3.372   3.476  0.2510  0.3835 -0.4001
   43MOL   C42835792   0.013   3.418   3.586  0.5953 -1.1623  0.2918
   43MOL   C42935793   0.152   3.475   3.531  0.4034 -0.0496  0.5390
   43MOL   C43035794   0.261   3.495   3.642  0.1833  0.4077 -0.0173
   43MOL   C43135795   0.313   3.382   3.733 -0.1315  0.1023  0.3236
   43MOL   C43235796   0.422   3.439   3.831 -0.0374  0.0978  0.2461
   43MOL   C43335797   0.499   3.335   3.910 -0.6871  0.5480  0.0037
   43MOL   C43435798   0.621   3.402   3.972  0.9074  1.0844  0.1437
   43MOL   C43535799   0.666   3.307   4.077 -0.4593  0.2234 -0.6605
   43MOL   H43635800   7.073   3.190   3.148 -0.2640 -2.5135  2.1460
   43MOL   H43735801   7.172   3.325   3.214  3.4743  0.1273 -1.2498
   43MOL   H43835802   7.219   3.036   3.278 -1.5591  0.0946 -0.1897
   43MOL   H43935803   7.317   3.106   3.495  0.7111 -1.4406 -1.1372
   43MOL   H44035804   7.217   3.238   3.508  0.4337 -0.6480  1.2287
   43MOL   H44135805   7.463   3.217   3.330 -0.0132 -0.6102 -0.4400
   43MOL   H44235806   7.366   3.361   3.338  0.0897 -0.5556 -1.1299
   43MOL   H44335807   7.497   3.236   3.588  0.5213 -0.1357 -0.3043
   43MOL   H44435808   7.418   3.389   3.580  1.0955  0.2721  1.1268
   43MOL   H44535809   7.594   3.457   3.411  1.7606  1.2963  0.3951
   43MOL   H44635810   7.665   3.295   3.421 -0.0988 -0.2432  0.1098
   43MOL   H44735811   7.662   3.489   3.655 -1.0654  1.2995 -3.2167
   43MOL   H44835812   0.023   3.342   3.664 -1.4385 -1.5510  0.2116
   43MOL   H44935813   0.186   3.400   3.459  1.3051 -0.8477  1.7827
   43MOL   H45035814   0.134   3.568   3.477  1.1218  1.1886  2.3931
   43MOL   H45135815   0.352   3.520   3.588 -1.5474 -1.2498 -3.9079
   43MOL   H45235816   0.240   3.587   3.696 -1.2453 -0.4732  0.9867
   43MOL   H45335817   0.231   3.340   3.791 -1.2958  1.4578 -0.3066
   43MOL   H45435818   0.361   3.304   3.673  0.5961 -0.4486  1.6161
   43MOL   H45535819   0.492   3.487   3.762 -1.6368 -0.4832 -1.8286
   43MOL   H45635820   0.377   3.517   3.892 -0.3321  0.0644  0.0762
   43MOL   H45735821   0.515   3.250   3.843 -1.9278  0.0151  0.3729
   43MOL   H45835822   0.431   3.296   3.985 -0.4168 -0.4399 -0.2599
   43MOL   H45935823   0.698   3.412   3.894 -1.1658 -0.6283 -2.2171
   43MOL   H46035824   0.606   3.502   4.012  3.3998  1.2105  0.8827
   43MOL   H46135825   0.588   3.286   4.150 -0.1222  2.3137  0.3552
   43MOL   H46235826   0.750   3.347   4.134  0.3148 -0.2984 -1.4212
   43MOL   H46335827   0.690   3.211   4.033 -0.7722  0.6521 -1.8004
   43MOL   C46435828   7.046   3.094   3.378 -0.7076  0.2917  0.5304
   43MOL   C46535829   7.022   2.954   3.450 -0.2538  0.8362  0.9156
   43MOL   C46635830   7.056   2.839   3.354  0.5817  0.1543 -0.4403
   43MOL   C46735831   6.974   2.827   3.221  0.3647  0.1444  0.3007
   43MOL   C46835832   7.006   2.705   3.139  0.0552  0.4915  0.1688
   43MOL   C46935833   6.981   2.704   2.989 -0.0221 -0.3138 -0.2948
   43MOL   C47035834   7.012   2.560   2.928 -0.3607 -0.0959 -1.0651
   43MOL   C47135835   7.016   2.544   2.774  0.0132 -0.2499  0.1607
   43MOL   C47235836   6.998   2.392   2.727 -0.1841 -0.4987 -0.4655
   43MOL   C47335837   6.994   2.367   2.578 -0.3146 -0.1192 -0.0206
   43MOL   C47435838   6.984   2.218   2.535 -0.3369  0.6655 -0.5168
   43MOL   C47535839   6.967   2.202   2.386 -0.1167 -0.6041  0.0785
   43MOL   C47635840   6.824   2.229   2.335  0.0991 -0.1949  0.9022
   43MOL   C47735841   6.796   2.191   2.189  0.3585  0.1570  0.0866
   43MOL   H47835842   6.965   3.107   3.306  2.5347  0.7345 -3.2616
   43MOL   H47935843   7.017   3.178   3.441  0.1671 -0.7775  2.4060
   43MOL   H48035844   6.914   2.951   3.469 -0.2797  0.6308  0.7278
   43MOL   H48135845   7.163   2.829   3.333  0.8902 -1.0573  1.6148
   43MOL   H48235846   7.034   2.749   3.410  1.0514  0.1401 -0.2767
   43MOL   H48335847   6.969   2.922   3.168  1.7977 -0.8793 -1.7708
   43MOL   H48435848   6.869   2.812   3.246  0.1817  0.1002 -0.4559
   43MOL   H48535849   6.951   2.620   3.180  1.3230 -0.7860 -0.7219
   43MOL   H48635850   7.109   2.673   3.156  0.3278  1.0125 -0.4618
   43MOL   H48735851   6.884   2.745   2.961  1.1044  1.5117 -1.6492
   43MOL   H48835852   7.050   2.772   2.939 -0.0760  0.6388  0.9169
   43MOL   H48935853   7.101   2.512   2.968  1.2136  0.4643 -3.7497
   43MOL   H49035854   6.931   2.492   2.954  0.2612  0.3751  2.3596
   43MOL   H49135855   6.936   2.602   2.728 -0.3195 -1.1771 -0.4508
   43MOL   H49235856   7.108   2.593   2.742  1.1088 -1.5560  1.2365
   43MOL   H49335857   7.086   2.333   2.753  0.0969 -0.8289 -2.0828
   43MOL   H49435858   6.913   2.344   2.774 -2.8772  0.3059 -4.2323
   43MOL   H49535859   6.911   2.427   2.543  1.0858  1.0694 -1.3642
   43MOL   H49635860   7.087   2.407   2.539 -0.8421  1.0461 -0.1069
   43MOL   H49735861   7.074   2.166   2.569 -1.3048 -0.2341  0.7650
   43MOL   H49835862   6.894   2.185   2.588  1.1728 -0.2862  1.5295
   43MOL   H49935863   6.981   2.096   2.368  4.2254  0.1589 -1.6034
   43MOL   H50035864   7.039   2.260   2.329  0.2006 -0.0020  1.0773
   43MOL   H50135865   6.742   2.179   2.387 -0.8920  1.0346  0.5646
   43MOL   H50235866   6.809   2.336   2.348  1.3645  0.0897  0.0896
   43MOL   H50335867   6.687   2.195   2.180  0.3665 -1.9816 -1.2714
   43MOL   H50435868   6.839   2.263   2.119 -0.5789  1.3167  0.6779
   43MOL   H50535869   6.834   2.091   2.172  1.0133 -0.1884  3.2989
   43MOL   C50635870   7.089   2.936   3.584  0.0525 -0.4420  0.6361
   43MOL   C50735871   7.067   3.050   3.690 -0.3634 -0.5259  0.0000
   43MOL   C50835872   6.924   3.101   3.693  1.0363 -0.2432  0.1632
   43MOL   C50935873   6.826   2.996   3.752  0.3615  0.2277  0.6788
   43MOL   C51035874   6.691   3.061   3.780 -0.0247 -0.4472  0.1402
   43MOL   C51135875   6.584   2.961   3.806  0.6102 -0.0677  0.4495
   43MOL   C51235876   6.453   3.022   3.844  0.8456  0.2991 -0.5703
   43MOL   C51335877   6.332   2.930   3.843 -0.6723  0.3163 -0.0985
   43MOL   C51435878   6.225   2.991   3.935  0.3352  0.0651  0.5203
   43MOL   C51535879   6.085   2.933   3.913  0.1443 -0.0883 -0.3742
   43MOL   C51635880   5.984   2.978   4.022  0.0321  0.4699  0.1116
   43MOL   C51735881   6.004   2.909   4.163 -0.5013  0.7725  0.3933
   43MOL   C51835882   5.959   2.761   4.160 -0.4585  0.4722 -0.9006
   43MOL   C51935883   5.803   2.746   4.153 -0.0886 -0.1124  0.6988
   43MOL   H52035884   7.196   2.916   3.573  0.3675  0.8224  1.2355
   43MOL   H52135885   7.046   2.847   3.629  0.7031 -1.5772 -0.9453
   43MOL   H52235886   7.125   3.130   3.644 -0.5992 -0.0686  0.5023
   43MOL   H52335887   6.902   3.191   3.749  1.4026 -0.8516  1.2996
   43MOL   H52435888   6.889   3.131   3.594  1.1293 -1.1558 -0.1586
   43MOL   H52535889   6.819   2.909   3.687 -0.5964  0.7328  0.0966
   43MOL   H52635890   6.868   2.960   3.846 -0.1433  0.0341  0.8308
   43MOL   H52735891   6.660   3.126   3.699  3.3625 -1.4380 -2.0471
   43MOL   H52835892   6.701   3.132   3.862  0.6550 -0.1537 -0.1940
   43MOL   H52935893   6.610   2.905   3.896 -0.3493  1.0145  1.4057
   43MOL   H53035894   6.586   2.894   3.721  0.9561  1.5361 -0.8292
   43MOL   H53135895   6.474   3.058   3.945  2.2551  0.0302 -0.7608
   43MOL   H53235896   6.432   3.105   3.775  3.6535  0.7397 -0.9529
   43MOL   H53335897   6.356   2.832   3.886  1.3964  1.2018  0.8467
   43MOL   H53435898   6.291   2.914   3.743 -2.2565  1.5888  0.3201
   43MOL   H53535899   6.222   3.099   3.925 -2.2966 -0.1241 -1.3462
   43MOL   H53635900   6.253   2.985   4.040  0.4079 -2.3814  0.3847
   43MOL   H53735901   6.047   2.958   3.814 -1.8117 -1.0121  0.1067
   43MOL   H53835902   6.085   2.824   3.914 -2.3329 -0.1431 -0.9360
   43MOL   H53935903   5.988   3.085   4.041 -0.6737  0.6342 -0.6412
   43MOL   H54035904   5.881   2.973   3.988  0.5714 -0.3588 -1.4892
   43MOL   H54135905   5.950   2.957   4.244 -2.4278  0.8927 -0.9216
   43MOL   H54235906   6.110   2.921   4.186 -0.5694  2.9081 -0.3285
   43MOL   H54335907   5.988   2.729   4.260 -0.2990  0.7724 -0.8515
   43MOL   H54435908   6.005   2.690   4.091 -1.5232 -0.2694 -0.8597
   43MOL   H54535909   5.756   2.765   4.057  1.1667 -1.2974 -0.1475
   43MOL   H54635910   5.755   2.649   4.164 -1.8001  0.2265 -3.1856
   43MOL   H54735911   5.744   2.808   4.221  0.1301 -0.1299  0.9072
   43MOL   C54835912   7.129   3.015   3.824 -0.0463  0.6672  0.1253
   43MOL   C54935913   7.117   3.122   3.935  0.3838  0.2566  0.3633
   43MOL   C55035914   7.147   3.067   4.075 -0.0011 -0.1818  0.0903
   43MOL   C55135915   7.294   3.035   4.121  0.3453  0.0233  0.5358
   43MOL   C55235916   7.299   2.974   4.258  0.1794 -0.2026  0.4206
   43MOL   C55335917   7.273   3.079   4.365 -0.0225  0.0363 -0.0296
   43MOL   C55435918   7.386   3.188   4.388 -0.1018  0.3021  0.7262
   43MOL   C55535919   7.321   3.290   4.487 -0.2898 -0.3043 -0.1191
   43MOL   C55635920   7.413   3.402   4.526 -0.2383 -0.2903 -0.2617
   43MOL   C55735921   7.341   3.522   4.584  0.9920  0.2068  0.2374
   43MOL   C55835922   7.440   3.641   4.617 -0.5469 -0.4331 -0.6954
   43MOL   C55935923   7.373   3.749   4.693  0.4027 -0.2740 -0.1867
   43MOL   C56035924   7.468   3.861   4.736 -0.3420  0.4383  0.0655
   43MOL   C56135925   7.380   3.969   4.807  0.3377 -0.1957 -0.3818
   43MOL   H56235926   7.088   2.926   3.871  1.9359 -0.2646  0.1791
   43MOL   H56335927   7.233   2.981   3.814 -0.6044 -0.9188 -0.5345
   43MOL   H56435928   7.010   3.140   3.945  0.0689 -2.2155  1.9657
   43MOL   H56535929   7.104   3.140   4.144 -1.9315 -1.7969  0.6409
   43MOL   H56635930   7.086   2.981   4.103 -0.5104  0.2346  0.2600
   43MOL   H56735931   7.360   3.120   4.105  1.5012 -0.8171  0.7495
   43MOL   H56835932   7.324   2.954   4.056  1.3276  0.4636  0.4249
   43MOL   H56935933   7.224   2.896   4.264 -0.1525  0.0279 -0.6339
   43MOL   H57035934   7.393   2.921   4.276  0.3791  0.3331  0.9851
   43MOL   H57135935   7.241   3.026   4.454  1.8393  1.4522  1.5148
   43MOL   H57235936   7.176   3.126   4.347  0.8411  0.6754 -3.3868
   43MOL   H57335937   7.472   3.130   4.423 -1.6371 -1.6624  1.3451
   43MOL   H57435938   7.419   3.225   4.291 -1.9160  2.2294  0.8093
   43MOL   H57535939   7.285   3.244   4.579 -3.1906 -0.3260 -1.2199
   43MOL   H57635940   7.232   3.336   4.443  0.3632 -0.6584 -1.8329
   43MOL   H57735941   7.472   3.423   4.437  0.3733  2.2615  0.6876
   43MOL   H57835942   7.491   3.363   4.592 -0.1565  1.0611  0.4729
   43MOL   H57935943   7.260   3.553   4.518  1.9561  0.9943 -0.5889
   43MOL   H58035944   7.299   3.491   4.680  0.7337 -2.1598 -0.6115
   43MOL   H58135945   7.482   3.673   4.522 -0.2041  1.1462 -0.0113
   43MOL   H58235946   7.516   3.607   4.687 -0.7698  0.9658  0.2471
   43MOL   H58335947   7.292   3.798   4.639  0.0963 -1.9635 -1.2946
   43MOL   H58435948   7.321   3.711   4.782 -4.3186 -0.8731 -3.0046
   43MOL   H58535949   7.543   3.819   4.803 -1.5153 -0.9035  0.5773
   43MOL   H58635950   7.527   3.905   4.656  0.1610  0.4845  0.4591
   43MOL   H58735951   7.321   4.023   4.733 -0.4548 -1.0175 -0.3550
   43MOL   H58835952   7.304   3.928   4.873  0.6842  1.2722  0.9407
   43MOL   H58935953   7.451   4.046   4.837  0.4797 -0.2797 -0.5044
   43MOL   C59035954   7.195   3.255   3.906 -0.0761  0.3823  0.5059
   43MOL   C59135955   7.192   3.371   4.003  1.0135 -0.0373 -0.1161
   43MOL   C59235956   7.290   3.488   3.965  0.1198 -0.5589  0.4672
   43MOL   C59335957   7.289   3.544   3.821  0.2568 -0.0155  0.0752
   43MOL   C59435958   7.413   3.637   3.787 -0.6778  0.4282  1.0237
   43MOL   C59535959   7.419   3.772   3.858 -0.0419  0.7855  0.1779
   43MOL   C59635960   7.540   3.856   3.824 -0.1749 -0.1450 -0.5069
   43MOL   C59735961   7.550   3.992   3.894 -0.1533  0.1410  0.4287
   43MOL   C59835962   7.665   4.066   3.836 -0.0078 -0.7151  0.0396
   43MOL   C59935963   0.014   4.191   3.924 -0.5245 -0.2062 -0.3436
   43MOL   C60035964   0.134   4.278   3.864 -0.0708  0.2390  0.1036
   43MOL   C60135965   0.104   4.371   3.735  0.4577  0.0046  0.4119
   43MOL   C60235966   0.228   4.403   3.658  0.4574 -0.0871 -0.7075
   43MOL   C60335967   0.188   4.509   3.547 -0.1849  0.3168  0.3768
   43MOL   H60435968   7.156   3.293   3.812  3.0487 -1.9026 -1.8275
   43MOL   H60535969   7.297   3.226   3.883  0.2321  0.3416  1.8724
   43MOL   H60635970   7.214   3.343   4.105 -1.0953 -0.6031  0.2187
   43MOL   H60735971   7.386   3.441   3.989 -0.8295 -1.8937  1.6987
   43MOL   H60835972   7.282   3.578   4.026  0.9780  0.7682 -1.3209
   43MOL   H60935973   7.200   3.598   3.790 -1.2987 -1.1830  2.4337
   43MOL   H61035974   7.298   3.467   3.744  0.7890 -0.3407  0.4564
   43MOL   H61135975   7.424   3.648   3.679 -2.0402  1.7389  0.9944
   43MOL   H61235976   7.496   3.573   3.816 -0.7423  1.1510  2.8845
   43MOL   H61335977   7.412   3.740   3.962 -4.8438  3.9220  1.0021
   43MOL   H61435978   7.331   3.833   3.835 -0.0487  1.6128  2.2749
   43MOL   H61535979   7.619   3.785   3.848 -0.5118  0.1094  1.4002
   43MOL   H61635980   7.549   3.870   3.716  0.1475 -0.4246 -0.5173
   43MOL   H61735981   7.455   4.044   3.888 -0.4547 -0.4242  0.2597
   43MOL   H61835982   7.558   3.962   3.998 -0.3826  1.3812  0.8126
   43MOL   H61935983   0.060   4.008   3.818 -0.3313 -1.7075  1.5518
   43MOL   H62035984   7.639   4.098   3.735  0.9001 -4.0200 -1.2908
   43MOL   H62135985   7.633   4.259   3.961  0.9046  1.2231  0.0843
   43MOL   H62235986   0.056   4.136   4.008  0.0006 -1.4225 -1.3819
   43MOL   H62335987   0.217   4.210   3.842 -0.1474 -0.4540  1.8695
   43MOL   H62435988   0.169   4.345   3.942  2.2658 -1.0485  0.1989
   43MOL   H62535989   0.066   4.469   3.765 -0.6467 -0.0742 -0.6700
   43MOL   H62635990   0.032   4.321   3.670  0.0417  0.7831  0.2539
   43MOL   H62735991   0.312   4.431   3.722 -1.1434  1.3030  0.8421
   43MOL   H62835992   0.264   4.318   3.600 -0.2005 -0.3475 -0.7397
   43MOL   H62935993   0.088   4.489   3.510  0.5501 -0.4739 -1.2174
   43MOL   H63035994   0.267   4.496   3.473  0.6151  0.7694  1.1418
   43MOL   H63135995   0.188   4.609   3.589 -1.5804  1.0474 -1.3227
   43MOL   C63235996   7.046   3.429   4.009 -0.2551  0.0127 -0.2679
   43MOL   C63335997   6.992   3.440   4.155  0.4737  0.7387  1.0071
   43MOL   C63435998   7.052   3.551   4.240 -0.3236 -0.1562 -0.1717
   43MOL   C63535999   7.038   3.696   4.208 -0.2554  0.8953  0.2689
   43MOL   C63636000   7.101   3.805   4.300 -0.5623 -0.4012  0.2694
   43MOL   C63736001   7.254   3.803   4.296 -0.1628 -0.4857  0.2726
   43MOL   C63836002   7.322   3.940   4.331  0.5405  0.5832 -0.5064
   43MOL   C63936003   7.473   3.939   4.338 -0.4749  0.3466 -0.3021
   43MOL   C64036004   7.526   4.075   4.388  0.3361  0.1657  0.3356
   43MOL   C64136005   7.674   4.115   4.364  0.0599  0.6470  0.7243
   43MOL   C64236006   0.074   4.076   4.473  0.2309 -0.4963  0.0792
   43MOL   C64336007   0.116   3.932   4.466  0.3867  0.4307  0.4850
   43MOL   C64436008   0.231   3.901   4.560 -0.5777  0.5527  0.1662
   43MOL   C64536009   0.256   3.751   4.595  0.2802 -0.3241  1.1375
   43MOL   H64636010   6.972   3.375   3.951  0.5295 -1.8304  0.4084
   43MOL   H64736011   7.038   3.531   3.973 -1.8892 -0.1648 -0.4142
   43MOL   H64836012   7.019   3.343   4.197 -1.6899 -1.9567 -3.5188
   43MOL   H64936013   7.030   3.526   4.344  1.4361 -1.7108 -0.1326
   43MOL   H65036014   7.159   3.528   4.237 -0.8307 -2.7555  0.2811
   43MOL   H65136015   6.931   3.714   4.218 -0.7515 -1.9948  0.5642
   43MOL   H65236016   7.072   3.722   4.107 -0.6204  1.2701  0.2411
   43MOL   H65336017   7.061   3.791   4.401 -1.1979  2.7827  0.4968
   43MOL   H65436018   7.066   3.902   4.265 -0.4784 -0.4648  0.0052
   43MOL   H65536019   7.299   3.738   4.372  1.1712  1.2632  1.0085
   43MOL   H65636020   7.291   3.765   4.201 -0.0577 -0.1759  0.1917
   43MOL   H65736021   7.286   4.012   4.258  0.4831 -0.6503 -1.7069
   43MOL   H65836022   7.280   3.965   4.429 -2.2623 -0.7432 -1.3308
   43MOL   H65936023   7.511   3.924   4.237 -0.4944 -0.1413 -0.2365
   43MOL   H66036024   7.502   3.861   4.408  0.3225 -1.6492 -2.7776
   43MOL   H66136025   7.500   4.082   4.493 -1.0759 -1.8071  0.1470
   43MOL   H66236026   7.465   4.146   4.331  0.7655  0.0704 -0.2438
   43MOL   H66336027   0.008   4.086   4.263  2.2461 -1.7199  1.9979
   43MOL   H66436028   7.661   4.223   4.370 -4.2230  0.1653  1.7968
   43MOL   H66536029   0.163   4.138   4.462  0.7815 -1.3094 -0.0897
   43MOL   H66636030   0.034   4.097   4.572  0.0286 -2.8381  0.5194
   43MOL   H66736031   0.147   3.918   4.363 -3.2393 -0.4205 -0.5641
   43MOL   H66836032   0.036   3.863   4.492  2.6159 -1.7906  1.5262
   43MOL   H66936033   0.208   3.952   4.653 -2.0294 -1.2261  0.8223
   43MOL   H67036034   0.323   3.943   4.519  0.6544 -0.2209  2.0692
   43MOL   H67136035   0.345   3.721   4.652 -0.3182  0.1871  2.3518
   43MOL   H67236036   0.176   3.711   4.656 -0.6483  0.5900  0.5378
   43MOL   H67336037   0.255   3.706   4.495 -3.3079 -0.5375  1.2048
   43MOL   C67436038   6.843   3.450   4.157  0.4072  0.8237  0.1445
   43MOL   C67536039   6.776   3.314   4.120  0.7461  0.2457 -0.2966
   43MOL   C67636040   6.772   3.223   4.249  0.6971 -0.3262  0.5161
   43MOL   C67736041   6.726   3.086   4.209 -0.1956 -0.6122 -1.1692
   43MOL   C67836042   6.758   2.976   4.311 -0.3211  0.0163  0.5704
   43MOL   C67936043   6.715   2.836   4.282  0.6413  0.0157  0.1440
   43MOL   C68036044   6.564   2.833   4.311 -0.2719 -0.4613 -0.2329
   43MOL   C68136045   6.500   2.714   4.244  0.2882 -0.6115  0.1994
   43MOL   C68236046   6.351   2.702   4.247 -0.0244  0.0148  0.5710
   43MOL   C68336047   6.298   2.579   4.174 -1.0616  0.0710 -0.7038
   43MOL   C68436048   6.363   2.551   4.035 -0.1921  0.1351  0.1319
   43MOL   C68536049   6.322   2.424   3.961  0.5276 -1.0144  0.8544
   43MOL   C68636050   6.402   2.301   3.997  0.1015 -0.3432  0.9386
   43MOL   C68736051   6.335   2.184   3.934 -0.2991  0.1780 -0.2108
   43MOL   H68836052   6.812   3.525   4.084 -1.1283 -1.1100 -1.2703
   43MOL   H68936053   6.806   3.483   4.254 -2.8077 -0.8469 -0.4071
   43MOL   H69036054   6.833   3.249   4.054 -1.2638 -0.8747 -0.9600
   43MOL   H69136055   6.869   3.209   4.296  0.8374  0.2572  0.4008
   43MOL   H69236056   6.710   3.258   4.332  2.1424  2.0727  0.6368
   43MOL   H69336057   6.618   3.099   4.207 -0.4652 -2.3363  0.1197
   43MOL   H69436058   6.753   3.049   4.110 -1.3272 -3.9221 -0.3158
   43MOL   H69536059   6.867   2.984   4.314 -0.2612 -0.0203 -1.1040
   43MOL   H69636060   6.726   3.011   4.409 -0.5684 -0.2257  0.5764
   43MOL   H69736061   6.739   2.818   4.177  1.3845  2.9334 -0.2234
   43MOL   H69836062   6.769   2.763   4.342  0.0738  0.1817  0.8754
   43MOL   H69936063   6.544   2.829   4.418 -2.0592 -0.7543 -0.5521
   43MOL   H70036064   6.520   2.920   4.262 -1.7953 -1.6340 -1.0104
   43MOL   H70136065   6.516   2.724   4.137 -1.4594 -4.0856 -0.4284
   43MOL   H70236066   6.538   2.620   4.284 -1.3590 -0.1210  3.0413
   43MOL   H70336067   6.331   2.681   4.353 -0.5889 -1.0946  0.2590
   43MOL   H70436068   6.314   2.798   4.213  2.2454  0.9341  0.6255
   43MOL   H70536069   6.191   2.590   4.156 -1.1048 -2.3225 -2.0427
   43MOL   H70636070   6.316   2.490   4.235 -0.7309 -1.5931 -3.1604
   43MOL   H70736071   6.471   2.555   4.021  0.1511 -0.2189  2.5007
   43MOL   H70836072   6.325   2.626   3.966 -0.7789 -0.5528 -0.3058
   43MOL   H70936073   6.326   2.437   3.853 -2.7655  2.2178  1.0269
   43MOL   H71036074   6.214   2.414   3.972 -0.1745  3.1584 -1.2150
   43MOL   H71136075   6.493   2.304   3.936 -1.7452  1.1603 -1.8300
   43MOL   H71236076   6.415   2.300   4.105 -2.3143  2.5007  1.3205
   43MOL   H71336077   6.344   2.090   3.990  0.6261  1.1047  1.2153
   43MOL   H71436078   6.228   2.195   3.914 -0.2797 -0.7004 -0.8600
   43MOL   H71536079   6.374   2.139   3.843 -1.4747 -1.8287  0.2407
   43MOL   C71636080   6.631   3.340   4.065 -0.8310  0.5259  0.1041
   43MOL   C71736081   6.603   3.444   3.954 -0.2904  0.2814 -0.6082
   43MOL   C71836082   6.694   3.414   3.834 -0.1644 -0.3311 -0.0630
   43MOL   C71936083   6.736   3.541   3.761  0.5730  0.5986  0.0204
   43MOL   C72036084   6.835   3.506   3.642  0.0361 -0.1050 -0.3068
   43MOL   C72136085   6.925   3.626   3.612  0.1598 -0.0822 -0.0499
   43MOL   C72236086   7.053   3.594   3.534  0.0380  0.5292 -0.0740
   43MOL   C72336087   7.138   3.714   3.503 -0.2749  0.2510 -0.5387
   43MOL   C72436088   7.237   3.677   3.401  0.4144  0.0937  0.3808
   43MOL   C72536089   7.347   3.783   3.372  0.4492  0.4723 -0.7646
   43MOL   C72636090   7.481   3.716   3.329 -0.0619 -0.0126  0.4812
   43MOL   C72736091   7.593   3.811   3.263 -0.2541 -0.1486  0.0896
   43MOL   C72836092   7.646   3.922   3.363  0.2981  0.7292  0.3584
   43MOL   C72936093   0.027   3.864   3.479 -0.8939  0.0934  0.6667
   43MOL   H73036094   6.599   3.241   4.033 -0.9720 -0.4030  2.9962
   43MOL   H73136095   6.572   3.359   4.155 -0.0543  0.8241  0.5532
   43MOL   H73236096   6.622   3.543   3.994 -2.9338  0.7159 -0.3352
   43MOL   H73336097   6.643   3.349   3.762  0.2513 -0.1852 -0.4919
   43MOL   H73436098   6.779   3.357   3.872 -0.0372 -0.3234 -0.3370
   43MOL   H73536099   6.648   3.593   3.725  0.7828  0.7714 -0.2471
   43MOL   H73636100   6.783   3.604   3.837  0.2032  0.3239  0.4841
   43MOL   H73736101   6.899   3.422   3.668  0.0837  0.3903  1.2328
   43MOL   H73836102   6.770   3.491   3.556 -1.9175  1.9323  0.7406
   43MOL   H73936103   6.859   3.698   3.562 -2.2185 -0.0508  2.9627
   43MOL   H74036104   6.959   3.681   3.700  0.9043 -0.7514  0.0766
   43MOL   H74136105   7.106   3.517   3.590 -2.5894  0.2195  2.0729
   43MOL   H74236106   7.019   3.552   3.439  0.3233 -1.4693  0.6870
   43MOL   H74336107   7.176   3.747   3.600  1.2947 -1.1551 -0.6519
   43MOL   H74436108   7.076   3.800   3.479 -0.1176  0.8814  1.2201
   43MOL   H74536109   7.284   3.585   3.436  1.3505  0.6436  0.6015
   43MOL   H74636110   7.186   3.652   3.309  0.4335 -0.0332  0.4056
   43MOL   H74736111   7.318   3.854   3.295  0.3425  2.6998  1.2704
   43MOL   H74836112   7.368   3.844   3.460 -0.3904  0.3986 -0.5071
   43MOL   H74936113   7.510   3.666   3.421 -0.3023  2.0195  1.6928
   43MOL   H75036114   7.458   3.634   3.261 -0.6588  1.3767 -1.0173
   43MOL   H75136115   7.678   3.750   3.233 -1.2184 -1.4584 -0.0307
   43MOL   H75236116   7.557   3.854   3.170 -0.8810  1.3798  1.0233
   43MOL   H75336117   7.567   3.988   3.399 -0.0702  1.0710 -1.0272
   43MOL   H75436118   0.009   3.986   3.296 -0.4204  1.8766  0.7999
   43MOL   H75536119   0.113   3.813   3.436 -0.3145  0.3223  1.5382
   43MOL   H75636120   7.667   3.789   3.535  2.4569 -2.9150  0.1381
   43MOL   H75736121   0.065   3.939   3.549  0.0186 -0.2982  0.6039
   43MOL   C75836122   6.451   3.444   3.910  0.6421 -0.2456 -0.0440
   43MOL   C75936123   6.337   3.458   4.010  0.4920 -0.4726  0.0835
   43MOL   C76036124   6.337   3.601   4.076  0.3536 -0.0681 -0.4736
   43MOL   C76136125   6.280   3.709   3.983  0.4191  0.2269 -0.1227
   43MOL   C76236126   6.291   3.850   4.044 -0.2388 -0.2163 -0.4210
   43MOL   C76336127   6.242   3.953   3.939 -0.4621  0.0029 -0.4175
   43MOL   C76436128   6.258   4.100   3.979  0.5362  0.0989  0.7718
   43MOL   C76536129   6.225   4.197   3.865 -0.6250 -0.0974  0.2132
   43MOL   C76636130   6.263   4.347   3.918 -0.0947  0.4541  0.4613
   43MOL   C76736131   6.418   4.374   3.939 -0.0429  0.2489 -0.2801
   43MOL   C76836132   6.453   4.520   3.950  0.4681 -0.3855  0.0486
   43MOL   C76936133   6.462   4.586   3.810 -0.4004 -0.8325  0.5220
   43MOL   C77036134   6.483   4.735   3.816  0.4693 -0.5637  0.4640
   43MOL   C77136135   6.462   4.798   3.675 -0.2392  0.2715 -0.4118
   43MOL   H77236136   6.437   3.521   3.835 -1.3598 -2.6228 -2.1735
   43MOL   H77336137   6.420   3.361   3.847 -0.5866 -0.0062  0.2419
   43MOL   H77436138   6.362   3.378   4.079  1.7409  0.1281  0.3379
   43MOL   H77536139   6.285   3.597   4.172  0.0843  0.2295 -0.6069
   43MOL   H77636140   6.435   3.640   4.103 -0.5998  1.0001  1.5802
   43MOL   H77736141   6.340   3.712   3.892 -1.3225 -3.0989 -1.4682
   43MOL   H77836142   6.174   3.699   3.961  0.3483  1.7305 -0.4926
   43MOL   H77936143   6.398   3.865   4.059 -0.4888 -1.3697  2.9684
   43MOL   H78036144   6.244   3.864   4.141  0.3236 -1.1767  0.0036
   43MOL   H78136145   6.137   3.929   3.926 -0.2321  0.0808 -2.6205
   43MOL   H78236146   6.291   3.945   3.842  0.8813 -0.8412  0.3116
   43MOL   H78336147   6.190   4.129   4.059  0.7543 -2.5431  1.9824
   43MOL   H78436148   6.359   4.116   4.016  1.2339 -2.0683 -0.1169
   43MOL   H78536149   6.124   4.193   3.824 -1.2841  2.0059  1.5504
   43MOL   H78636150   6.290   4.177   3.780 -0.9824 -0.0280 -0.0787
   43MOL   H78736151   6.221   4.366   4.017  0.8235  1.1426  0.7282
   43MOL   H78836152   6.213   4.426   3.861  1.2791  0.5180 -0.6707
   43MOL   H78936153   6.489   4.329   3.870 -1.9119 -1.0725 -1.3701
   43MOL   H79036154   6.447   4.337   4.038 -1.3343 -0.8763 -0.2999
   43MOL   H79136155   6.391   4.578   4.018  1.0327 -2.8902  2.7741
   43MOL   H79236156   6.558   4.511   3.975  0.4620  2.1941  1.1419
   43MOL   H79336157   6.541   4.539   3.751  0.9366  0.2980  1.3838
   43MOL   H79436158   6.369   4.555   3.761 -0.4126 -2.4371  1.5088
   43MOL   H79536159   6.419   4.782   3.890  2.9335  2.7137  0.6476
   43MOL   H79636160   6.586   4.761   3.841  0.5681 -0.2824 -0.2059
   43MOL   H79736161   6.545   4.788   3.605  0.2744 -0.2309  0.2620
   43MOL   H79836162   6.371   4.761   3.627 -0.6893  3.5932 -2.2725
   43MOL   H79936163   6.455   4.906   3.686  2.0825  0.2608  1.4367
   43MOL   C80036164   6.211   3.422   3.946 -0.0514 -0.3523  0.1400
   43MOL   C80136165   6.089   3.409   4.053  0.8206  0.2100 -0.1277
   43MOL   C80236166   5.962   3.397   3.978  0.1192 -0.0124  0.0842
   43MOL   C80336167   5.880   3.533   3.948  0.3454  0.1902 -0.0413
   43MOL   C80436168   5.820   3.588   4.077 -0.3999 -0.5240  0.0304
   43MOL   C80536169   5.740   3.714   4.045  0.1603  0.2691  0.0178
   43MOL   C80636170   5.834   3.832   4.027  0.2084  0.5337 -0.1100
   43MOL   C80736171   5.777   3.952   3.959  0.5883  0.8211 -0.1773
   43MOL   C80836172   5.866   4.082   3.980 -0.4425 -0.2665 -1.0246
   43MOL   C80936173   5.797   4.217   3.931  0.9163 -0.4807 -0.3191
   43MOL   C81036174   5.882   4.339   3.930  0.0869 -0.1340  0.5548
   43MOL   C81136175   5.803   4.464   3.896  0.3834  0.2569  0.1592
   43MOL   C81236176   5.705   4.508   4.010 -0.3417 -0.0735  1.4137
   43MOL   C81336177   5.666   4.657   4.009 -0.0252  0.5235 -0.0727
   43MOL   H81436178   6.222   3.326   3.896  0.2564 -0.5844  0.6535
   43MOL   H81536179   6.175   3.498   3.876 -0.4589  1.1225  1.9165
   43MOL   H81636180   6.086   3.497   4.117 -0.5085  0.2297 -0.2066
   43MOL   H81736181   5.912   3.327   4.045 -0.7913 -0.5427 -1.1181
   43MOL   H81836182   5.956   3.337   3.887 -0.9478 -0.9342  0.7431
   43MOL   H81936183   5.801   3.515   3.875 -2.5206  0.4938  2.8725
   43MOL   H82036184   5.946   3.594   3.887  1.6986 -0.4256  0.7854
   43MOL   H82136185   5.756   3.510   4.117 -0.1227 -0.7960 -0.0489
   43MOL   H82236186   5.902   3.602   4.148 -0.8815  2.3655  0.0764
   43MOL   H82336187   5.675   3.741   4.129  0.9398 -0.4017  0.8398
   43MOL   H82436188   5.675   3.694   3.960  2.3985 -1.4029 -1.3538
   43MOL   H82536189   5.866   3.856   4.128 -1.5023  1.8945  0.1487
   43MOL   H82636190   5.912   3.790   3.964 -0.2988 -1.2227  0.4089
   43MOL   H82736191   5.757   3.931   3.854  0.1623  1.3886 -0.2123
   43MOL   H82836192   5.677   3.966   4.000  0.5156  0.9533 -0.3994
   43MOL   H82936193   5.900   4.083   4.083  0.7458 -0.7063 -1.3946
   43MOL   H83036194   5.943   4.065   3.904  1.8943 -2.0377  1.6311
   43MOL   H83136195   5.721   4.228   4.009  0.3687  0.2820 -0.9436
   43MOL   H83236196   5.742   4.208   3.838  0.5446  0.2935 -0.1822
   43MOL   H83336197   5.944   4.350   4.019  1.9617 -1.5281 -0.5267
   43MOL   H83436198   5.959   4.329   3.854 -0.6373 -1.4080 -0.0240
   43MOL   H83536199   5.761   4.459   3.796 -0.6839 -0.5207  0.6369
   43MOL   H83636200   5.886   4.535   3.887 -1.3105  2.2086 -0.2735
   43MOL   H83736201   5.612   4.452   4.001 -1.3340  2.0292 -2.8248
   43MOL   H83836202   5.759   4.486   4.101  0.5290  0.3695  1.0102
   43MOL   H83936203   5.621   4.687   3.914 -2.1532 -1.3178  0.3098
   43MOL   H84036204   5.594   4.682   4.087 -0.8615  1.8599 -1.2444
   43MOL   H84136205   5.755   4.716   4.030  1.8099 -2.1699 -0.0786
   43MOL   H84236206   6.107   3.328   4.124 -0.3195  0.4878  0.4773
   44MOL     C136207   0.780   1.278   4.717 -0.6251  0.1918  0.2207
   44MOL     C236208   0.919   1.261   4.786 -0.1730 -0.3760 -0.3899
   44MOL     C336209   0.931   1.119   4.840 -0.3455 -0.9045  0.2648
   44MOL     C436210   0.993   1.127   4.981  0.6966 -0.1510  0.3940
   44MOL     C536211   1.026   0.989   5.049  0.1524 -0.2149 -0.1286
   44MOL     C636212   1.009   1.000   5.205 -0.1039  0.9130  0.3247
   44MOL     C736213   1.004   0.868   5.283 -0.5062 -0.5485  0.0646
   44MOL     C836214   1.138   0.791   5.264 -0.0415  0.1964 -0.2664
   44MOL     C936215   1.125   0.644   5.306 -1.2321  0.0462 -0.5407
   44MOL    C1036216   1.112   0.622   5.459 -0.1818 -0.0324  0.4313
   44MOL    C1136217   1.117   0.473   5.502 -0.5059  0.7787 -0.2535
   44MOL    C1236218   1.107   0.446   5.650 -0.2981 -0.4006 -0.3699
   44MOL    C1336219   1.152   0.305   5.682  0.2621  0.1124 -0.2730
   44MOL    C1436220   1.113   0.258   5.826  0.3237 -0.3104  0.1351
   44MOL    H1536221   0.699   1.258   4.787 -1.0123 -0.6057 -0.4540
   44MOL    H1636222   0.768   1.207   4.636  2.9983  0.2288 -0.4484
   44MOL    H1736223   0.925   1.329   4.871  0.6994 -0.3753 -0.4412
   44MOL    H1836224   0.835   1.076   4.870  0.1888 -2.3869 -0.1232
   44MOL    H1936225   0.980   1.047   4.775  0.5243  1.8493 -2.2321
   44MOL    H2036226   0.915   1.180   5.035 -0.0836 -0.9219  0.0221
   44MOL    H2136227   1.078   1.195   4.991 -0.1535  0.8825  0.7242
   44MOL    H2236228   1.116   0.934   5.023 -0.4990 -0.4431 -1.9903
   44MOL    H2336229   0.955   0.916   5.009  0.5907 -1.5452  1.4406
   44MOL    H2436230   0.912   1.047   5.223  0.3014  0.6077  3.5290
   44MOL    H2536231   1.082   1.072   5.242  0.8943  0.4215 -0.6364
   44MOL    H2636232   0.990   0.895   5.387  0.7911  0.9651 -0.1279
   44MOL    H2736233   0.914   0.810   5.266  0.1818 -1.2284 -1.3732
   44MOL    H2836234   1.216   0.844   5.319 -0.4342 -0.7923  1.2784
   44MOL    H2936235   1.171   0.792   5.160 -1.3274  1.9757 -0.6821
   44MOL    H3036236   1.038   0.603   5.256 -0.5472 -1.5712 -0.4388
   44MOL    H3136237   1.212   0.582   5.283  0.6218  1.7170  1.5985
   44MOL    H3236238   1.189   0.665   5.522 -0.7490 -0.7356  1.6240
   44MOL    H3336239   1.014   0.665   5.483 -1.5221 -2.0117 -1.3107
   44MOL    H3436240   1.034   0.427   5.450 -1.3199  1.1910  0.6571
   44MOL    H3536241   1.208   0.427   5.463 -0.8633 -2.0230  2.0288
   44MOL    H3636242   1.003   0.465   5.672 -0.9321 -0.3406 -3.1606
   44MOL    H3736243   1.153   0.522   5.713  0.1889 -0.1431 -1.0296
   44MOL    H3836244   1.107   0.234   5.612 -0.0523 -0.0046  0.0472
   44MOL    H3936245   1.259   0.293   5.670  0.4287  1.2193  0.0879
   44MOL    H4036246   1.028   0.317   5.862 -0.1056 -1.5480  1.1660
   44MOL    H4136247   1.061   0.164   5.843 -1.6230  0.3210 -2.1366
   44MOL    H4236248   1.200   0.251   5.893 -0.6319 -1.2378  1.3048
   44MOL    H4336249   0.763   1.379   4.680 -0.9232 -0.1071 -0.4619
   44MOL    C4436250   1.048   1.298   4.704 -0.2377 -0.4247 -0.0571
   44MOL    C4536251   1.045   1.437   4.633  0.0772 -1.0131 -0.0024
   44MOL    C4636252   1.021   1.560   4.727 -0.0068 -0.3350  0.7866
   44MOL    C4736253   1.141   1.585   4.829  0.3241  0.0263 -0.1035
   44MOL    C4836254   1.121   1.726   4.894  1.1184  0.4751 -0.0046
   44MOL    C4936255   1.223   1.758   4.999  0.1064 -0.1661  0.2288
   44MOL    C5036256   1.222   1.889   5.079 -0.0256  0.3110  0.2488
   44MOL    C5136257   1.334   1.907   5.180 -0.0141 -1.0106 -0.5890
   44MOL    C5236258   1.340   1.812   5.300  0.5348  0.5843 -0.1702
   44MOL    C5336259   1.462   1.853   5.380 -0.6346  0.0592  0.3847
   44MOL    C5436260   1.502   1.754   5.497 -0.5758 -0.0323 -0.6061
   44MOL    C5536261   1.637   1.807   5.551 -0.1458  0.1138  0.2719
   44MOL    C5636262   1.693   1.725   5.664 -0.2511  0.2070 -0.1183
   44MOL    C5736263   1.796   1.805   5.741 -0.3759  0.0176  1.1063
   44MOL    H5836264   1.145   1.295   4.753  1.1522  1.9122 -2.5661
   44MOL    H5936265   1.059   1.221   4.628  2.7781 -2.4796  2.3678
   44MOL    H6036266   1.147   1.441   4.595 -0.5675  0.4928 -1.6914
   44MOL    H6136267   1.009   1.651   4.670 -1.3778  0.7243  2.7064
   44MOL    H6236268   0.934   1.549   4.792 -0.2518 -2.6061  0.1082
   44MOL    H6336269   1.237   1.578   4.778  0.9917  0.1329  1.0959
   44MOL    H6436270   1.152   1.507   4.904 -1.7586  0.9663  1.2395
   44MOL    H6536271   1.027   1.728   4.950  0.1226 -2.0335 -1.5409
   44MOL    H6636272   1.099   1.804   4.821  3.0415  2.1078  1.1189
   44MOL    H6736273   1.207   1.682   5.076 -0.3112 -2.7370 -2.3081
   44MOL    H6836274   1.320   1.756   4.949 -0.2425  2.0308 -0.5868
   44MOL    H6936275   1.233   1.966   5.002 -1.0103 -0.3077 -0.5115
   44MOL    H7036276   1.124   1.900   5.125 -0.9461  1.4710 -1.9132
   44MOL    H7136277   1.334   2.009   5.218 -0.7122 -1.1125 -0.3036
   44MOL    H7236278   1.424   1.899   5.119  0.8765 -2.0097  0.8337
   44MOL    H7336279   1.253   1.817   5.366 -0.9529 -0.2726 -2.0149
   44MOL    H7436280   1.355   1.707   5.276  3.0750  0.6064  1.1427
   44MOL    H7536281   1.446   1.953   5.420 -1.0828 -0.4740  1.5453
   44MOL    H7636282   1.547   1.854   5.312 -0.9881  2.3322 -0.0586
   44MOL    H7736283   1.515   1.651   5.462 -1.7681 -0.9398  1.5065
   44MOL    H7836284   1.418   1.748   5.567  0.8645  0.8901  1.2645
   44MOL    H7936285   1.707   1.808   5.467  0.6197  1.6338  0.9180
   44MOL    H8036286   1.621   1.906   5.592 -0.2702  1.0443 -1.9585
   44MOL    H8136287   1.737   1.629   5.634 -0.2566 -0.0751  0.7656
   44MOL    H8236288   1.615   1.681   5.727 -0.2307 -0.5604 -0.6156
   44MOL    H8336289   1.749   1.890   5.791  1.1585  1.1829  0.6244
   44MOL    H8436290   1.868   1.852   5.673  1.1966  0.1385  2.7919
   44MOL    H8536291   1.860   1.752   5.812  0.0623  1.7436  2.0481
   44MOL    C8636292   0.954   1.447   4.513  0.1563  0.8130 -0.2206
   44MOL    C8736293   1.016   1.462   4.372 -0.5877  0.2682  0.9884
   44MOL    C8836294   0.933   1.545   4.270 -0.7029  0.4938 -0.3691
   44MOL    C8936295   0.914   1.692   4.297  0.0150  0.0924  0.1267
   44MOL    C9036296   0.864   1.762   4.168  1.0581 -0.3121  0.5519
   44MOL    C9136297   0.849   1.913   4.190  0.1259 -0.2132  0.2006
   44MOL    C9236298   0.753   1.986   4.093 -0.2198 -0.2126 -0.6977
   44MOL    C9336299   0.801   2.000   3.949 -0.3658 -0.4620 -0.1645
   44MOL    C9436300   0.716   1.921   3.844  0.1656 -0.1513 -0.6113
   44MOL    C9536301   0.753   1.961   3.699 -0.0979  0.7175 -0.4748
   44MOL    C9636302   0.887   1.907   3.658  0.4569 -0.2079  0.7192
   44MOL    C9736303   0.906   1.894   3.503  0.5658  0.2044  0.4190
   44MOL    C9836304   1.047   1.866   3.447 -0.4990 -0.2587  0.0806
   44MOL    C9936305   1.051   1.835   3.293 -1.0224 -0.2343  0.0492
   44MOL   H10036306   0.888   1.360   4.506 -1.1838  1.2202  5.3026
   44MOL   H10136307   0.890   1.534   4.527  1.1123  1.2227  1.7763
   44MOL   H10236308   1.106   1.523   4.388  1.0205 -1.8304  0.1334
   44MOL   H10336309   0.977   1.542   4.171  1.3035 -2.5942  0.5681
   44MOL   H10436310   0.837   1.497   4.253  0.8797 -3.3295  1.0805
   44MOL   H10536311   0.831   1.707   4.366 -1.0895 -1.8956 -0.7381
   44MOL   H10636312   1.010   1.735   4.325 -0.8985  2.0149  0.3941
   44MOL   H10736313   0.772   1.720   4.129  2.6346 -2.7085 -0.7388
   44MOL   H10836314   0.931   1.740   4.085  0.3488  2.5326 -0.8316
   44MOL   H10936315   0.945   1.963   4.192  1.0475 -1.9394 -0.0683
   44MOL   H11036316   0.792   1.918   4.283 -1.3720 -0.9770 -0.6582
   44MOL   H11136317   0.660   1.930   4.105  0.5405 -1.5298 -0.8679
   44MOL   H11236318   0.722   2.085   4.125 -1.2157 -0.3855 -1.0924
   44MOL   H11336319   0.905   1.969   3.940  0.0903  1.0782 -0.4358
   44MOL   H11436320   0.795   2.108   3.934 -1.3837 -0.6743 -1.3919
   44MOL   H11536321   0.736   1.815   3.859  0.5188 -0.1222 -0.8478
   44MOL   H11636322   0.612   1.946   3.864  0.1547  0.4509 -1.3862
   44MOL   H11736323   0.753   2.069   3.686  3.6088  0.6882 -1.1523
   44MOL   H11836324   0.669   1.925   3.640  0.4047 -0.9690 -0.1960
   44MOL   H11936325   0.968   1.969   3.697  0.6565  0.0397 -0.0844
   44MOL   H12036326   0.909   1.810   3.703  1.2305  0.1757  1.1666
   44MOL   H12136327   0.840   1.816   3.466  1.4963 -0.2746 -0.2217
   44MOL   H12236328   0.874   1.982   3.447  2.3930  1.9291  1.9725
   44MOL   H12336329   1.089   1.774   3.487  0.0013  0.6735  1.7292
   44MOL   H12436330   1.115   1.944   3.482 -0.4234 -1.1465  1.9240
   44MOL   H12536331   1.014   1.914   3.228 -3.1387 -1.4851 -0.3194
   44MOL   H12636332   1.147   1.799   3.254 -1.0116 -0.4142  0.2418
   44MOL   H12736333   0.983   1.753   3.272 -0.2090 -0.8565 -0.1724
   44MOL   C12836334   1.059   1.326   4.320 -0.2020  0.0691  0.2377
   44MOL   C12936335   1.129   1.327   4.184 -0.0209  0.2407  0.6094
   44MOL   C13036336   1.263   1.409   4.201 -0.6179  0.1242  0.2808
   44MOL   C13136337   1.362   1.407   4.076 -0.5092  0.2620 -0.3501
   44MOL   C13236338   1.501   1.480   4.105 -0.3427 -0.2713 -0.5547
   44MOL   C13336339   1.585   1.481   3.981 -0.7157 -0.8288 -0.0122
   44MOL   C13436340   1.726   1.539   4.007 -0.0621 -0.6568  0.0473
   44MOL   C13536341   1.814   1.447   4.090  0.0383 -0.1021  0.3233
   44MOL   C13636342   1.938   1.524   4.138  0.0731 -0.1190  0.0331
   44MOL   C13736343   2.025   1.434   4.222  0.3404 -0.1389  0.2564
   44MOL   C13836344   2.134   1.520   4.298  0.1795 -0.6362 -0.1560
   44MOL   C13936345   2.237   1.433   4.378 -0.1210 -0.0874  0.0068
   44MOL   C14036346   2.336   1.512   4.465  0.0114  0.4341  0.3663
   44MOL   C14136347   2.427   1.434   4.566  0.9158  0.8535 -0.1939
   44MOL   H14236348   1.127   1.281   4.392 -0.7252 -0.9443  0.0973
   44MOL   H14336349   0.967   1.267   4.319 -1.5346  2.0552  1.0674
   44MOL   H14436350   1.078   1.385   4.107 -1.3756  0.0941  1.3754
   44MOL   H14536351   1.228   1.510   4.219  0.0377  0.4767 -0.4054
   44MOL   H14636352   1.318   1.389   4.292  0.1017 -1.0644 -0.4000
   44MOL   H14736353   1.392   1.305   4.052 -0.9102  0.5188 -2.0346
   44MOL   H14836354   1.319   1.454   3.987  1.8122  1.2282 -1.0059
   44MOL   H14936355   1.488   1.586   4.125 -1.3942 -0.4220 -0.4301
   44MOL   H15036356   1.552   1.428   4.186  0.0080  1.8732  0.6277
   44MOL   H15136357   1.588   1.383   3.933 -1.6320 -1.3619  1.0041
   44MOL   H15236358   1.531   1.542   3.909  0.4156  1.5406  1.0567
   44MOL   H15336359   1.770   1.559   3.909  0.0239 -1.8053 -0.1547
   44MOL   H15436360   1.714   1.642   4.041 -1.4314 -1.1373  1.0541
   44MOL   H15536361   1.761   1.416   4.181 -1.1057 -0.3543 -0.4242
   44MOL   H15636362   1.839   1.362   4.028  0.3889 -1.3632  2.1567
   44MOL   H15736363   1.990   1.571   4.055 -1.9055  0.5360 -0.8594
   44MOL   H15836364   1.908   1.604   4.206  2.6874  4.4127 -3.8040
   44MOL   H15936365   2.073   1.357   4.161  1.4680  0.1924  0.7157
   44MOL   H16036366   1.961   1.379   4.290  0.3427  1.2347  1.3682
   44MOL   H16136367   2.188   1.582   4.226  0.7902  0.8058  1.5125
   44MOL   H16236368   2.096   1.594   4.368 -0.8030 -0.3491 -0.9882
   44MOL   H16336369   2.183   1.363   4.442  0.4307 -0.8839 -0.4056
   44MOL   H16436370   2.292   1.390   4.294 -1.5452  1.6042 -1.8523
   44MOL   H16536371   2.405   1.564   4.397  0.3813 -1.2911 -0.6006
   44MOL   H16636372   2.282   1.595   4.512  1.5638  1.0859  1.0482
   44MOL   H16736373   2.505   1.506   4.591  1.3372 -0.0216  1.0496
   44MOL   H16836374   2.379   1.401   4.658  0.0260 -0.2973 -1.0598
   44MOL   H16936375   2.474   1.353   4.511  2.6349  1.6665  0.0496
   44MOL   C17036376   1.148   1.178   4.137 -0.3501  0.0366  0.0713
   44MOL   C17136377   1.080   1.141   4.003 -0.0001  0.1432 -0.1260
   44MOL   C17236378   0.931   1.163   4.008 -0.4768 -0.4580  0.3962
   44MOL   C17336379   0.847   1.045   4.051  0.5255  0.4288 -0.3606
   44MOL   C17436380   0.697   1.077   4.062 -0.0718 -1.0352  0.1942
   44MOL   C17536381   0.658   1.132   4.205  0.5515  0.1333  0.5356
   44MOL   C17636382   0.507   1.153   4.216  0.2587 -0.1426  0.2697
   44MOL   C17736383   0.462   1.180   4.360 -0.5343  0.5905  0.6457
   44MOL   C17836384   0.310   1.207   4.366 -0.4058 -0.0708 -0.1651
   44MOL   C17936385   0.255   1.257   4.506 -0.1183 -0.2405  0.8263
   44MOL   C18036386   0.105   1.300   4.503  0.1176 -1.2040  0.6218
   44MOL   C18136387   0.029   1.259   4.630 -0.0053 -0.4390  0.0855
   44MOL   C18236388   7.597   1.346   4.646 -0.4443 -0.4678  0.1459
   44MOL   C18336389   7.490   1.345   4.534 -0.1587  0.4250  0.7022
   44MOL   H18436390   1.099   1.108   4.205 -1.7196 -1.0812 -2.0244
   44MOL   H18536391   1.253   1.149   4.142 -0.2348  0.7251  2.3113
   44MOL   H18636392   1.101   1.034   3.997  0.1264 -0.1909  4.4937
   44MOL   H18736393   0.899   1.252   4.062  0.0757  1.1043 -1.7679
   44MOL   H18836394   0.902   1.189   3.906 -0.7625 -1.1326  0.3043
   44MOL   H18936395   0.868   0.962   3.984  1.7331  0.9179 -0.5858
   44MOL   H19036396   0.884   1.003   4.144 -0.4156  0.9544  0.2625
   44MOL   H19136397   0.650   1.138   3.984  0.7820  1.3307  1.4694
   44MOL   H19236398   0.637   0.986   4.060 -1.3519 -0.1976 -1.0380
   44MOL   H19336399   0.716   1.214   4.248 -1.4346  1.8805 -0.0675
   44MOL   H19436400   0.679   1.050   4.275  0.5335 -0.2321  0.1141
   44MOL   H19536401   0.442   1.075   4.176  0.2780 -0.6859  1.2889
   44MOL   H19636402   0.489   1.250   4.169 -0.6613  0.0933  1.0966
   44MOL   H19736403   0.525   1.255   4.407  0.6637 -1.5710  2.6197
   44MOL   H19836404   0.483   1.097   4.428  1.0520 -0.8708 -1.5551
   44MOL   H19936405   0.248   1.124   4.332 -1.8792  0.4228  1.2813
   44MOL   H20036406   0.275   1.277   4.290 -2.4164 -0.9830 -0.1099
   44MOL   H20136407   0.311   1.342   4.545  0.3442  0.1025 -0.5651
   44MOL   H20236408   0.271   1.184   4.586 -1.7337  0.4506  1.8122
   44MOL   H20336409   0.064   1.257   4.412  2.0170  0.3461 -1.0187
   44MOL   H20436410   0.100   1.409   4.507  0.5173 -1.1512 -0.2597
   44MOL   H20536411   7.695   1.154   4.636  0.3995 -0.4101  2.8734
   44MOL   H20636412   0.085   1.281   4.721  1.2482  0.7253 -0.9379
   44MOL   H20736413   7.557   1.329   4.746 -0.3322  0.5103  0.3664
   44MOL   H20836414   7.642   1.445   4.657  0.9521 -0.9705 -0.9178
   44MOL   H20936415   7.528   1.394   4.444 -1.5496  2.2615  1.0854
   44MOL   H21036416   7.401   1.402   4.560 -0.8885 -0.7062  0.7140
   44MOL   H21136417   7.466   1.246   4.496  1.1893 -0.6242  2.4972
   44MOL   C21236418   1.139   1.214   3.881 -0.5950 -0.6706 -0.2861
   44MOL   C21336419   1.103   1.144   3.742  0.0470 -0.0686  0.3647
   44MOL   C21436420   1.130   1.250   3.629  0.4714  0.2503 -0.2855
   44MOL   C21536421   1.053   1.373   3.659 -0.1402  0.4080 -0.5773
   44MOL   C21636422   0.970   1.434   3.547  0.8591  0.5789 -0.0300
   44MOL   C21736423   0.832   1.363   3.534 -0.7037 -0.3077  0.2990
   44MOL   C21836424   0.730   1.398   3.638 -0.0060 -0.1157 -0.0252
   44MOL   C21936425   0.597   1.326   3.613  0.8232  0.4353  0.2909
   44MOL   C22036426   0.497   1.341   3.729 -0.2249 -0.3448  0.3104
   44MOL   C22136427   0.367   1.263   3.694 -0.1203 -0.8032  0.3147
   44MOL   C22236428   0.276   1.270   3.811  0.0275 -0.5134 -0.8096
   44MOL   C22336429   0.140   1.204   3.797  0.0201  0.5223 -0.6438
   44MOL   C22436430   0.061   1.174   3.931  0.3379 -0.0123 -0.3231
   44MOL   C22536431   7.695   1.295   3.996 -0.5992  0.1888 -0.2939
   44MOL   H22636432   1.247   1.198   3.889 -0.1327  2.1716 -0.2465
   44MOL   H22736433   1.131   1.322   3.895  1.5504 -0.9572  3.9148
   44MOL   H22836434   0.998   1.120   3.727 -0.2016  0.7373  0.8086
   44MOL   H22936435   1.237   1.270   3.621  0.7405 -0.8875  0.3006
   44MOL   H23036436   1.110   1.214   3.528 -4.6182 -0.3752  0.8037
   44MOL   H23136437   1.121   1.447   3.702 -0.8887 -0.1630  1.6919
   44MOL   H23236438   0.981   1.359   3.740 -0.2737 -0.9134 -0.9263
   44MOL   H23336439   1.023   1.433   3.452  2.0291 -2.4617  0.5829
   44MOL   H23436440   0.963   1.540   3.570 -0.9372  0.9005 -2.0026
   44MOL   H23536441   0.846   1.256   3.518  2.0649 -0.1823  1.6218
   44MOL   H23636442   0.789   1.397   3.440  0.2991 -0.0060 -0.0564
   44MOL   H23736443   0.780   1.374   3.731  0.5955 -1.4680 -0.6867
   44MOL   H23836444   0.715   1.503   3.612 -0.5653 -0.2200 -0.1240
   44MOL   H23936445   0.553   1.358   3.518 -1.1106  1.0423  1.3546
   44MOL   H24036446   0.623   1.221   3.602  2.0356  0.9055 -1.5981
   44MOL   H24136447   0.489   1.446   3.755 -1.9102  0.2144 -2.2703
   44MOL   H24236448   0.551   1.297   3.813 -3.4272 -0.3986  2.4534
   44MOL   H24336449   0.321   1.310   3.607 -0.0147 -0.0898  0.6407
   44MOL   H24436450   0.388   1.157   3.677 -0.2256 -0.7587 -0.1154
   44MOL   H24536451   0.259   1.374   3.839  0.6538 -0.8118  0.7019
   44MOL   H24636452   0.329   1.229   3.897 -2.0665  1.1504  1.3614
   44MOL   H24736453   0.145   1.111   3.740 -2.5298  0.5828 -1.0506
   44MOL   H24836454   0.069   1.271   3.748 -1.2527 -0.7124 -0.5335
   44MOL   H24936455   0.125   1.143   4.013 -0.6986 -1.3026  0.0211
   44MOL   H25036456   7.676   1.100   3.925  1.0045 -0.7546 -0.2672
   44MOL   H25136457   0.079   1.369   3.988 -2.4250  2.2259  0.2592
   44MOL   H25236458   7.603   1.332   3.951 -0.7105  0.8430  0.4735
   44MOL   H25336459   7.676   1.275   4.101 -2.1036  0.3854 -0.5205
   44MOL   C25436460   1.166   1.003   3.709  0.1427 -0.6655 -0.0246
   44MOL   C25536461   1.322   1.007   3.702  0.0052 -0.3474 -0.8857
   44MOL   C25636462   1.398   0.960   3.825 -0.1292 -0.6552 -0.8317
   44MOL   C25736463   1.508   1.054   3.875 -0.3478 -0.5891  0.1054
   44MOL   C25836464   1.563   1.012   4.008 -0.1586 -0.3333 -0.0009
   44MOL   C25936465   1.656   1.108   4.076  0.4154 -0.2859 -0.1825
   44MOL   C26036466   1.727   1.044   4.188 -0.0443  0.1033  0.9944
   44MOL   C26136467   1.837   1.110   4.259 -1.1387 -0.3247 -0.0288
   44MOL   C26236468   1.895   1.026   4.367 -1.0345 -0.1264 -0.6800
   44MOL   C26336469   2.008   1.102   4.441  0.1057 -0.2180  0.1754
   44MOL   C26436470   2.095   0.996   4.513 -0.2676 -0.0248 -0.7225
   44MOL   C26536471   2.206   1.060   4.592 -0.2102 -0.9137  0.0368
   44MOL   C26636472   2.273   0.964   4.691 -0.4729 -0.4533 -0.0677
   44MOL   C26736473   2.372   1.034   4.784  0.2060  0.1966 -0.1138
   44MOL   H26836474   1.126   0.973   3.613 -3.0708 -0.0274  1.0331
   44MOL   H26936475   1.133   0.924   3.777 -0.9904 -0.1883 -0.0034
   44MOL   H27036476   1.354   1.111   3.706  0.4441 -0.4937 -0.4166
   44MOL   H27136477   1.433   0.857   3.818  0.2091 -0.6395  0.3804
   44MOL   H27236478   1.335   0.949   3.914  2.7232  0.7724  1.4699
   44MOL   H27336479   1.477   1.159   3.870  0.0532 -0.4198  1.1071
   44MOL   H27436480   1.584   1.046   3.797  0.2900  0.7734  0.5755
   44MOL   H27536481   1.620   0.920   3.998  0.6362  0.3045 -1.4330
   44MOL   H27636482   1.478   1.001   4.075 -0.1338  0.0555  0.0918
   44MOL   H27736483   1.606   1.198   4.112  0.9009 -0.1607  0.1737
   44MOL   H27836484   1.733   1.125   4.001  0.3912  1.4927  0.1837
   44MOL   H27936485   1.651   1.034   4.265 -1.3408  1.8137 -0.0164
   44MOL   H28036486   1.757   0.940   4.179 -1.8406 -0.5834  2.8269
   44MOL   H28136487   1.803   1.210   4.289 -0.0735  0.0257  0.0078
   44MOL   H28236488   1.919   1.132   4.191  0.5328 -0.7325  1.8022
   44MOL   H28336489   1.821   1.008   4.445  0.6432 -0.6060  0.8390
   44MOL   H28436490   1.920   0.925   4.334 -2.4086 -0.4610 -0.7406
   44MOL   H28536491   1.971   1.178   4.510 -0.1426 -0.0554 -0.1372
   44MOL   H28636492   2.061   1.157   4.363  1.3400 -2.0791 -0.3542
   44MOL   H28736493   2.143   0.925   4.446 -1.0367 -0.5125 -0.7645
   44MOL   H28836494   2.030   0.938   4.578  1.1841  0.1728  0.9379
   44MOL   H28936495   2.282   1.089   4.519 -0.9915 -1.2122 -0.9085
   44MOL   H29036496   2.168   1.148   4.644 -0.6312 -1.3362  0.4454
   44MOL   H29136497   2.191   0.916   4.744 -0.0535  0.2961  1.2568
   44MOL   H29236498   2.341   0.890   4.649 -2.2607 -3.0452  1.4368
   44MOL   H29336499   2.449   1.085   4.726 -0.4522 -0.0550 -1.2367
   44MOL   H29436500   2.427   0.967   4.850 -0.1006  1.2827  1.2554
   44MOL   H29536501   2.324   1.117   4.836 -2.6040  0.0743 -2.3791
   44MOL   C29636502   1.380   0.936   3.577 -0.4584  0.1276 -1.4578
   44MOL   C29736503   1.390   1.032   3.458 -0.6315  0.5525  0.5485
   44MOL   C29836504   1.482   1.150   3.477 -0.7363 -0.3217  0.2093
   44MOL   C29936505   1.635   1.099   3.507 -0.3068 -0.2431 -0.3213
   44MOL   C30036506   1.716   1.202   3.580  0.0300 -0.1477 -0.4735
   44MOL   C30136507   1.764   1.320   3.502 -0.1246  0.2960  0.1226
   44MOL   C30236508   1.830   1.427   3.597 -0.6884 -0.2212 -0.2497
   44MOL   C30336509   1.966   1.391   3.648 -0.3213  0.6388 -0.2120
   44MOL   C30436510   2.024   1.493   3.743  0.2041  0.3270 -0.5312
   44MOL   C30536511   2.178   1.459   3.759 -0.2886  0.0238 -0.1946
   44MOL   C30636512   2.237   1.542   3.867 -0.1811  0.1210 -0.4477
   44MOL   C30736513   2.392   1.533   3.873 -0.0218 -0.2118  0.0444
   44MOL   C30836514   2.430   1.638   3.980 -0.2955  0.7162 -0.5577
   44MOL   C30936515   2.576   1.619   4.023 -0.1287  0.1997  0.5390
   44MOL   H31036516   1.308   0.859   3.551 -0.8369  0.1250 -0.4225
   44MOL   H31136517   1.479   0.889   3.586  0.6020  2.6862  0.7551
   44MOL   H31236518   1.290   1.075   3.453 -0.2423  1.4226  0.2371
   44MOL   H31336519   1.447   1.228   3.545  0.9416  1.4758 -0.9501
   44MOL   H31436520   1.494   1.218   3.393 -0.5599  1.7685  1.8921
   44MOL   H31536521   1.692   1.081   3.416 -2.2138 -1.0114 -1.3931
   44MOL   H31636522   1.643   1.010   3.570  0.8109 -1.0634 -1.6009
   44MOL   H31736523   1.667   1.231   3.673  0.3091 -0.3019 -0.2773
   44MOL   H31836524   1.801   1.153   3.628 -1.4417 -1.5533  0.7317
   44MOL   H31936525   1.687   1.379   3.453 -0.4402 -1.7043 -1.8487
   44MOL   H32036526   1.826   1.292   3.417  0.5843  1.2878  0.2984
   44MOL   H32136527   1.846   1.519   3.541  1.0013 -0.5206 -0.2784
   44MOL   H32236528   1.764   1.445   3.682 -1.1249 -1.4457 -0.3076
   44MOL   H32336529   2.033   1.383   3.562 -1.5147  0.5334 -1.1380
   44MOL   H32436530   1.975   1.290   3.689 -0.2852  0.5745 -0.3788
   44MOL   H32536531   2.015   1.590   3.694 -1.2105  0.7820  0.6008
   44MOL   H32636532   1.967   1.502   3.835 -0.8475 -0.3357 -1.1079
   44MOL   H32736533   2.226   1.473   3.662  0.2370 -0.3568  0.0112
   44MOL   H32836534   2.188   1.351   3.772 -0.5420  0.3265  2.8387
   44MOL   H32936535   2.199   1.516   3.966 -0.6120  1.6533 -0.1997
   44MOL   H33036536   2.205   1.645   3.852  0.3100  0.7028  2.2114
   44MOL   H33136537   2.437   1.557   3.777  1.6574 -0.6155  0.7086
   44MOL   H33236538   2.427   1.433   3.900 -0.1445 -0.6877 -1.5203
   44MOL   H33336539   2.372   1.609   4.067  2.5518  0.0822  1.2202
   44MOL   H33436540   2.424   1.742   3.947  1.3963  1.4422  1.3407
   44MOL   H33536541   2.599   1.524   4.071 -0.8378 -0.4352 -0.3544
   44MOL   H33636542   2.633   1.628   3.930  1.0541 -2.1202  1.0258
   44MOL   H33736543   2.611   1.693   4.095 -0.8452  2.1327 -1.0337
   44MOL   C33836544   1.414   0.968   3.318  0.4243  0.1741 -0.3507
   44MOL   C33936545   1.299   0.893   3.244 -0.7232  0.2849  0.1910
   44MOL   C34036546   1.185   0.994   3.212  0.3299 -0.1253  0.1010
   44MOL   C34136547   1.040   0.936   3.224  0.6142 -0.0016  0.2051
   44MOL   C34236548   0.933   0.990   3.136 -0.3850  0.0931  0.5280
   44MOL   C34336549   0.786   0.958   3.164  0.1121  1.0128 -0.1839
   44MOL   C34436550   0.701   1.015   3.059  1.1052 -0.4063 -0.4101
   44MOL   C34536551   0.553   1.005   3.081  0.2985  0.3504  0.6675
   44MOL   C34636552   0.471   1.033   2.948  0.4797 -0.8396  0.2487
   44MOL   C34736553   0.477   1.184   2.913 -0.5053 -0.2440  0.2455
   44MOL   C34836554   0.360   1.230   2.822  0.2156 -0.2900 -0.1063
   44MOL   C34936555   0.354   1.370   2.764 -0.3810 -0.8561  0.6337
   44MOL   C35036556   0.222   1.404   2.700  0.3451 -0.1531  0.4002
   44MOL   C35136557   0.108   1.438   2.799 -0.7565 -0.6710 -0.6860
   44MOL   H35236558   1.444   1.047   3.249 -0.0489 -1.2427 -2.2154
   44MOL   H35336559   1.504   0.910   3.335  1.4026  1.7246 -0.0765
   44MOL   H35436560   1.259   0.818   3.313  0.9716 -1.9666 -1.2272
   44MOL   H35536561   1.180   1.086   3.270 -2.5745 -0.7770  1.0115
   44MOL   H35636562   1.193   1.019   3.106 -1.3338  0.2477  0.0397
   44MOL   H35736563   1.004   0.953   3.325 -2.5570 -2.8746 -0.3314
   44MOL   H35836564   1.031   0.827   3.217 -0.4742  0.1740 -1.7236
   44MOL   H35936565   0.953   0.962   3.032  0.6191 -1.0952  1.0277
   44MOL   H36036566   0.938   1.099   3.136  0.8188  0.1358 -3.2905
   44MOL   H36136567   0.772   0.851   3.183 -0.5485  1.5867  2.8244
   44MOL   H36236568   0.753   0.999   3.259 -0.3849  2.5408 -0.9971
   44MOL   H36336569   0.722   1.120   3.042  1.2229 -0.2160  0.8443
   44MOL   H36436570   0.727   0.964   2.966 -0.8278 -5.0079  1.4206
   44MOL   H36536571   0.532   0.899   3.094  1.6345 -0.1490 -1.1414
   44MOL   H36636572   0.513   1.058   3.168 -0.9932  0.3857  0.0627
   44MOL   H36736573   0.511   0.972   2.868  0.8063  1.0453 -1.0781
   44MOL   H36836574   0.367   1.002   2.954  0.5132 -0.6357  2.3905
   44MOL   H36936575   0.464   1.242   3.004  0.6454  0.7907 -0.2351
   44MOL   H37036576   0.578   1.202   2.877 -0.5695 -0.5676 -0.1050
   44MOL   H37136577   0.266   1.222   2.877 -0.1956 -1.1433 -0.9131
   44MOL   H37236578   0.350   1.156   2.743 -1.2170 -1.8758  1.5199
   44MOL   H37336579   0.430   1.384   2.688 -2.4544  1.3222 -1.1172
   44MOL   H37436580   0.377   1.445   2.840  0.9093 -1.4529  0.8376
   44MOL   H37536581   0.252   1.485   2.634  2.3940  0.0633  1.5702
   44MOL   H37636582   0.184   1.328   2.633  1.1065  1.0608 -1.4391
   44MOL   H37736583   0.078   1.345   2.846 -1.5484 -0.4496 -0.7559
   44MOL   H37836584   0.145   1.499   2.881 -0.7776 -0.5673 -0.7532
   44MOL   H37936585   0.018   1.490   2.765 -1.4953 -0.9184  0.8616
   44MOL   C38036586   1.346   0.824   3.117  0.3706 -0.7242  1.4234
   44MOL   C38136587   1.460   0.726   3.126  0.3573  0.0781  0.3255
   44MOL   C38236588   1.439   0.597   3.204 -0.3698 -0.4547  0.2876
   44MOL   C38336589   1.459   0.600   3.356  0.0594 -0.6410 -0.2321
   44MOL   C38436590   1.607   0.610   3.401  0.1729  0.9898  0.2294
   44MOL   C38536591   1.614   0.595   3.556 -0.4213 -0.6081  0.6612
   44MOL   C38636592   1.752   0.601   3.618  0.0466  0.2666  0.1335
   44MOL   C38736593   1.757   0.575   3.765  0.0794  0.7324 -0.5698
   44MOL   C38836594   1.908   0.566   3.809  0.2150  0.6340 -0.0370
   44MOL   C38936595   1.922   0.565   3.967 -0.6800 -0.0559 -0.4561
   44MOL   C39036596   2.073   0.588   4.005 -0.5266 -0.3455  0.3103
   44MOL   C39136597   2.098   0.618   4.154  0.1271 -0.9157  0.2240
   44MOL   C39236598   2.243   0.624   4.208 -0.5961 -0.5594 -0.1037
   44MOL   C39336599   2.243   0.638   4.360 -0.5239  0.7834 -0.6882
   44MOL   H39436600   1.383   0.898   3.047  0.6957  0.2602  2.6255
   44MOL   H39536601   1.259   0.793   3.059 -1.2590  1.9109  2.3591
   44MOL   H39636602   1.535   0.773   3.190 -1.7095  1.6617  1.6536
   44MOL   H39736603   1.491   0.509   3.165  0.2126 -0.0113  0.0510
   44MOL   H39836604   1.339   0.562   3.178 -0.8542  0.7707  0.4587
   44MOL   H39936605   1.401   0.522   3.406 -1.3329 -1.0490 -2.4339
   44MOL   H40036606   1.412   0.689   3.399 -0.2940 -1.9923  2.2750
   44MOL   H40136607   1.635   0.712   3.376 -0.1869  0.7851 -1.0061
   44MOL   H40236608   1.651   0.527   3.347  0.0861  2.7559 -2.6208
   44MOL   H40336609   1.562   0.501   3.576 -1.9048  0.0704  0.1036
   44MOL   H40436610   1.553   0.674   3.600 -0.0116 -0.7694  1.5161
   44MOL   H40536611   1.809   0.523   3.567  1.8662  0.6783  1.4632
   44MOL   H40636612   1.797   0.696   3.590 -0.2841  0.0088 -1.3100
   44MOL   H40736613   1.710   0.656   3.820 -0.0968 -2.3988  4.1618
   44MOL   H40836614   1.700   0.487   3.794  1.2426  0.3776  0.7152
   44MOL   H40936615   1.945   0.476   3.760 -1.2433 -0.2863  0.5395
   44MOL   H41036616   1.961   0.646   3.757  0.5239  0.1333 -0.4996
   44MOL   H41136617   1.883   0.472   4.009 -0.4931  0.1863  0.2730
   44MOL   H41236618   1.861   0.650   3.997  0.4999  1.6254 -2.6806
   44MOL   H41336619   2.131   0.500   3.977  0.4221  0.2054  0.5238
   44MOL   H41436620   2.131   0.663   3.951 -0.6605 -0.7375 -0.3873
   44MOL   H41536621   2.038   0.544   4.207 -1.9828 -0.7902 -1.8936
   44MOL   H41636622   2.035   0.706   4.170  0.1164 -0.7539 -0.6686
   44MOL   H41736623   2.299   0.538   4.170  0.1249 -0.6633  1.1606
   44MOL   H41836624   2.309   0.695   4.158  0.5435 -0.6833  1.1881
   44MOL   H41936625   2.171   0.711   4.395 -0.3215  1.1422 -1.0181
   44MOL   H42036626   2.339   0.649   4.410 -1.8257  1.3292  1.7494
   44MOL   H42136627   2.196   0.552   4.407  1.2578  0.6885  0.9774
   44MOL   C42236628   1.505   0.685   2.982 -0.0371  0.4230 -0.2878
   44MOL   C42336629   1.600   0.790   2.912 -0.2140  1.0434 -0.0112
   44MOL   C42436630   1.744   0.760   2.950  0.4040  0.4053  0.2208
   44MOL   C42536631   1.786   0.758   3.094 -0.2185 -0.0312 -0.0903
   44MOL   C42636632   1.932   0.721   3.121  0.6509 -0.5151  0.3085
   44MOL   C42736633   1.946   0.662   3.263 -0.3468  0.5334 -0.8988
   44MOL   C42836634   2.097   0.640   3.298  0.5290 -0.2583  0.3229
   44MOL   C42936635   2.096   0.588   3.444 -0.3054  0.3133 -0.6165
   44MOL   C43036636   2.240   0.576   3.491 -0.3771  0.0445 -0.2329
   44MOL   C43136637   2.257   0.520   3.630 -0.1547 -0.3676  0.1791
   44MOL   C43236638   2.403   0.470   3.644  0.4582 -0.1669 -0.7653
   44MOL   C43336639   2.429   0.424   3.792  0.3241 -0.6187 -0.1940
   44MOL   C43436640   2.567   0.364   3.814  0.6588 -0.7780 -0.6194
   44MOL   C43536641   2.601   0.244   3.714  0.8552 -1.3380  0.1014
   44MOL   H43636642   1.419   0.676   2.915  0.4431  0.4041 -0.9121
   44MOL   H43736643   1.546   0.585   2.970 -1.9185 -0.3995 -0.0534
   44MOL   H43836644   1.573   0.884   2.960 -2.8578 -0.1258  0.8955
   44MOL   H43936645   1.786   0.845   2.896 -2.1194  2.2982  1.1356
   44MOL   H44036646   1.787   0.670   2.905 -1.6731  0.3862 -1.8172
   44MOL   H44136647   1.755   0.854   3.135  2.0530  1.7202 -2.3717
   44MOL   H44236648   1.726   0.681   3.142 -0.7495  0.7610  0.5419
   44MOL   H44336649   2.007   0.799   3.108 -0.5390  0.0171 -3.9989
   44MOL   H44436650   1.959   0.647   3.046  0.4362  0.8816 -1.1737
   44MOL   H44536651   1.884   0.571   3.266  0.5642 -0.0454  0.7532
   44MOL   H44636652   1.906   0.727   3.340  0.3214  1.9826 -1.7606
   44MOL   H44736653   2.143   0.567   3.232 -0.2372  1.1829 -1.8435
   44MOL   H44836654   2.140   0.736   3.274  0.4860 -0.8703 -2.3012
   44MOL   H44936655   2.033   0.644   3.513 -0.3919  0.2496 -0.6439
   44MOL   H45036656   2.057   0.486   3.447  0.2387  0.1365  1.4390
   44MOL   H45136657   2.306   0.516   3.429  0.5506  1.4932 -0.6693
   44MOL   H45236658   2.291   0.671   3.480 -2.2402  0.7314 -3.7204
   44MOL   H45336659   2.228   0.595   3.703 -0.8496  0.9616 -1.4488
   44MOL   H45436660   2.190   0.434   3.635 -2.4198  1.3598  0.0842
   44MOL   H45536661   2.433   0.388   3.578 -0.5584 -0.6745 -0.6016
   44MOL   H45636662   2.464   0.554   3.613 -1.3652  1.6784  0.5343
   44MOL   H45736663   2.363   0.343   3.826  2.1032 -2.2075 -0.4403
   44MOL   H45836664   2.418   0.507   3.861  0.2390 -0.4458 -0.4147
   44MOL   H45936665   2.642   0.441   3.794  0.6548 -1.0164 -1.5797
   44MOL   H46036666   2.573   0.313   3.910 -0.2186  0.0890 -0.0956
   44MOL   H46136667   2.525   0.167   3.701  0.3475 -0.7898 -0.1700
   44MOL   H46236668   2.687   0.191   3.756  0.6678  0.9993  3.6312
   44MOL   H46336669   2.631   0.286   3.618  0.1271 -2.0389 -0.4311
   44MOL   C46436670   1.575   0.797   2.758 -0.1383 -0.0423  0.0082
   44MOL   C46536671   1.437   0.851   2.715 -0.3412 -0.7524 -0.3447
   44MOL   C46636672   1.429   1.007   2.743 -0.2921 -0.1332  0.4307
   44MOL   C46736673   1.303   1.077   2.686  0.0628 -1.0095  0.5655
   44MOL   C46836674   1.293   1.218   2.741 -0.3299  0.3217 -0.5530
   44MOL   C46936675   1.161   1.294   2.711  0.1981 -0.0405 -0.2637
   44MOL   C47036676   1.035   1.215   2.742  0.0075  0.8176  0.4346
   44MOL   C47136677   0.914   1.305   2.749  0.1563 -0.9661 -0.5343
   44MOL   C47236678   0.861   1.330   2.606  0.1956  0.1640 -0.0123
   44MOL   C47336679   0.767   1.446   2.619 -0.0940 -0.4575  0.2254
   44MOL   C47436680   0.711   1.495   2.488 -0.7082  0.1881 -0.5465
   44MOL   C47536681   0.610   1.604   2.527 -0.3005 -0.2085  0.0702
   44MOL   C47636682   0.525   1.647   2.410  0.2459 -0.1607  0.6831
   44MOL   C47736683   0.445   1.757   2.443 -0.3296 -0.3757  0.0276
   44MOL   H47836684   1.599   0.699   2.718  0.1048 -0.1135  0.3202
   44MOL   H47936685   1.644   0.868   2.711 -2.7433  2.4281 -0.1945
   44MOL   H48036686   1.352   0.815   2.772 -1.0995 -0.1564 -1.0872
   44MOL   H48136687   1.443   1.021   2.850 -0.4737 -2.0993  0.7364
   44MOL   H48236688   1.515   1.059   2.701  0.0688 -0.1228  1.1751
   44MOL   H48336689   1.215   1.028   2.726 -0.1407 -0.4143  0.8567
   44MOL   H48436690   1.305   1.080   2.577  2.2198  2.5562  0.6191
   44MOL   H48536691   1.382   1.272   2.708  0.1668 -0.0308  0.2103
   44MOL   H48636692   1.298   1.221   2.850  1.3791 -2.5923 -0.4876
   44MOL   H48736693   1.162   1.383   2.774  1.1592 -0.6014  0.5074
   44MOL   H48836694   1.149   1.326   2.607  0.4497 -0.5924 -0.4619
   44MOL   H48936695   1.023   1.140   2.664  0.6185 -0.0752  1.1691
   44MOL   H49036696   1.037   1.159   2.836  1.4434 -1.1916 -0.7634
   44MOL   H49136697   0.837   1.247   2.799 -0.3261  0.6726  0.6667
   44MOL   H49236698   0.935   1.395   2.806 -0.2752 -0.4771 -1.1449
   44MOL   H49336699   0.943   1.348   2.537  1.3207  1.0225  1.5104
   44MOL   H49436700   0.812   1.241   2.569 -0.6898  0.0624  1.3756
   44MOL   H49536701   0.681   1.414   2.679  0.6993  0.8706  2.1123
   44MOL   H49636702   0.813   1.527   2.676 -0.4077 -1.6206  2.1773
   44MOL   H49736703   0.789   1.540   2.426  0.6686 -0.6562  0.5353
   44MOL   H49836704   0.672   1.411   2.431 -1.0191  0.3122 -0.5151
   44MOL   H49936705   0.658   1.694   2.563  1.8172 -1.4714  0.5094
   44MOL   H50036706   0.534   1.576   2.601  1.0780  1.9378  2.3694
   44MOL   H50136707   0.580   1.672   2.320 -1.6830  1.1153 -0.1601
   44MOL   H50236708   0.464   1.564   2.375  0.9876  0.4630 -2.2024
   44MOL   H50336709   0.382   1.731   2.528 -1.1510 -2.3204 -1.1288
   44MOL   H50436710   0.489   1.854   2.467 -1.4845 -0.0334  0.8178
   44MOL   H50536711   0.374   1.772   2.361  0.8815  2.0061 -0.6235
   44MOL   C50636712   1.414   0.816   2.565  0.5917 -0.6642  0.0335
   44MOL   C50736713   1.275   0.761   2.538  0.3224  0.1098 -0.2530
   44MOL   C50836714   1.224   0.766   2.391  0.3986 -0.2102  0.1688
   44MOL   C50936715   1.160   0.904   2.352  0.4766  0.3510 -0.0465
   44MOL   C51036716   1.094   0.900   2.210  0.3710 -0.8935  0.3591
   44MOL   C51136717   1.058   1.039   2.157  0.4145 -0.2161 -0.9135
   44MOL   C51236718   0.936   1.097   2.224  0.6421  0.1334 -0.5146
   44MOL   C51336719   0.852   1.186   2.138  0.1185 -0.2115  0.1246
   44MOL   C51436720   0.772   1.095   2.040  0.6388  0.2300  0.3034
   44MOL   C51536721   0.694   1.167   1.933 -0.9030  0.8261  0.0143
   44MOL   C51636722   0.623   1.073   1.837  0.3919 -0.5388 -0.2160
   44MOL   C51736723   0.546   1.146   1.722  0.0347 -0.8523  0.2050
   44MOL   C51836724   0.464   1.047   1.647 -0.0264  0.0950 -0.1894
   44MOL   C51936725   0.343   0.988   1.725 -0.7134  0.7955 -0.1591
   44MOL   H52036726   1.482   0.742   2.522  1.4895  1.4266 -2.3095
   44MOL   H52136727   1.424   0.904   2.501  2.1193 -0.2799  0.7849
   44MOL   H52236728   1.208   0.818   2.602  1.2548 -1.7164  2.4332
   44MOL   H52336729   1.305   0.735   2.325  1.4243  0.1767  1.2157
   44MOL   H52436730   1.155   0.682   2.380 -0.2661  0.7339 -3.1351
   44MOL   H52536731   1.072   0.913   2.416 -1.8658 -2.1356 -2.7680
   44MOL   H52636732   1.223   0.992   2.365  1.1703 -0.0930 -0.3954
   44MOL   H52736733   1.004   0.839   2.200 -0.2075 -0.2871  1.7630
   44MOL   H52836734   1.173   0.863   2.144  0.0640 -0.1277 -0.4510
   44MOL   H52936735   1.045   1.017   2.051  0.6010 -0.1725 -0.9454
   44MOL   H53036736   1.144   1.104   2.171  0.5547 -0.2553 -1.5543
   44MOL   H53136737   0.876   1.015   2.265 -0.0290  1.1358  0.5292
   44MOL   H53236738   0.967   1.145   2.316 -3.2228  2.5062 -0.3436
   44MOL   H53336739   0.916   1.255   2.083 -1.3471 -0.0150 -1.3598
   44MOL   H53436740   0.778   1.247   2.189  1.2113  0.5327  0.8228
   44MOL   H53536741   0.703   1.042   2.106  0.9104 -2.3205 -1.3845
   44MOL   H53636742   0.839   1.017   2.004  1.8391  0.8321  1.1786
   44MOL   H53736743   0.617   1.216   1.992 -3.2805 -2.2224 -0.3858
   44MOL   H53836744   0.757   1.240   1.881 -1.2231  0.0418 -1.5218
   44MOL   H53936745   0.701   1.017   1.785 -1.6709 -1.8781 -1.9463
   44MOL   H54036746   0.564   1.006   1.898  0.4397 -0.4969 -0.1234
   44MOL   H54136747   0.625   1.190   1.662  0.5178 -0.5151  1.0816
   44MOL   H54236748   0.483   1.221   1.770  3.2510  0.8967  1.7947
   44MOL   H54336749   0.533   0.973   1.608  1.2606  0.8816  0.5425
   44MOL   H54436750   0.428   1.099   1.558 -3.2777  0.6030  1.3354
   44MOL   H54536751   0.257   1.054   1.712 -1.3610  0.2449  1.1711
   44MOL   H54636752   0.316   0.894   1.677  0.6270 -0.2870  1.1775
   44MOL   H54736753   0.365   0.979   1.831 -2.9692 -2.2592  0.1342
   44MOL   C54836754   1.262   0.612   2.590  0.2518 -0.9718 -0.9509
   44MOL   C54936755   1.118   0.566   2.624 -0.0863 -0.4609  0.0612
   44MOL   C55036756   1.099   0.411   2.600  0.3205 -0.1423  0.2819
   44MOL   C55136757   0.956   0.352   2.615  0.7924 -0.2979  0.2788
   44MOL   C55236758   0.953   0.213   2.550 -0.1057 -0.9819  0.3894
   44MOL   C55336759   0.826   0.130   2.572 -0.3888  0.1136 -0.1666
   44MOL   C55436760   0.838   7.689   2.507 -0.3758 -0.0995  0.2316
   44MOL   C55536761   0.781   0.010   2.366  0.0252 -0.1031  0.2804
   44MOL   C55636762   0.785   7.575   2.282  0.1002  0.0133 -0.7778
   44MOL   C55736763   0.900   7.570   2.189 -0.0419 -0.2621  0.5004
   44MOL   C55836764   0.883   7.469   2.076  0.5694  0.1446 -0.3217
   44MOL   C55936765   0.978   7.504   1.959  0.0743 -0.5916 -0.5612
   44MOL   C56036766   0.956   7.418   1.834  0.0425 -1.0029 -0.6689
   44MOL   C56136767   1.078   7.446   1.735  0.7646 -0.1880  0.0935
   44MOL   H56236768   1.304   0.540   2.520 -0.3968 -1.9270 -0.3671
   44MOL   H56336769   1.326   0.598   2.677  0.6985 -0.9625 -1.2773
   44MOL   H56436770   1.054   0.612   2.548  0.0055  0.7330  0.6969
   44MOL   H56536771   1.124   0.389   2.496  1.2593  2.6419 -0.1128
   44MOL   H56636772   1.170   0.360   2.666  0.7453  0.1214  0.0362
   44MOL   H56736773   0.889   0.427   2.573 -0.2467 -0.8008  1.0141
   44MOL   H56836774   0.953   0.354   2.724  1.2572 -0.2963  0.2916
   44MOL   H56936775   0.948   0.223   2.442 -0.3058 -0.1523  0.4698
   44MOL   H57036776   1.040   0.159   2.588 -0.9695 -2.4472  0.2938
   44MOL   H57136777   0.743   0.192   2.539  0.2478 -1.3647 -4.9804
   44MOL   H57236778   0.820   0.116   2.680  0.2783 -0.4325 -0.1949
   44MOL   H57336779   0.934   7.638   2.501 -0.0975  0.4367  0.0945
   44MOL   H57436780   0.765   7.627   2.559 -1.9759  0.1127 -1.6950
   44MOL   H57536781   0.834   0.089   2.313  0.8261  0.9275  2.5457
   44MOL   H57636782   0.678   0.045   2.374  0.4727  1.3247 -0.1409
   44MOL   H57736783   0.692   7.558   2.228  1.5663 -2.7286 -2.5591
   44MOL   H57836784   0.791   7.490   2.351  2.0117  1.0936  0.4239
   44MOL   H57936785   0.906   7.669   2.143  0.4106 -0.3861  0.2893
   44MOL   H58036786   0.996   7.560   2.239 -0.2099  0.2195  0.9172
   44MOL   H58136787   0.784   7.467   2.030 -0.2162 -1.2095  1.3369
   44MOL   H58236788   0.895   7.366   2.112  1.4583  1.2496  2.7224
   44MOL   H58336789   0.968   7.608   1.930  0.9623 -0.6385 -1.0589
   44MOL   H58436790   1.081   7.483   1.987  0.7457 -1.4548 -3.4837
   44MOL   H58536791   0.935   7.315   1.863 -0.5581 -0.1462  2.1427
   44MOL   H58636792   0.853   7.441   1.805 -0.3009  0.1619  1.3859
   44MOL   H58736793   1.064   7.403   1.635  2.0385 -0.5518  0.0525
   44MOL   H58836794   1.091   7.553   1.727 -1.8781  0.1927  0.5403
   44MOL   H58936795   1.171   7.405   1.776 -0.3384 -1.0951  1.7391
   44MOL   C59036796   1.072   0.620   2.765 -0.9596  0.7316  0.3572
   44MOL   C59136797   0.930   0.657   2.782  0.7358 -0.1100  0.1416
   44MOL   C59236798   0.892   0.662   2.930  0.0009 -0.2645  0.5809
   44MOL   C59336799   0.864   0.529   2.992 -0.0507  0.0694 -0.4727
   44MOL   C59436800   0.831   0.538   3.140  0.6546 -0.0785 -0.2452
   44MOL   C59536801   0.960   0.552   3.215  0.2981 -0.6105 -0.2789
   44MOL   C59636802   0.932   0.572   3.369 -0.4647  0.2950 -0.2522
   44MOL   C59736803   1.059   0.558   3.451  0.0229 -0.2542 -0.2962
   44MOL   C59836804   1.036   0.504   3.590  0.0864 -0.0953  0.3606
   44MOL   C59936805   1.163   0.465   3.668 -0.1784 -0.0140  0.0203
   44MOL   C60036806   1.264   0.575   3.709 -0.4800 -0.4446  0.0652
   44MOL   C60136807   1.312   0.550   3.856 -0.0522 -0.3985 -0.1142
   44MOL   C60236808   1.403   0.426   3.879 -0.3955 -0.1856  0.6253
   44MOL   C60336809   1.461   0.436   4.026  0.2881 -0.2881  0.7247
   44MOL   H60436810   1.131   0.706   2.797 -2.3593  2.4847 -1.6090
   44MOL   H60536811   1.092   0.548   2.844 -3.0465  0.8393  1.0041
   44MOL   H60636812   0.858   0.579   2.755  0.6743 -0.1684  0.4737
   44MOL   H60736813   0.792   0.706   2.930  0.2384  0.3715 -2.0353
   44MOL   H60836814   0.960   0.721   2.991  0.8464 -0.0456 -0.5470
   44MOL   H60936815   0.956   0.471   2.989 -0.0858 -0.2683  2.8842
   44MOL   H61036816   0.780   0.482   2.939  1.0664 -1.1977 -1.1338
   44MOL   H61136817   0.794   0.443   3.178  0.0723 -0.0664 -0.7785
   44MOL   H61236818   0.763   0.620   3.163  1.5670  0.1863  1.5882
   44MOL   H61336819   1.034   0.624   3.180 -0.2721 -0.0949 -0.4253
   44MOL   H61436820   1.014   0.457   3.214 -0.2217 -1.0206  3.5416
   44MOL   H61536821   0.883   0.669   3.374 -1.1071  0.0932 -2.0612
   44MOL   H61636822   0.860   0.499   3.406 -0.3631 -0.0626 -0.7563
   44MOL   H61736823   1.142   0.505   3.403 -1.2530 -1.6553 -0.9836
   44MOL   H61836824   1.100   0.660   3.452 -0.0187 -0.1969 -2.1112
   44MOL   H61936825   0.981   0.578   3.649  1.7311  0.9607  0.5933
   44MOL   H62036826   0.969   0.419   3.579 -0.1817  0.3404 -1.6310
   44MOL   H62136827   1.122   0.417   3.757 -1.3335  1.1975  0.1771
   44MOL   H62236828   1.225   0.397   3.610  0.3241  0.9470 -0.5948
   44MOL   H62336829   1.203   0.665   3.717  1.2453  0.7245  0.1377
   44MOL   H62436830   1.327   0.583   3.621 -1.8854  0.5526 -0.8624
   44MOL   H62536831   1.228   0.551   3.925  1.7216  0.0910  2.0745
   44MOL   H62636832   1.369   0.641   3.873  0.1463 -0.7879  1.3352
   44MOL   H62736833   1.356   0.328   3.870 -1.0505  0.2030 -0.2540
   44MOL   H62836834   1.484   0.441   3.807 -0.7305  1.9488  0.6748
   44MOL   H62936835   1.385   0.475   4.094  1.0192  0.0806  1.3289
   44MOL   H63036836   1.552   0.494   4.032  0.1303  0.1322 -0.8216
   44MOL   H63136837   1.465   0.338   4.074 -1.3034  0.0133  1.5019
   44MOL   C63236838   0.894   0.791   2.714 -0.6801 -0.3448  0.0440
   44MOL   C63336839   0.756   0.801   2.632 -0.1517 -0.8023 -0.3501
   44MOL   C63436840   0.733   0.955   2.597 -1.1098  0.4236 -0.2490
   44MOL   C63536841   0.607   0.976   2.517  0.1350 -0.1198 -0.3703
   44MOL   C63636842   0.560   1.125   2.507 -0.0594  0.4890 -0.4069
   44MOL   C63736843   0.418   1.136   2.459  0.2352 -0.0844 -0.5775
   44MOL   C63836844   0.391   1.078   2.323 -0.0659 -0.1896  0.0092
   44MOL   C63936845   0.241   1.093   2.279 -0.5924 -0.7153 -0.0653
   44MOL   C64036846   0.215   1.055   2.132  0.6535 -0.2028  0.2503
   44MOL   C64136847   0.071   1.085   2.082 -0.1494  0.4145 -0.1992
   44MOL   C64236848   0.045   1.045   1.931  0.2607  0.1690 -0.2985
   44MOL   C64336849   0.049   0.892   1.909  1.1534  0.4472  0.4282
   44MOL   C64436850   0.002   0.855   1.774 -0.2210 -0.5415 -0.0970
   44MOL   C64536851   7.693   0.704   1.743 -0.8369  0.2112  0.6076
   44MOL   H64636852   0.971   0.816   2.640  0.6918  1.3747  1.9790
   44MOL   H64736853   0.898   0.863   2.795  2.2731 -1.6691  1.1459
   44MOL   H64836854   0.682   0.764   2.703 -1.3126 -0.3861 -1.3357
   44MOL   H64936855   0.718   1.015   2.688 -0.6866 -0.4935  0.4314
   44MOL   H65036856   0.817   1.001   2.545 -0.9429 -0.7406 -1.0077
   44MOL   H65136857   0.529   0.928   2.575  0.6818 -0.3692  0.1672
   44MOL   H65236858   0.611   0.929   2.419  1.1274  1.0008 -0.8760
   44MOL   H65336859   0.622   1.174   2.432  2.4017  0.3977  1.5388
   44MOL   H65436860   0.582   1.181   2.597 -0.4650  0.8443 -0.5247
   44MOL   H65536861   0.359   1.087   2.537  0.3009  0.3271 -0.2672
   44MOL   H65636862   0.381   1.238   2.457 -1.4318 -0.5753  2.4745
   44MOL   H65736863   0.455   1.127   2.251 -0.0473  0.0578  0.1937
   44MOL   H65836864   0.417   0.972   2.329 -0.6081 -0.3658 -0.6563
   44MOL   H65936865   0.225   1.201   2.286  1.7970 -0.2913 -0.7304
   44MOL   H66036866   0.181   1.049   2.359 -1.3343  0.9887  0.3413
   44MOL   H66136867   0.238   0.949   2.127  0.0685 -0.4706  2.7374
   44MOL   H66236868   0.281   1.106   2.062 -0.4240  0.1710 -0.5003
   44MOL   H66336869   7.693   1.024   2.135  1.8505 -0.9826  1.0306
   44MOL   H66436870   0.046   1.190   2.096 -0.5888  0.5005 -1.5040
   44MOL   H66536871   7.638   1.078   1.914  0.0255 -0.3115  0.1723
   44MOL   H66636872   0.099   1.106   1.860 -0.5974  1.2456 -0.0454
   44MOL   H66736873   0.011   0.827   1.988  0.0004  2.2220  1.3569
   44MOL   H66836874   0.154   0.861   1.899  0.6437 -1.0882 -0.3774
   44MOL   H66936875   0.072   0.902   1.704 -1.4844  1.2058 -0.2141
   44MOL   H67036876   7.610   0.911   1.743 -0.9249 -1.6296 -0.1013
   44MOL   H67136877   0.084   0.647   1.775 -0.1146 -1.3248 -3.8050
   44MOL   H67236878   7.600   0.659   1.779 -0.1936  0.0113  2.0651
   44MOL   H67336879   0.006   0.691   1.636  2.6315  2.0371  0.5653
   44MOL   C67436880   0.751   0.716   2.501  0.1218 -0.3544  0.4117
   44MOL   C67536881   0.627   0.625   2.487  0.8086  0.3378  0.1339
   44MOL   C67636882   0.597   0.569   2.339 -0.1648 -0.6528 -0.1096
   44MOL   C67736883   0.539   0.670   2.239  0.3550  0.0105 -0.0345
   44MOL   C67836884   0.518   0.611   2.098 -0.2869  0.4155  0.3355
   44MOL   C67936885   0.428   0.699   2.005 -0.5955  0.1012  0.2928
   44MOL   C68036886   0.408   0.643   1.868 -0.4511 -0.8358  0.3659
   44MOL   C68136887   0.534   0.583   1.793 -0.1839 -0.6869 -0.8646
   44MOL   C68236888   0.658   0.675   1.753  0.5655 -0.1751  0.2896
   44MOL   C68336889   0.783   0.682   1.845  0.8174 -0.5422 -0.4166
   44MOL   C68436890   0.905   0.729   1.770  0.0291 -0.5310 -0.3635
   44MOL   C68536891   1.014   0.765   1.866 -0.4484  0.1745  0.4804
   44MOL   C68636892   1.142   0.819   1.794 -0.2052 -0.0109 -0.0555
   44MOL   C68736893   1.209   0.730   1.686  0.2754 -0.1223  0.5031
   44MOL   H68836894   0.834   0.647   2.512 -0.0588 -0.6459 -0.0716
   44MOL   H68936895   0.783   0.769   2.412  1.2114 -1.6571  0.0281
   44MOL   H69036896   0.545   0.692   2.512  1.1399  0.1678  1.6824
   44MOL   H69136897   0.686   0.526   2.293 -1.4325 -0.9318 -2.3871
   44MOL   H69236898   0.524   0.488   2.346 -1.7199  0.7035 -0.4475
   44MOL   H69336899   0.444   0.703   2.281 -0.4106 -1.8601 -0.2524
   44MOL   H69436900   0.603   0.758   2.234 -0.6706  0.6795 -2.0696
   44MOL   H69536901   0.618   0.588   2.061 -0.8211 -0.7398 -0.4334
   44MOL   H69636902   0.477   0.511   2.113  0.2107  0.4948  2.4312
   44MOL   H69736903   0.333   0.696   2.059 -0.2971 -1.0212  0.7759
   44MOL   H69836904   0.455   0.805   2.000  0.6696 -0.2094  0.2581
   44MOL   H69936905   0.333   0.564   1.868 -1.1399 -0.1940 -1.8219
   44MOL   H70036906   0.369   0.728   1.813  1.5953 -0.8418 -1.1452
   44MOL   H70136907   0.570   0.505   1.860 -0.3107  0.5444  0.6844
   44MOL   H70236908   0.512   0.537   1.697 -1.2866 -2.2596  0.1024
   44MOL   H70336909   0.699   0.648   1.656  1.6283  1.4744  0.2534
   44MOL   H70436910   0.619   0.776   1.740 -1.2724 -1.3799 -4.3581
   44MOL   H70536911   0.814   0.589   1.892  1.7585  0.7858  1.6664
   44MOL   H70636912   0.763   0.749   1.928  2.3842  2.9609 -2.7580
   44MOL   H70736913   0.876   0.825   1.726 -2.3045  0.3051  2.8565
   44MOL   H70836914   0.935   0.670   1.683  0.0766  1.5040 -1.7727
   44MOL   H70936915   1.048   0.679   1.924  1.5638 -0.3659 -1.4054
   44MOL   H71036916   0.982   0.835   1.942 -2.2428  0.0365 -0.1172
   44MOL   H71136917   1.116   0.915   1.749 -1.3270  1.0386  2.7362
   44MOL   H71236918   1.216   0.842   1.870 -0.0864 -1.3171  0.2404
   44MOL   H71336919   1.304   0.779   1.666 -0.4655  0.8039 -0.7947
   44MOL   H71436920   1.208   0.630   1.730  2.0715  0.9759  3.1760
   44MOL   H71536921   1.161   0.741   1.589 -1.8576 -1.4852  1.3638
   44MOL   C71636922   0.622   0.499   2.589  0.2747 -0.4271  0.3778
   44MOL   C71736923   0.476   0.472   2.639 -0.0217 -0.5588  0.0656
   44MOL   C71836924   0.474   0.327   2.696  0.5394 -0.0938 -0.0253
   44MOL   C71936925   0.544   0.309   2.825  0.2892  1.1751 -0.0338
   44MOL   C72036926   0.538   0.164   2.878  0.4149  0.2255  0.5925
   44MOL   C72136927   0.638   0.150   2.992 -0.3069  0.2604  0.2883
   44MOL   C72236928   0.607   0.020   3.075  0.9825 -0.0818  0.0154
   44MOL   C72336929   0.719   7.689   3.168 -0.1700 -0.0459 -0.7579
   44MOL   C72436930   0.715   0.079   3.301  0.3694 -0.2420 -0.1477
   44MOL   C72536931   0.816   0.039   3.407 -0.8006 -0.2257  0.5634
   44MOL   C72636932   0.829   0.133   3.536  0.4119 -0.9411 -0.6156
   44MOL   C72736933   0.931   0.095   3.636 -0.2209 -0.1616  0.0730
   44MOL   C72836934   0.891   7.681   3.729 -0.2013 -0.0600  0.2672
   44MOL   C72936935   1.009   7.633   3.808  0.3609 -0.7165  0.3405
   44MOL   H73036936   0.652   0.405   2.543 -0.0198 -0.1529 -0.3711
   44MOL   H73136937   0.691   0.519   2.672  1.1312  0.5403 -0.5584
   44MOL   H73236938   0.428   0.475   2.541  2.2326  2.3862 -1.0144
   44MOL   H73336939   0.485   0.247   2.623 -0.8253 -1.2865  1.0327
   44MOL   H73436940   0.371   0.302   2.720  1.0283 -2.2448 -0.1121
   44MOL   H73536941   0.647   0.336   2.804  0.7196  0.6662  1.3927
   44MOL   H73636942   0.512   0.381   2.901  1.3569  1.0969  0.5009
   44MOL   H73736943   0.437   0.170   2.917 -0.1064  2.9718 -1.0609
   44MOL   H73836944   0.527   0.093   2.796  0.9764 -0.6121  1.2289
   44MOL   H73936945   0.738   0.147   2.949 -0.7267  3.4269 -1.0364
   44MOL   H74036946   0.635   0.239   3.055  0.0227  0.6908 -0.3014
   44MOL   H74136947   0.516   0.032   3.133  0.9496  1.1253 -0.2732
   44MOL   H74236948   0.601   7.625   3.015  1.4673  1.4381 -2.3977
   44MOL   H74336949   0.817   0.010   3.122  0.8351  0.6965  1.5646
   44MOL   H74436950   0.724   7.582   3.190  0.8344  0.1877  0.2545
   44MOL   H74536951   0.722   0.184   3.272 -0.8771  0.3893  1.7308
   44MOL   H74636952   0.613   0.069   3.339 -0.0320  1.2029 -0.8311
   44MOL   H74736953   0.794   7.634   3.443  0.6725  0.5185  3.7988
   44MOL   H74836954   0.913   0.034   3.358 -1.2353 -1.9673 -0.1616
   44MOL   H74936955   0.835   0.233   3.493 -1.5127 -1.1285 -1.4073
   44MOL   H75036956   0.729   0.126   3.579  0.9581 -0.9646  0.6853
   44MOL   H75136957   1.011   0.066   3.568  0.7549  2.0367  0.2330
   44MOL   H75236958   0.977   0.181   3.685 -0.1525 -0.8133  1.1785
   44MOL   H75336959   0.841   7.595   3.685 -0.4932 -0.7763  1.9588
   44MOL   H75436960   0.825   0.034   3.801 -0.1030  1.1944 -0.4790
   44MOL   H75536961   1.080   0.013   3.841  1.3810 -1.6819  0.3755
   44MOL   H75636962   1.062   7.557   3.751  0.0871 -0.3527 -0.3993
   44MOL   H75736963   0.974   7.578   3.896 -0.8601 -1.8015 -0.7962
   44MOL   C75836964   0.432   0.585   2.736 -0.0194  0.0344 -0.7886
   44MOL   C75936965   0.283   0.606   2.770  0.3050 -0.1336  1.4856
   44MOL   C76036966   0.240   0.718   2.872  0.7703  1.3775  0.1565
   44MOL   C76136967   0.326   0.722   3.007 -0.0230  0.2573  0.1339
   44MOL   C76236968   0.327   0.589   3.086  0.2549  0.1585  0.4772
   44MOL   C76336969   0.390   0.608   3.227 -0.1920  0.2690  0.2421
   44MOL   C76436970   0.396   0.471   3.305  0.4677 -0.6289 -0.1701
   44MOL   C76536971   0.487   0.483   3.430 -0.1820 -0.2153 -0.4456
   44MOL   C76636972   0.485   0.360   3.525  0.5625 -0.3946 -0.2074
   44MOL   C76736973   0.572   0.387   3.657  0.2028 -0.4659 -1.0129
   44MOL   C76836974   0.572   0.269   3.761 -0.0040 -0.0081 -0.4914
   44MOL   C76936975   0.441   0.260   3.842 -0.2630  0.0059  0.0288
   44MOL   C77036976   0.470   0.185   3.974 -0.3249 -0.3229 -0.3668
   44MOL   C77136977   0.334   0.169   4.055  0.0122 -0.0850  0.6352
   44MOL   H77236978   0.486   0.571   2.830 -1.9008 -0.4165  0.2382
   44MOL   H77336979   0.472   0.681   2.702 -0.7475  0.5911 -0.0688
   44MOL   H77436980   0.250   0.513   2.815 -0.7839 -1.2896 -1.5864
   44MOL   H77536981   0.252   0.811   2.816  1.4657  1.0109 -0.3230
   44MOL   H77636982   0.134   0.708   2.893  0.6118  2.9102  0.1165
   44MOL   H77736983   0.429   0.746   2.980 -0.5488  4.7806  1.7074
   44MOL   H77836984   0.290   0.813   3.055 -1.4832 -1.1681  1.8457
   44MOL   H77936985   0.369   0.502   3.035 -1.8747 -0.0407 -1.0376
   44MOL   H78036986   0.222   0.560   3.099  0.0278  1.9160  2.9717
   44MOL   H78136987   0.336   0.681   3.287  0.3826  1.6506 -0.9143
   44MOL   H78236988   0.488   0.657   3.226  0.6518 -1.2765  2.4304
   44MOL   H78336989   0.296   0.438   3.334  1.0060 -1.3435  0.8905
   44MOL   H78436990   0.429   0.387   3.243  0.2227 -0.8427 -0.0128
   44MOL   H78536991   0.464   0.565   3.499  0.7276 -1.7806  1.7905
   44MOL   H78636992   0.588   0.493   3.391 -1.0208 -1.3655 -3.0019
   44MOL   H78736993   0.522   0.278   3.463  0.6022 -0.5531  0.0271
   44MOL   H78836994   0.387   0.324   3.555  0.6441  0.5002  1.1493
   44MOL   H78936995   0.535   0.471   3.715 -1.1192 -1.8203  0.1373
   44MOL   H79036996   0.668   0.421   3.620  0.4856  1.1276  1.1266
   44MOL   H79136997   0.594   0.174   3.714 -2.1649 -0.3083 -0.9259
   44MOL   H79236998   0.662   0.277   3.822  1.0189 -1.4111 -1.7962
   44MOL   H79336999   0.403   0.359   3.865 -0.5325 -0.3949  1.3776
   44MOL   H79437000   0.364   0.203   3.790 -1.1108  0.5996  0.6195
   44MOL   H79537001   0.522   0.089   3.973  1.0454  0.4139 -3.1774
   44MOL   H79637002   0.531   0.248   4.038 -0.3845 -1.3932  0.7606
   44MOL   H79737003   0.259   0.114   3.997 -0.3913 -0.5278  1.5565
   44MOL   H79837004   0.357   0.109   4.143  1.7045  2.5102  1.9940
   44MOL   H79937005   0.285   0.264   4.077 -0.3601 -0.0683 -0.2494
   44MOL   C80037006   0.193   0.612   2.640  1.0684  0.3557 -0.6187
   44MOL   C80137007   0.221   0.740   2.553 -0.5608 -0.9549 -0.1477
   44MOL   C80237008   0.125   0.773   2.439  0.3126  0.3001  0.9157
   44MOL   C80337009   7.683   0.825   2.479  0.0328 -0.0061 -0.1152
   44MOL   C80437010   7.591   0.837   2.359  0.2610  0.3957 -0.2212
   44MOL   C80537011   7.441   0.860   2.384 -0.2894  0.4208  0.2162
   44MOL   C80637012   7.363   0.866   2.260  0.3237 -0.4013  0.1479
   44MOL   C80737013   7.339   0.734   2.185  0.2907  0.2476 -0.8414
   44MOL   C80837014   7.245   0.737   2.061 -0.0381 -0.2767 -0.3150
   44MOL   C80937015   7.311   0.766   1.921  0.4629 -0.5353 -0.4458
   44MOL   C81037016   7.223   0.716   1.804 -0.3076  1.0303 -0.7960
   44MOL   C81137017   7.295   0.724   1.668 -0.8550 -0.5330 -0.5542
   44MOL   C81237018   7.190   0.707   1.558 -0.0002 -0.2451 -0.0561
   44MOL   C81337019   7.236   0.693   1.415  0.5654  0.2675 -0.0396
   44MOL   H81437020   0.088   0.622   2.667  1.1888  0.0699 -0.0526
   44MOL   H81537021   0.210   0.522   2.581 -0.8942 -0.5524  0.1893
   44MOL   H81637022   0.324   0.727   2.520  0.4215 -0.1944  2.4796
   44MOL   H81737023   0.113   0.690   2.370 -2.1444  3.0738 -2.1510
   44MOL   H81837024   0.169   0.846   2.371 -0.9943 -1.3219 -1.6983
   44MOL   H81937025   0.008   0.920   2.527 -1.0355  0.2987 -0.2605
   44MOL   H82037026   7.621   0.761   2.542  1.0901  0.5941  1.5771
   44MOL   H82137027   7.615   0.930   2.308  1.2384  0.2904  0.0474
   44MOL   H82237028   7.595   0.753   2.290  2.5930 -0.3793  0.8165
   44MOL   H82337029   7.420   0.955   2.434 -0.8619  0.8244 -0.7826
   44MOL   H82437030   7.392   0.778   2.437  0.7031 -0.3680 -0.0686
   44MOL   H82537031   7.263   0.905   2.279  0.7239  1.0396 -0.6326
   44MOL   H82637032   7.418   0.929   2.190  1.2470 -0.8883  0.4435
   44MOL   H82737033   7.426   0.672   2.162  1.1605  1.3974 -0.7026
   44MOL   H82837034   7.294   0.668   2.260 -0.1075 -0.0764 -1.3634
   44MOL   H82937035   7.193   0.642   2.056  0.6287 -0.6165 -0.9455
   44MOL   H83037036   7.159   0.802   2.077  2.3529  2.4808  1.9125
   44MOL   H83137037   7.404   0.709   1.916  0.9496  0.1242  0.9016
   44MOL   H83237038   7.330   0.873   1.921 -1.7761 -0.0918  1.7725
   44MOL   H83337039   7.192   0.613   1.818 -0.0820  1.1857  0.9391
   44MOL   H83437040   7.127   0.767   1.809 -0.9102 -0.2134  0.7215
   44MOL   H83537041   7.375   0.651   1.661  0.2106  0.7321 -1.8434
   44MOL   H83637042   7.347   0.819   1.660 -1.8751  0.2951  2.2104
   44MOL   H83737043   7.120   0.627   1.583 -0.6349 -0.3242 -2.0548
   44MOL   H83837044   7.123   0.794   1.555 -1.6042 -1.4195  0.9605
   44MOL   H83937045   7.293   0.604   1.390  1.0419  1.7434 -4.5416
   44MOL   H84037046   7.158   0.699   1.338  1.5120  0.7646 -0.9686
   44MOL   H84137047   7.303   0.777   1.399 -1.6947  2.2569  0.5170
   44MOL   H84237048   0.230   0.828   2.617 -2.7397 -1.3864  0.8035
   45MOL     C137049   0.868   6.813   1.435 -0.7380 -0.8610 -0.4541
   45MOL     C237050   0.995   6.876   1.486 -0.1108 -0.2747 -0.2212
   45MOL     C337051   1.077   6.784   1.576  0.0052  0.0478 -0.0549
   45MOL     C437052   0.995   6.733   1.692 -0.5784  0.1544 -0.6929
   45MOL     C537053   1.082   6.677   1.805  0.0396 -0.2536 -0.2340
   45MOL     C637054   0.989   6.600   1.911  0.4919 -0.1045  0.0879
   45MOL     C737055   0.957   6.444   1.889 -0.0925 -0.2767  0.5729
   45MOL     C837056   0.855   6.379   1.987  0.3638  0.0326  0.8028
   45MOL     C937057   0.806   6.241   1.935 -0.7584  0.4775 -0.1014
   45MOL    C1037058   0.680   6.196   2.012 -0.4649 -0.2523  0.6354
   45MOL    C1137059   0.605   6.081   1.930 -0.0326  0.7394 -0.0754
   45MOL    C1237060   0.486   6.032   2.008  1.6044 -0.2927  0.0152
   45MOL    C1337061   0.407   5.929   1.928  0.9208 -0.2491 -0.6105
   45MOL    C1437062   0.471   5.789   1.903  0.1999  0.3454  0.3689
   45MOL    H1537063   0.891   6.715   1.391 -1.4192 -1.4818  0.5565
   45MOL    H1637064   0.817   6.869   1.357  2.1694 -0.2320 -1.9769
   45MOL    H1737065   0.968   6.957   1.553 -1.5616 -1.0505  0.1583
   45MOL    H1837066   1.107   6.699   1.516  0.2985 -1.3560  2.0224
   45MOL    H1937067   1.173   6.828   1.606  0.5058 -0.4553 -0.8929
   45MOL    H2037068   0.908   6.673   1.665  0.5429 -1.5228 -0.6517
   45MOL    H2137069   0.951   6.816   1.747  1.1436  1.4925 -1.2994
   45MOL    H2237070   1.126   6.764   1.853  1.6667 -0.7000 -0.8808
   45MOL    H2337071   1.162   6.621   1.756 -0.2912 -0.9835  0.0581
   45MOL    H2437072   0.894   6.652   1.918  0.5749 -0.0592  0.8640
   45MOL    H2537073   1.033   6.611   2.010 -1.9988 -2.6489  1.5555
   45MOL    H2637074   0.928   6.421   1.786 -0.0714 -1.0661  0.7405
   45MOL    H2737075   1.050   6.389   1.907  0.0212  0.0784  1.0585
   45MOL    H2837076   0.768   6.444   1.996  0.0764 -0.4041  1.1566
   45MOL    H2937077   0.899   6.370   2.086 -0.1911  1.0451  1.1547
   45MOL    H3037078   0.782   6.263   1.831  0.0978  0.5723 -0.2862
   45MOL    H3137079   0.882   6.165   1.917 -0.5209  0.3978  1.2112
   45MOL    H3237080   0.691   6.152   2.111 -0.7317  1.4605  1.4449
   45MOL    H3337081   0.608   6.278   2.019 -0.4813 -0.3015  1.0196
   45MOL    H3437082   0.576   6.119   1.833 -1.6440  1.7420  0.7755
   45MOL    H3537083   0.673   5.996   1.925 -0.8555  0.0057  0.9992
   45MOL    H3637084   0.406   6.104   2.026 -0.6433 -2.6295 -0.2756
   45MOL    H3737085   0.528   5.989   2.099  1.7292 -2.7859 -1.1670
   45MOL    H3837086   0.305   5.913   1.964  1.0515  0.1873 -0.0501
   45MOL    H3937087   0.391   5.974   1.830  2.4624  0.9378 -0.3313
   45MOL    H4037088   0.476   5.717   1.985 -1.3416  0.6729  0.7683
   45MOL    H4137089   0.426   5.735   1.820  2.0373  0.0922 -0.4866
   45MOL    H4237090   0.578   5.789   1.884  0.5683 -1.1855  2.2749
   45MOL    H4337091   0.803   6.795   1.520 -0.2224 -0.4897  0.0143
   45MOL    C4437092   1.093   6.928   1.381 -1.3155 -0.4897 -0.0521
   45MOL    C4537093   1.170   7.061   1.399 -0.2866  0.4821 -0.3273
   45MOL    C4637094   1.073   7.184   1.411 -0.2833 -0.8607  0.1682
   45MOL    C4737095   0.979   7.201   1.288  0.8790 -0.3379  0.7103
   45MOL    C4837096   0.876   7.315   1.302 -0.2974  0.2571 -0.3635
   45MOL    C4937097   0.787   7.332   1.179 -1.1009 -0.0508  0.2064
   45MOL    C5037098   0.688   7.213   1.153  0.0042 -0.4934  0.0306
   45MOL    C5137099   0.605   7.174   1.280  0.3898 -0.5001  0.2076
   45MOL    C5237100   0.499   7.051   1.276  0.3403 -0.2215 -0.8855
   45MOL    C5337101   0.404   7.057   1.405 -0.9520 -0.2165 -0.0409
   45MOL    C5437102   0.482   7.040   1.549 -0.1834 -0.1202 -0.0948
   45MOL    C5537103   0.390   6.991   1.660  0.6966  0.2844 -0.4216
   45MOL    C5637104   0.264   7.084   1.683 -0.3994  0.3340 -0.3745
   45MOL    C5737105   0.168   7.049   1.802 -0.2602 -0.7300  0.2115
   45MOL    H5837106   1.172   6.858   1.356  0.0909  0.4334  1.6742
   45MOL    H5937107   1.040   6.931   1.286  3.4375 -0.9910 -2.8843
   45MOL    H6037108   1.225   7.049   1.493  1.3599  1.8257 -1.0906
   45MOL    H6137109   1.017   7.164   1.502  0.7360  0.6724  1.1646
   45MOL    H6237110   1.127   7.277   1.428  0.8720 -1.6974  1.2305
   45MOL    H6337111   0.922   7.110   1.272  0.3386  0.4372 -2.0529
   45MOL    H6437112   1.034   7.227   1.197 -1.0634 -0.1049 -0.4206
   45MOL    H6537113   0.928   7.409   1.322  1.7377 -1.1355  1.1206
   45MOL    H6637114   0.816   7.293   1.391  0.4476 -3.5822 -0.7089
   45MOL    H6737115   0.721   7.416   1.198 -1.5114  0.0265 -1.5356
   45MOL    H6837116   0.852   7.349   1.094  2.3724 -0.5379  2.6319
   45MOL    H6937117   0.624   7.250   1.072  0.9061  2.2290  0.5021
   45MOL    H7037118   0.734   7.123   1.112  0.1384 -0.6513  0.5276
   45MOL    H7137119   0.556   7.261   1.325  2.0960  0.6434 -0.0996
   45MOL    H7237120   0.660   7.146   1.370 -0.4972  1.6015  1.4579
   45MOL    H7337121   0.428   7.062   1.194  1.7791  0.7192 -2.0332
   45MOL    H7437122   0.546   6.953   1.281 -0.2052 -0.3670  2.7379
   45MOL    H7537123   0.338   6.972   1.392 -2.1830  0.9949 -1.9550
   45MOL    H7637124   0.334   7.141   1.412 -0.6189  0.1187 -0.6925
   45MOL    H7737125   0.525   7.134   1.582 -0.4682 -0.2019  0.5162
   45MOL    H7837126   0.563   6.967   1.540  2.1982  2.6551 -1.8337
   45MOL    H7937127   0.366   6.885   1.644  1.3604 -0.0357  0.6391
   45MOL    H8037128   0.447   6.993   1.753  1.2272 -2.3646 -0.6453
   45MOL    H8137129   0.204   7.097   1.593  1.7574  2.9189 -1.4831
   45MOL    H8237130   0.307   7.182   1.701 -1.5284  0.4861  1.6896
   45MOL    H8337131   0.207   7.050   1.904 -1.7167  1.7625  0.7810
   45MOL    H8437132   0.119   6.952   1.795 -1.2251 -0.3897  2.0516
   45MOL    H8537133   0.086   7.121   1.797  3.0280  3.1108 -1.4713
   45MOL    C8637134   1.275   7.071   1.286  0.3814 -0.1016  0.6798
   45MOL    C8737135   1.365   7.194   1.284  0.3277 -0.5715  0.0922
   45MOL    C8837136   1.421   7.207   1.138 -1.1960  0.4822 -0.4287
   45MOL    C8937137   1.322   7.262   1.037  0.3563  0.5901  0.1452
   45MOL    C9037138   1.353   7.409   0.982 -0.1046 -0.3539  0.6006
   45MOL    C9137139   1.243   7.470   0.895  0.5755 -0.0872 -0.1313
   45MOL    C9237140   1.273   7.617   0.873  0.9252  0.2186 -0.8020
   45MOL    C9337141   1.165   7.695   0.783  0.1320 -0.1287 -0.2676
   45MOL    C9437142   1.190   0.150   0.796  0.0812  0.2103 -0.0147
   45MOL    C9537143   1.111   0.234   0.687  0.0670 -0.8025 -0.1383
   45MOL    C9637144   1.184   0.262   0.551  0.2465  0.5455 -0.2321
   45MOL    C9737145   1.121   0.347   0.445  0.1518  0.3494  0.2888
   45MOL    C9837146   1.183   0.346   0.308  0.4109  0.7501  0.1722
   45MOL    C9937147   1.094   0.415   0.209  0.0906 -0.0362 -0.0208
   45MOL   H10037148   1.333   6.979   1.281 -0.0566 -0.4455  1.8030
   45MOL   H10137149   1.220   7.077   1.192  2.5115  0.8720 -0.5251
   45MOL   H10237150   1.307   7.285   1.301  2.5250  0.7800  0.6130
   45MOL   H10337151   1.518   7.256   1.133 -0.6790 -0.4872 -0.0085
   45MOL   H10437152   1.443   7.104   1.112 -2.2744  0.2536 -0.4650
   45MOL   H10537153   1.318   7.180   0.966 -0.8319  0.2625  0.5680
   45MOL   H10637154   1.221   7.266   1.077  0.2904  2.2242 -0.1311
   45MOL   H10737155   1.444   7.401   0.923 -0.3173  0.6524  0.1154
   45MOL   H10837156   1.367   7.479   1.064 -0.9290  0.8885 -0.3081
   45MOL   H10937157   1.140   7.463   0.930  0.8895  1.7003  1.1765
   45MOL   H11037158   1.230   7.423   0.797  0.0361 -0.1012 -0.0518
   45MOL   H11137159   1.280   7.674   0.965 -1.9370 -0.2974 -0.2223
   45MOL   H11237160   1.376   7.637   0.841  1.5592 -0.1832  0.9392
   45MOL   H11337161   1.062   7.681   0.813 -0.0974 -0.0393 -0.9985
   45MOL   H11437162   1.179   7.661   0.681  0.0324  0.6512 -0.5433
   45MOL   H11537163   1.168   0.198   0.891  0.2420 -1.9826  1.1543
   45MOL   H11637164   1.293   0.184   0.790 -0.0251  0.6767  0.7583
   45MOL   H11737165   1.087   0.332   0.727 -1.2653 -2.2187  2.6914
   45MOL   H11837166   1.018   0.180   0.666  0.1899 -0.7033 -0.9648
   45MOL   H11937167   1.279   0.309   0.578 -0.0997  2.4804 -2.2018
   45MOL   H12037168   1.211   0.164   0.511  0.5015 -0.0270  1.3104
   45MOL   H12137169   1.027   0.296   0.424  1.3362 -2.3949  1.3989
   45MOL   H12237170   1.111   0.450   0.477 -0.3504 -0.1457  1.7692
   45MOL   H12337171   1.212   0.247   0.271 -1.6509  1.0024 -2.3529
   45MOL   H12437172   1.280   0.395   0.313  0.3819  1.0691 -1.8426
   45MOL   H12537173   1.086   0.522   0.228 -0.3299 -0.3153  1.4925
   45MOL   H12637174   1.146   0.394   0.116 -0.9874 -1.5428 -0.3001
   45MOL   H12737175   0.994   0.372   0.199 -0.3654  0.3733  2.3772
   45MOL   C12837176   1.477   7.193   1.397  0.8381  0.1731 -0.5556
   45MOL   C12937177   1.480   7.324   1.486 -0.0189  1.0479 -0.2121
   45MOL   C13037178   1.561   7.309   1.620 -0.4335  0.7257  0.7773
   45MOL   C13137179   1.530   7.190   1.711  0.3875 -0.3475 -0.7082
   45MOL   C13237180   1.389   7.214   1.775  0.0076  0.0317 -0.5062
   45MOL   C13337181   1.344   7.104   1.866  0.2180 -0.5889  0.0557
   45MOL   C13437182   1.231   7.142   1.955  0.5792  0.0027 -0.8797
   45MOL   C13537183   1.175   7.030   2.042  0.0904  0.0256  0.2216
   45MOL   C13637184   1.045   7.052   2.115  0.2711 -0.2259 -0.3643
   45MOL   C13737185   0.923   7.023   2.026 -0.1133  0.0492  0.0764
   45MOL   C13837186   0.781   7.045   2.077  0.2497  0.1420  0.1913
   45MOL   C13937187   0.668   7.026   1.971 -0.5539 -0.1104  0.1982
   45MOL   C14037188   0.631   6.878   1.952  0.3130 -0.0971  0.3586
   45MOL   C14137189   0.569   6.812   2.078 -0.3672  0.4163  0.1383
   45MOL   H14237190   1.457   7.118   1.472  0.3849 -1.3749 -2.1922
   45MOL   H14337191   1.578   7.172   1.361  1.1370 -1.8123  1.3420
   45MOL   H14437192   1.377   7.343   1.514  0.9292  0.7182  3.8487
   45MOL   H14537193   1.662   7.289   1.585 -1.2783 -1.5825 -0.4515
   45MOL   H14637194   1.563   7.397   1.683  1.4626  1.0988  0.2377
   45MOL   H14737195   1.543   7.103   1.647  0.2243 -0.0266 -1.1879
   45MOL   H14837196   1.603   7.188   1.791  0.0525  2.7153 -0.2358
   45MOL   H14937197   1.391   7.308   1.829 -0.9838 -1.0292  1.4249
   45MOL   H15037198   1.313   7.223   1.697 -0.0624  1.0079 -0.3250
   45MOL   H15137199   1.312   7.020   1.805  1.2367 -1.0364  0.1297
   45MOL   H15237200   1.423   7.063   1.929 -0.5066 -1.4458  0.4107
   45MOL   H15337201   1.261   7.223   2.022 -4.9580  1.3880  0.1634
   45MOL   H15437202   1.156   7.183   1.888  0.5657  1.0221 -0.2548
   45MOL   H15537203   1.157   6.947   1.973  0.0663 -0.3647  0.6922
   45MOL   H15637204   1.248   7.001   2.118 -0.2591 -0.1012  0.5082
   45MOL   H15737205   1.053   6.993   2.206  2.4105 -1.5492 -1.3484
   45MOL   H15837206   1.054   7.157   2.141 -0.5077  0.5259 -2.9369
   45MOL   H15937207   0.941   6.917   2.007 -2.1553 -0.3885  0.5441
   45MOL   H16037208   0.938   7.072   1.930  1.3978  0.3513  0.4513
   45MOL   H16137209   0.765   6.976   2.160  1.6506 -0.7330 -0.2436
   45MOL   H16237210   0.774   7.146   2.117 -1.4473 -0.3426  1.1421
   45MOL   H16337211   0.590   7.081   2.024  1.4254  0.9643  2.0284
   45MOL   H16437212   0.678   7.088   1.882  2.1207 -1.5560 -0.5500
   45MOL   H16537213   0.549   6.857   1.883 -1.1107 -3.4560  2.9241
   45MOL   H16637214   0.721   6.826   1.917 -0.0581 -2.6864  3.1126
   45MOL   H16737215   0.626   6.818   2.171 -0.3590  1.5106  0.0633
   45MOL   H16837216   0.471   6.850   2.106  0.4792  1.1804  2.1647
   45MOL   H16937217   0.553   6.706   2.057  4.3111 -0.5136  0.6425
   45MOL   C17037218   1.532   7.445   1.401  0.1815 -1.1105  0.0651
   45MOL   C17137219   1.497   7.595   1.447 -0.0938  0.3422 -0.0705
   45MOL   C17237220   1.345   7.621   1.457 -0.4615 -0.1229  0.5071
   45MOL   C17337221   1.258   7.592   1.339  0.3873 -0.0029 -0.5634
   45MOL   C17437222   1.115   7.647   1.349 -0.2172  0.2050  0.2382
   45MOL   C17537223   1.028   7.648   1.216 -0.3185 -0.5757  0.4485
   45MOL   C17637224   0.889   0.012   1.241 -0.0549 -0.1014  0.3896
   45MOL   C17737225   0.806   0.020   1.110 -0.3354 -1.0096 -0.0850
   45MOL   C17837226   0.819   0.149   1.030 -0.4189 -0.4930 -0.1290
   45MOL   C17937227   0.736   0.139   0.898 -0.0159 -0.5965 -0.2856
   45MOL   C18037228   0.776   0.249   0.798  0.1709 -0.1259  0.1249
   45MOL   C18137229   0.680   0.355   0.777 -0.2199  0.6652  0.0745
   45MOL   C18237230   0.742   0.471   0.696 -0.0274 -0.5801  0.3448
   45MOL   C18337231   0.659   0.608   0.683 -0.6315  0.5122  0.0414
   45MOL   H18437232   1.503   7.429   1.297  0.0608  0.5481 -0.1585
   45MOL   H18537233   1.641   7.436   1.400  0.4218  0.3826  4.1620
   45MOL   H18637234   1.522   7.651   1.356 -0.6655  0.6281 -0.0585
   45MOL   H18737235   1.311   7.566   1.545 -1.2576 -1.8101 -0.8216
   45MOL   H18837236   1.345   0.028   1.493  0.0310  0.1246 -0.1919
   45MOL   H18937237   1.306   7.625   1.247 -0.2096 -2.4214 -1.8035
   45MOL   H19037238   1.246   7.483   1.340  0.0963  0.0299 -0.3446
   45MOL   H19137239   1.058   7.599   1.429 -0.5750  1.3432  0.6776
   45MOL   H19237240   1.121   0.052   1.391 -1.2182  1.3066 -2.1719
   45MOL   H19337241   1.011   7.548   1.177 -1.8576 -0.1037 -0.1106
   45MOL   H19437242   1.086   0.018   1.151 -0.7011 -0.2607  0.4200
   45MOL   H19537243   0.905   0.113   1.280  3.1849 -0.4718  0.1805
   45MOL   H19637244   0.829   7.646   1.308 -0.6413 -0.9499 -0.8869
   45MOL   H19737245   0.700   0.008   1.131 -0.6294 -0.7481 -1.3874
   45MOL   H19837246   0.825   7.627   1.050  1.9476 -1.4034  1.1615
   45MOL   H19937247   0.924   0.157   1.002  0.0274 -0.2398  1.5464
   45MOL   H20037248   0.794   0.233   1.095  1.6460 -1.5363  2.0857
   45MOL   H20137249   0.630   0.153   0.920  0.2548  1.1521  0.0107
   45MOL   H20237250   0.737   0.039   0.854  0.2491  0.3462 -2.4553
   45MOL   H20337251   0.795   0.193   0.707  2.0068 -0.1288  0.4892
   45MOL   H20437252   0.871   0.296   0.822 -0.0447  0.8935 -0.9887
   45MOL   H20537253   0.591   0.316   0.727 -1.3736  1.0442  1.7916
   45MOL   H20637254   0.640   0.395   0.870 -0.2514  2.2981 -0.6178
   45MOL   H20737255   0.835   0.501   0.745 -1.0424  2.9318  0.2609
   45MOL   H20837256   0.792   0.433   0.607  0.9677 -1.5888  1.3322
   45MOL   H20937257   0.592   0.631   0.765  0.1663  1.2219  0.5038
   45MOL   H21037258   0.604   0.605   0.589  0.4744 -2.1217 -0.5894
   45MOL   H21137259   0.735   0.686   0.680 -2.0131  1.9040  0.8552
   45MOL   C21237260   1.575   7.645   1.567 -0.5585 -0.0073 -0.5036
   45MOL   C21337261   1.614   0.099   1.572  0.6185 -0.0590  0.1327
   45MOL   C21437262   1.564   0.159   1.705 -0.1352 -1.2020 -0.3480
   45MOL   C21537263   1.566   0.315   1.716  0.4444 -0.1283 -0.2576
   45MOL   C21637264   1.496   0.377   1.837 -1.6288  0.1520 -0.3895
   45MOL   C21737265   1.520   0.527   1.853  0.6014  0.6283 -0.1367
   45MOL   C21837266   1.440   0.581   1.971 -0.0737 -0.0768  0.2896
   45MOL   C21937267   1.496   0.714   2.026  0.5863 -0.4797 -0.2736
   45MOL   C22037268   1.607   0.678   2.129  0.0563 -0.3900 -0.3231
   45MOL   C22137269   1.643   0.802   2.215 -0.1221  0.3201 -0.8234
   45MOL   C22237270   1.750   0.754   2.313  0.5030  0.7724 -0.1232
   45MOL   C22337271   1.785   0.867   2.414  0.3587 -0.7556  0.1047
   45MOL   C22437272   1.875   0.820   2.529  0.4806  0.2772  0.1974
   45MOL   C22537273   1.895   0.932   2.635  0.3187 -0.2979 -0.1250
   45MOL   H22637274   1.660   7.578   1.571 -0.2051  0.4480 -0.2474
   45MOL   H22737275   1.523   7.621   1.660 -0.7280  1.9982 -0.0476
   45MOL   H22837276   1.564   0.147   1.488 -0.4898 -0.2192  0.6908
   45MOL   H22937277   1.463   0.123   1.724  0.2183 -3.0678 -1.9256
   45MOL   H23037278   1.619   0.123   1.792 -0.0484 -0.3467 -0.0481
   45MOL   H23137279   1.528   0.368   1.628  0.8039 -0.3164 -0.5256
   45MOL   H23237280   1.671   0.341   1.718  0.3775  0.0866  0.6313
   45MOL   H23337281   1.534   0.320   1.922 -1.6450 -0.0229 -0.4992
   45MOL   H23437282   1.391   0.355   1.817 -1.7964  1.1511 -0.6498
   45MOL   H23537283   1.475   0.572   1.764 -1.6009  2.0895  1.6463
   45MOL   H23637284   1.625   0.546   1.871  1.0963 -1.3156 -0.9066
   45MOL   H23737285   1.337   0.590   1.936  0.4418 -0.2315 -1.3255
   45MOL   H23837286   1.434   0.511   2.054  0.1549  2.2788  2.3178
   45MOL   H23937287   1.544   0.762   1.941 -1.7045  1.3467 -0.5890
   45MOL   H24037288   1.412   0.773   2.062  0.3596 -0.4669 -0.8166
   45MOL   H24137289   1.694   0.632   2.082  1.4406  3.1923 -1.4248
   45MOL   H24237290   1.574   0.599   2.196  2.9100  0.4485  2.1993
   45MOL   H24337291   1.692   0.876   2.152  0.9305 -0.1004 -0.5067
   45MOL   H24437292   1.555   0.851   2.257  0.4153 -0.8197  1.7206
   45MOL   H24537293   1.839   0.719   2.260  0.9504 -0.6243  1.4779
   45MOL   H24637294   1.704   0.670   2.366 -0.0625  2.3508  1.9159
   45MOL   H24737295   1.692   0.896   2.463 -0.8274 -3.1225 -0.6980
   45MOL   H24837296   1.820   0.961   2.372 -0.3821 -0.3886  0.3023
   45MOL   H24937297   1.972   0.786   2.493  0.5526 -0.9103  1.4745
   45MOL   H25037298   1.819   0.740   2.578  0.8724  0.1949  0.5186
   45MOL   H25137299   1.966   1.011   2.611 -0.1298  0.1752  0.0930
   45MOL   H25237300   1.808   0.986   2.671  1.8945  1.5310  0.9990
   45MOL   H25337301   1.945   0.900   2.726  1.3885  0.5993 -0.3833
   45MOL   C25437302   1.763   0.120   1.551  0.3290  0.0698  0.0055
   45MOL   C25537303   1.829   0.079   1.416 -0.5120 -0.7142 -0.1183
   45MOL   C25637304   1.768   0.146   1.292 -0.6235  0.7569 -0.3487
   45MOL   C25737305   1.795   0.077   1.154  0.5090  0.1050 -1.0757
   45MOL   C25837306   1.724   0.162   1.045  0.3292 -0.0098  0.0066
   45MOL   C25937307   1.755   0.102   0.911  0.7928  0.8520  0.0293
   45MOL   C26037308   1.687   0.175   0.792  0.4389 -0.2485  0.1933
   45MOL   C26137309   1.683   0.095   0.659 -0.2924 -1.1602 -0.2034
   45MOL   C26237310   1.619   0.170   0.545 -0.5346  0.5518  0.7742
   45MOL   C26337311   1.593   0.091   0.411  0.0518 -0.0684 -0.3632
   45MOL   C26437312   1.705   0.090   0.308  0.2490 -0.6082  0.0739
   45MOL   C26537313   1.655   0.030   0.178  0.0350 -0.5312  0.3341
   45MOL   C26637314   1.755   0.047   0.061  0.2371  0.5506 -0.2366
   45MOL   C26737315   1.711   0.003   7.618 -0.0534  0.2897  0.4198
   45MOL   H26837316   1.811   0.057   1.626  0.3344  1.1852  0.9551
   45MOL   H26937317   1.799   0.222   1.568 -0.3325  0.5371 -1.3158
   45MOL   H27037318   1.807   7.668   1.422 -1.1029 -0.5973 -0.1766
   45MOL   H27137319   1.810   0.247   1.282  0.6314  0.3989  1.1409
   45MOL   H27237320   1.660   0.158   1.301 -1.4864 -5.0216 -1.2417
   45MOL   H27337321   1.750   7.673   1.156  0.4142  0.1170  2.8002
   45MOL   H27437322   1.903   0.069   1.144  0.8605  2.8872  0.0399
   45MOL   H27537323   1.765   0.263   1.046  1.0442 -0.2937  1.1130
   45MOL   H27637324   1.619   0.174   1.072  0.6817 -0.5175  1.7040
   45MOL   H27737325   1.726   7.692   0.906  2.4921  0.2086  2.8188
   45MOL   H27837326   1.862   0.106   0.893  0.7558  0.1331 -0.3830
   45MOL   H27937327   1.588   0.208   0.823  0.9010  0.0755  1.3549
   45MOL   H28037328   1.749   0.262   0.773  0.8440 -0.5401  0.1576
   45MOL   H28137329   1.627   0.002   0.671  2.5345 -2.8946  0.0294
   45MOL   H28237330   1.784   0.064   0.633  0.0322  0.5653 -1.1168
   45MOL   H28337331   1.518   0.189   0.581 -1.0279  0.3253 -0.4618
   45MOL   H28437332   1.673   0.264   0.535 -0.0927  0.1031 -1.2537
   45MOL   H28537333   1.518   0.147   0.355 -0.1812  0.6310  0.6404
   45MOL   H28637334   1.557   7.685   0.425  0.2747 -0.2488 -1.0468
   45MOL   H28737335   1.792   0.032   0.338  0.1652 -0.8383 -0.1253
   45MOL   H28837336   1.739   0.193   0.304 -0.8679 -0.2230  0.3130
   45MOL   H28937337   1.619   7.624   0.197 -1.9405 -0.1043 -0.9720
   45MOL   H29037338   1.564   0.079   0.144 -1.1686 -2.2555  0.9963
   45MOL   H29137339   1.780   0.152   0.043  0.9873  0.3398 -0.4288
   45MOL   H29237340   1.843   7.681   0.080  0.7259  1.0993 -0.6820
   45MOL   H29337341   1.661   7.602   7.626 -1.7368  0.8588 -2.4486
   45MOL   H29437342   1.800   0.003   7.555  0.2629  0.3130  0.8651
   45MOL   H29537343   1.638   0.067   7.568 -2.1788 -1.5891  1.0053
   45MOL   C29637344   1.983   0.093   1.417  0.1087  0.4614 -0.4081
   45MOL   C29737345   2.062   7.669   1.354  0.1735  0.0248  0.6472
   45MOL   C29837346   2.191   0.040   1.292 -0.3829  0.0760  0.0961
   45MOL   C29937347   2.278   7.649   1.195  0.4586 -0.3912  0.0348
   45MOL   C30037348   2.211   7.551   1.095  0.9426 -0.0914 -0.0431
   45MOL   C30137349   2.144   7.631   0.986  0.9988  0.1356  0.3345
   45MOL   C30237350   2.081   7.546   0.870  0.7790  0.2693 -0.9389
   45MOL   C30337351   1.957   7.465   0.908 -0.1934 -0.2919 -0.0254
   45MOL   C30437352   1.879   7.413   0.784 -0.0785  0.7850  0.5314
   45MOL   C30537353   1.769   7.319   0.837  0.2557  0.3684 -0.2592
   45MOL   C30637354   1.663   7.284   0.723  0.0311  0.4915 -0.6945
   45MOL   C30737355   1.583   7.403   0.663 -0.2856 -0.1704  0.6507
   45MOL   C30837356   1.459   7.338   0.595 -0.3833 -0.1059 -0.0820
   45MOL   C30937357   1.366   7.441   0.521  0.1658  0.1003  0.0640
   45MOL   H31037358   2.019   0.105   1.519  1.6224 -0.2874 -0.8414
   45MOL   H31137359   2.014   0.195   1.392 -0.6610  2.0918  4.7307
   45MOL   H31237360   2.011   7.628   1.267  3.0705 -0.6642 -0.8139
   45MOL   H31337361   2.248   0.090   1.372 -1.5679 -0.5528  1.3537
   45MOL   H31437362   2.162   0.122   1.227 -0.6569  0.2227  0.4003
   45MOL   H31537363   2.337   7.597   1.270 -0.4384 -1.6340 -0.1034
   45MOL   H31637364   2.357   0.005   1.141  0.9429 -1.7856 -0.6068
   45MOL   H31737365   2.305   7.510   1.056  0.7927  1.1540 -1.8288
   45MOL   H31837366   2.143   7.479   1.139  2.5254 -1.0041  0.9578
   45MOL   H31937367   2.216   7.690   0.930 -1.8887  1.9201 -1.6280
   45MOL   H32037368   2.073   0.008   1.027 -0.5724 -1.4168  0.4248
   45MOL   H32137369   2.046   7.620   0.798 -0.0672 -0.4185 -1.2375
   45MOL   H32237370   2.149   7.491   0.804 -1.8863 -1.6242 -2.1822
   45MOL   H32337371   1.895   7.510   0.986 -0.2353 -0.3349 -0.0340
   45MOL   H32437372   1.996   7.381   0.964  1.0006 -0.1233 -0.5860
   45MOL   H32537373   1.830   7.492   0.727 -1.6714  0.0401  0.8362
   45MOL   H32637374   1.940   7.370   0.704  0.4535  1.5529  0.5212
   45MOL   H32737375   1.718   7.363   0.922  0.6190 -0.2893  0.3012
   45MOL   H32837376   1.817   7.229   0.876  2.2031  1.3699 -0.2706
   45MOL   H32937377   1.589   7.220   0.771  0.6847 -1.2001 -1.8933
   45MOL   H33037378   1.711   7.218   0.650  0.3807 -0.8697  0.7391
   45MOL   H33137379   1.646   7.461   0.595 -0.1111  1.2906  2.0355
   45MOL   H33237380   1.553   7.475   0.739  0.8578  0.3774  0.5908
   45MOL   H33337381   1.393   7.281   0.661 -0.3544 -3.3941 -2.7790
   45MOL   H33437382   1.491   7.264   0.522  2.0846  1.4402 -0.5947
   45MOL   H33537383   1.273   7.388   0.500  0.3287  0.0115 -0.4427
   45MOL   H33637384   1.354   7.531   0.581  1.0568  2.3203 -2.9576
   45MOL   H33737385   1.412   7.469   0.426  0.5367 -0.4492  0.0783
   45MOL   C33837386   2.095   7.561   1.462  0.2489 -0.2074  0.3402
   45MOL   C33937387   1.984   7.453   1.483  0.3652  0.1640  0.0838
   45MOL   C34037388   1.987   7.344   1.377 -0.0013  0.0195  0.4086
   45MOL   C34137389   1.885   7.228   1.381 -0.0049 -0.1479  0.6293
   45MOL   C34237390   1.921   7.117   1.284  0.1173 -0.2952 -0.2606
   45MOL   C34337391   1.821   6.996   1.287  0.4119 -0.2467 -0.2591
   45MOL   C34437392   1.866   6.875   1.204  0.3132  0.6765 -0.1063
   45MOL   C34537393   1.849   6.900   1.050 -0.0897  0.8146  0.3512
   45MOL   C34637394   1.699   6.907   1.021  0.0542 -0.1500 -0.1635
   45MOL   C34737395   1.679   6.896   0.873  0.6273  0.1564 -0.4273
   45MOL   C34837396   1.539   6.922   0.829  0.6035 -0.0265  0.3026
   45MOL   C34937397   1.519   6.915   0.681  0.5173  0.0707  0.7717
   45MOL   C35037398   1.366   6.939   0.662  0.4610 -0.5958 -0.5053
   45MOL   C35137399   1.333   6.931   0.517 -0.1290 -0.2843  0.3056
   45MOL   H35237400   2.189   7.514   1.432 -0.1906 -0.5830 -0.4542
   45MOL   H35337401   2.110   7.611   1.557  0.6773 -0.2709  0.3076
   45MOL   H35437402   1.889   7.507   1.480 -0.1558 -0.7455  0.1182
   45MOL   H35537403   1.963   7.395   1.283 -0.6108  0.8549  1.0121
   45MOL   H35637404   2.088   7.302   1.370 -0.1951 -0.7422  2.1536
   45MOL   H35737405   1.782   7.258   1.359  0.5252  0.9657 -0.4024
   45MOL   H35837406   1.891   7.191   1.483 -0.4272  0.7068  0.9648
   45MOL   H35937407   2.023   7.088   1.310  0.5585  0.3540 -1.2761
   45MOL   H36037408   1.921   7.155   1.183  4.6375 -0.8665 -0.5652
   45MOL   H36137409   1.809   6.960   1.389  1.3661 -0.5491 -0.2485
   45MOL   H36237410   1.720   7.028   1.260 -0.1958 -0.5760  1.5654
   45MOL   H36337411   1.969   6.846   1.223 -0.2889 -0.2011  1.9619
   45MOL   H36437412   1.812   6.785   1.232 -2.8222  1.9721 -1.6883
   45MOL   H36537413   1.889   6.996   1.015  0.4318  1.6808  3.1905
   45MOL   H36637414   1.896   6.819   0.995 -1.1012  0.9103 -0.6636
   45MOL   H36737415   1.633   6.841   1.076 -0.3057  0.6198  0.3341
   45MOL   H36837416   1.672   7.008   1.051  1.5994  1.1214 -2.8815
   45MOL   H36937417   1.747   6.965   0.823  0.4030  0.5252 -0.2275
   45MOL   H37037418   1.713   6.803   0.828 -1.1575 -0.6413 -0.1541
   45MOL   H37137419   1.505   7.018   0.867 -1.7204 -1.0251  0.8140
   45MOL   H37237420   1.480   6.843   0.877  0.1360 -0.1362 -0.4542
   45MOL   H37337421   1.561   6.821   0.646 -0.2968 -0.0630  0.1155
   45MOL   H37437422   1.581   6.991   0.634 -1.4517  1.6018  0.5833
   45MOL   H37537423   1.304   6.878   0.727  1.2292  0.7101  1.5433
   45MOL   H37637424   1.343   7.035   0.708 -1.6959 -1.0702 -0.5611
   45MOL   H37737425   1.417   6.963   0.456 -0.0791  2.1468  1.5809
   45MOL   H37837426   1.298   6.834   0.482 -1.1257  1.1027 -2.6971
   45MOL   H37937427   1.243   6.990   0.498 -0.3881 -1.0322 -0.8401
   45MOL   C38037428   1.994   7.393   1.629  0.2916 -0.0670 -0.0504
   45MOL   C38137429   1.986   7.486   1.757  0.3144 -0.2798  0.7990
   45MOL   C38237430   1.854   7.475   1.833 -0.3340  0.2599  0.2608
   45MOL   C38337431   1.830   7.577   1.959 -0.3993  0.6296  0.1330
   45MOL   C38437432   1.704   7.549   2.045 -0.0318  0.6292 -0.4442
   45MOL   C38537433   1.572   7.557   1.967 -0.5370 -0.0843 -0.2120
   45MOL   C38637434   1.441   7.529   2.047 -0.1201 -0.2505 -0.4021
   45MOL   C38737435   1.377   7.649   2.116  0.2041  0.2059 -0.0271
   45MOL   C38837436   1.357   0.072   2.023 -0.0139 -0.4601 -0.7531
   45MOL   C38937437   1.293   0.195   2.081 -0.0902  0.7726 -0.0163
   45MOL   C39037438   1.141   0.198   2.068  0.1749 -0.2108  0.1998
   45MOL   C39137439   1.078   0.288   2.178  1.0933  0.5307 -0.3267
   45MOL   C39237440   1.084   0.434   2.138  0.2457 -0.1821 -0.3953
   45MOL   C39337441   0.975   0.513   2.206  0.0684  0.2323  0.1326
   45MOL   H39437442   2.094   7.351   1.639  1.1288  2.3513  2.6745
   45MOL   H39537443   1.918   7.317   1.646 -1.0555  0.8874 -1.7199
   45MOL   H39637444   1.988   7.592   1.729 -1.8937 -0.4529 -0.1315
   45MOL   H39737445   1.842   7.369   1.856  0.7038 -0.5134 -2.4846
   45MOL   H39837446   1.777   7.491   1.757 -1.9668  1.8235  2.1902
   45MOL   H39937447   1.841   7.679   1.925 -0.0346  0.5421 -0.0157
   45MOL   H40037448   1.909   7.572   2.033 -1.0018 -1.5305  0.6883
   45MOL   H40137449   1.703   7.638   2.107  0.3540  1.4359 -1.5812
   45MOL   H40237450   1.706   7.461   2.110  2.4361  1.0071  0.0316
   45MOL   H40337451   1.589   7.471   1.902  0.3421  0.0186 -0.1177
   45MOL   H40437452   1.573   7.646   1.904  2.3561  0.4386  0.4925
   45MOL   H40537453   1.365   7.490   1.981 -0.7336 -0.8527  0.6403
   45MOL   H40637454   1.458   7.445   2.115 -1.2842 -0.5823 -0.5112
   45MOL   H40737455   1.279   7.612   2.144  0.4247 -0.9043 -0.7029
   45MOL   H40837456   1.431   7.662   2.210  0.0227 -0.1724  0.1263
   45MOL   H40937457   1.452   0.100   1.978  1.8450  0.6251  3.5585
   45MOL   H41037458   1.295   0.041   1.939 -0.3570 -0.7475 -0.4003
   45MOL   H41137459   1.335   0.286   2.037  0.0921  0.0917 -1.2859
   45MOL   H41237460   1.323   0.204   2.185  1.8011  1.0932 -0.5750
   45MOL   H41337461   1.112   0.236   1.970  2.8639 -4.4078 -2.3816
   45MOL   H41437462   1.105   0.096   2.081  1.2217 -0.7028 -0.7736
   45MOL   H41537463   1.118   0.271   2.278 -0.6468 -0.5137  0.2102
   45MOL   H41637464   0.974   0.260   2.191  0.5937  1.1855 -2.5934
   45MOL   H41737465   1.184   0.459   2.173  0.4737  0.3178 -1.3885
   45MOL   H41837466   1.086   0.455   2.031  0.2151 -0.9517 -0.5534
   45MOL   H41937467   0.883   0.465   2.173  0.1747 -0.0289  0.2178
   45MOL   H42037468   0.978   0.621   2.192 -0.2644  0.2527  0.2054
   45MOL   H42137469   0.975   0.511   2.315  1.2096  0.2350  0.1358
   45MOL   C42237470   2.098   7.440   1.856  0.0685  0.0185  0.1008
   45MOL   C42337471   2.240   7.488   1.818  0.6313  0.7703  0.0537
   45MOL   C42437472   2.259   7.641   1.802  0.1839 -0.5939 -0.3127
   45MOL   C42537473   2.385   7.687   1.730 -0.8739 -0.0183 -0.3475
   45MOL   C42637474   2.377   0.137   1.684  0.5051 -0.8613  0.6194
   45MOL   C42737475   2.476   0.162   1.571 -0.1250  0.1801  0.0558
   45MOL   C42837476   2.475   0.307   1.516 -0.3764  0.2128 -1.0797
   45MOL   C42937477   2.510   0.317   1.369 -0.1264 -0.1517 -0.0146
   45MOL   C43037478   2.570   0.448   1.313 -0.4101  0.1398 -0.0374
   45MOL   C43137479   2.611   0.418   1.163  0.1350 -0.6067  0.1124
   45MOL   C43237480   2.650   0.549   1.083 -0.7494 -0.5727  0.3023
   45MOL   C43337481   2.662   0.525   0.932  0.3851 -0.2769 -0.1210
   45MOL   C43437482   2.680   0.665   0.860  0.0196  0.3969  0.0575
   45MOL   C43537483   2.660   0.661   0.707 -0.3116 -0.2116 -0.2403
   45MOL   H43637484   2.097   7.331   1.857 -1.4849 -0.0658 -3.4799
   45MOL   H43737485   2.080   7.479   1.956 -0.4108 -0.2780  0.1320
   45MOL   H43837486   2.257   7.446   1.719  1.0324  1.8785 -0.3532
   45MOL   H43937487   2.238   7.691   1.897 -0.8380 -0.7888 -0.4240
   45MOL   H44037488   2.174   7.676   1.743  2.6363  2.2073 -2.3234
   45MOL   H44137489   2.474   7.670   1.790 -0.5190 -0.8587 -1.1088
   45MOL   H44237490   2.387   7.625   1.640 -0.1627 -0.7177  0.1503
   45MOL   H44337491   2.407   0.199   1.768  1.7722 -1.1810  0.4073
   45MOL   H44437492   2.279   0.159   1.641  1.0445 -2.3747 -1.5179
   45MOL   H44537493   2.451   0.095   1.489 -1.2724 -0.7898  1.1664
   45MOL   H44637494   2.580   0.143   1.599  0.5401  0.9350 -1.8458
   45MOL   H44737495   2.382   0.362   1.530 -1.0195 -0.8083 -1.2799
   45MOL   H44837496   2.563   0.353   1.561 -0.6682  0.6456 -0.9467
   45MOL   H44937497   2.598   0.254   1.361 -0.5293 -0.7730  0.3724
   45MOL   H45037498   2.436   0.277   1.300 -0.4836 -1.1799  0.9423
   45MOL   H45137499   2.494   0.526   1.309  0.7520  1.3901  1.2872
   45MOL   H45237500   2.656   0.478   1.374  0.4900 -0.7186 -0.8661
   45MOL   H45337501   2.680   0.334   1.158 -1.8206 -2.1439 -1.9926
   45MOL   H45437502   2.513   0.401   1.119 -0.2290  0.9996  0.2461
   45MOL   H45537503   2.577   0.624   1.115 -0.0218  0.6407 -0.7941
   45MOL   H45637504   2.738   0.590   1.131  0.3574 -1.6504 -0.7631
   45MOL   H45737505   2.567   0.490   0.892 -0.0686  2.5724 -1.6574
   45MOL   H45837506   2.735   0.458   0.885 -2.7904 -3.1714 -1.1659
   45MOL   H45937507   2.593   0.720   0.896  0.4201  0.4104  1.0294
   45MOL   H46037508   2.767   0.722   0.892 -0.8933  1.8016  0.0969
   45MOL   H46137509   2.558   0.649   0.671 -1.0179  3.1230  0.4806
   45MOL   H46237510   2.713   0.572   0.672 -0.1735 -0.3609  0.3509
   45MOL   H46337511   2.709   0.742   0.653 -0.8710 -0.0630 -0.5284
   45MOL   C46437512   2.350   7.419   1.899  0.5619 -0.5405  0.2295
   45MOL   C46537513   2.448   7.340   1.809 -0.3318  0.6430  0.2953
   45MOL   C46637514   2.579   7.304   1.901 -0.2663 -0.0527  0.1628
   45MOL   C46737515   2.554   7.228   2.038  0.0409  0.0453  0.0735
   45MOL   C46837516   2.668   7.135   2.067  0.4404  1.1920  0.4008
   45MOL   C46937517   2.647   7.060   2.199 -0.3386  0.2703  0.2180
   45MOL   C47037518   2.657   7.142   2.329 -0.5360 -0.9722  0.0986
   45MOL   C47137519   2.653   7.056   2.454 -0.3570  0.6722 -0.1214
   45MOL   C47237520   2.521   6.997   2.513 -0.1173  0.2221  0.4986
   45MOL   C47337521   2.414   7.105   2.535 -0.1737  0.5246 -1.2402
   45MOL   C47437522   2.279   7.051   2.592 -0.4350 -0.1937 -0.6654
   45MOL   C47537523   2.186   7.159   2.645  0.2028  0.4649 -0.7269
   45MOL   C47637524   2.039   7.124   2.679 -0.8028 -0.0038  0.3605
   45MOL   C47737525   1.950   7.230   2.733  0.6145 -0.3165  0.2124
   45MOL   H47837526   2.305   7.358   1.976 -1.4283  0.8844  0.2464
   45MOL   H47937527   2.413   7.496   1.945 -0.3030 -0.1110  0.7185
   45MOL   H48037528   2.487   7.405   1.730  0.4031 -0.0693  0.0621
   45MOL   H48137529   2.639   7.248   1.830  2.6769  0.9255  1.7912
   45MOL   H48237530   2.633   7.395   1.927  2.1133 -1.4927  0.4130
   45MOL   H48337531   2.461   7.172   2.050  0.8108 -1.7418 -2.1666
   45MOL   H48437532   2.551   7.310   2.110  2.8545 -0.0600  0.3756
   45MOL   H48537533   2.760   7.193   2.069  1.1561  0.0796  0.0147
   45MOL   H48637534   2.678   7.071   1.979 -1.3743  3.2796 -1.4237
   45MOL   H48737535   2.558   6.997   2.193  0.0685 -0.4079  1.1793
   45MOL   H48837536   2.732   6.992   2.188  0.3259  1.4572 -2.4616
   45MOL   H48937537   2.754   7.192   2.336 -0.2819 -1.7384  2.6480
   45MOL   H49037538   2.575   7.212   2.338 -0.4072 -0.9298  1.0839
   45MOL   H49137539   2.723   6.973   2.446 -2.2985 -1.0443  0.2734
   45MOL   H49237540   2.691   7.122   2.532  1.3475 -0.2648 -0.1171
   45MOL   H49337541   2.489   6.918   2.445 -1.2544  0.8050  0.3427
   45MOL   H49437542   2.531   6.938   2.604 -1.0166 -0.4732  0.1586
   45MOL   H49537543   2.458   7.181   2.599 -1.1479  0.1140 -0.0404
   45MOL   H49637544   2.390   7.161   2.445 -3.4639  0.3904 -0.5056
   45MOL   H49737545   2.238   6.992   2.510 -0.3210 -1.6526  0.3028
   45MOL   H49837546   2.289   6.983   2.677  2.2309  1.3770  0.3551
   45MOL   H49937547   2.184   7.238   2.570  0.3516 -0.2611 -1.4961
   45MOL   H50037548   2.234   7.198   2.735 -0.0268 -0.6398 -0.1189
   45MOL   H50137549   1.994   7.089   2.586  1.1130  0.4269 -0.7754
   45MOL   H50237550   2.048   7.040   2.748  0.4087 -1.3567 -1.3734
   45MOL   H50337551   1.850   7.200   2.764 -0.8040  3.1564 -0.7799
   45MOL   H50437552   1.983   7.261   2.832  0.2989 -0.9552  0.5200
   45MOL   H50537553   1.939   7.318   2.669 -1.5166 -0.9307 -0.2951
   45MOL   C50637554   2.385   7.205   1.757 -0.3766  0.5834 -0.6162
   45MOL   C50737555   2.433   7.151   1.620 -0.3831  0.3004 -0.3496
   45MOL   C50837556   2.416   6.994   1.614  0.4556 -0.5341  0.1589
   45MOL   C50937557   2.520   6.911   1.687  0.3990  0.0921 -0.0470
   45MOL   C51037558   2.496   6.756   1.680  0.1474 -0.4047 -0.4079
   45MOL   C51137559   2.611   6.672   1.741  0.1066  0.6190  0.3461
   45MOL   C51237560   2.586   6.527   1.727 -0.3540 -0.0514  0.5862
   45MOL   C51337561   2.675   6.438   1.812  0.1252 -0.1665 -0.5102
   45MOL   C51437562   2.637   6.296   1.791 -0.2910  0.5265  0.1645
   45MOL   C51537563   2.681   6.204   1.911 -0.0534  0.6731 -0.9183
   45MOL   C51637564   2.824   6.227   1.957  0.0585 -0.2458 -0.2384
   45MOL   C51737565   2.854   6.149   2.086  0.0574 -0.4368 -0.3319
   45MOL   C51837566   3.005   6.133   2.111  0.8165 -0.5264 -0.5822
   45MOL   C51937567   3.066   6.255   2.182 -0.1835 -0.8885  0.0960
   45MOL   H52037568   2.277   7.212   1.740 -0.4688  1.4414  0.2938
   45MOL   H52137569   2.391   7.125   1.830 -3.0091  0.0748 -0.8963
   45MOL   H52237570   2.540   7.168   1.625 -0.1192 -0.5206 -2.6451
   45MOL   H52337571   2.313   6.968   1.640  0.5475 -0.8724  0.1850
   45MOL   H52437572   2.417   6.965   1.509 -2.7731 -1.7947  0.4137
   45MOL   H52537573   2.623   6.926   1.656  0.7087 -2.0435 -0.0913
   45MOL   H52637574   2.513   6.949   1.789  0.4679  1.3891 -0.5035
   45MOL   H52737575   2.462   6.730   1.580  0.9939  0.2664 -0.8840
   45MOL   H52837576   2.406   6.727   1.733 -0.9686  2.6234 -0.5342
   45MOL   H52937577   2.637   6.694   1.845  1.1430  3.8219 -0.5471
   45MOL   H53037578   2.700   6.691   1.682 -0.7118  0.7070 -0.8648
   45MOL   H53137579   2.481   6.520   1.755 -0.6423  0.4274 -0.3815
   45MOL   H53237580   2.596   6.488   1.626 -2.8231 -0.8077  0.5997
   45MOL   H53337581   2.668   6.474   1.914  3.7572 -0.4800 -0.0843
   45MOL   H53437582   2.778   6.458   1.780 -0.5329  1.0578 -1.9526
   45MOL   H53537583   2.683   6.269   1.696 -1.3418  1.9395 -0.7741
   45MOL   H53637584   2.529   6.289   1.772  0.1299  1.3547 -2.8412
   45MOL   H53737585   2.625   6.231   2.000 -0.3253  0.5476 -1.0489
   45MOL   H53837586   2.652   6.100   1.892  0.9716  0.3913 -0.9769
   45MOL   H53937587   2.896   6.200   1.880  0.4900  1.5372 -0.4643
   45MOL   H54037588   2.835   6.334   1.976 -2.1849 -0.1096  0.4774
   45MOL   H54137589   2.812   6.051   2.066  0.9537 -0.4968 -1.9613
   45MOL   H54237590   2.792   6.196   2.163 -0.6922  1.1133 -1.8361
   45MOL   H54337591   3.049   6.120   2.013  0.0296  2.8716 -1.4385
   45MOL   H54437592   3.026   6.039   2.162 -2.2063 -1.9651 -1.8898
   45MOL   H54537593   3.175   6.260   2.181 -0.1629  0.3084 -5.4558
   45MOL   H54637594   3.043   6.346   2.127  0.2803 -1.1408 -0.5274
   45MOL   H54737595   3.036   6.254   2.287 -1.1381 -0.1164 -0.1692
   45MOL   C54837596   2.374   7.224   1.500 -0.1806  0.6569 -0.5564
   45MOL   C54937597   2.486   7.242   1.392  0.4433  0.5551 -0.3134
   45MOL   C55037598   2.412   7.281   1.256  0.4242 -0.1131  0.2043
   45MOL   C55137599   2.330   7.166   1.197  0.0930 -0.3855 -0.3111
   45MOL   C55237600   2.287   7.191   1.050  0.5580  0.5271 -0.7434
   45MOL   C55337601   2.198   7.088   0.977 -0.1836  0.3553 -0.1863
   45MOL   C55437602   2.163   7.126   0.834  0.2062 -0.0563 -0.6622
   45MOL   C55537603   2.074   7.024   0.763 -0.0537 -0.2387 -0.0669
   45MOL   C55637604   2.026   7.070   0.617 -0.5283  0.7347 -0.3695
   45MOL   C55737605   1.938   6.959   0.551  0.0414  0.3424 -0.7532
   45MOL   C55837606   1.891   6.985   0.408 -0.3435  0.1191 -0.1180
   45MOL   C55937607   1.787   6.883   0.359  0.3696  0.1921  0.4924
   45MOL   C56037608   1.729   6.912   0.222  0.1049  0.1686  0.1068
   45MOL   C56137609   1.614   6.813   0.200  0.5090 -0.1833  0.5519
   45MOL   H56237610   2.291   7.161   1.468  2.1494 -2.1877 -1.2077
   45MOL   H56337611   2.328   7.320   1.524  0.9300  0.2408  3.6888
   45MOL   H56437612   2.531   7.144   1.374 -3.0855 -1.2211 -0.0008
   45MOL   H56537613   2.355   7.372   1.273 -2.0196 -1.2107 -1.8406
   45MOL   H56637614   2.484   7.308   1.179 -3.2056  2.1956 -2.5123
   45MOL   H56737615   2.243   7.152   1.261  0.9581 -1.3389  0.6778
   45MOL   H56837616   2.390   7.075   1.193 -2.0062 -1.7759 -1.0005
   45MOL   H56937617   2.240   7.289   1.042 -0.7263  0.0105  0.2071
   45MOL   H57037618   2.381   7.202   0.996  0.1577  0.8894 -1.3723
   45MOL   H57137619   2.110   7.082   1.041 -0.0179  0.8566  0.0965
   45MOL   H57237620   2.232   6.985   0.982 -0.5506  0.2501  0.1630
   45MOL   H57337621   2.109   7.221   0.836  1.4925  0.6652  2.0454
   45MOL   H57437622   2.259   7.122   0.782 -0.6344  1.7201 -2.4278
   45MOL   H57537623   1.983   7.014   0.822  0.5344 -1.0554  0.7291
   45MOL   H57637624   2.128   6.930   0.773 -0.9240 -0.5570  1.8898
   45MOL   H57737625   2.107   7.098   0.549  0.4729 -3.1205 -0.8912
   45MOL   H57837626   1.981   7.169   0.620  1.8600  1.8564 -0.3556
   45MOL   H57937627   1.989   6.862   0.542  0.8486  0.6749  0.1000
   45MOL   H58037628   1.852   6.949   0.617 -0.2361  2.6411 -0.7384
   45MOL   H58137629   1.977   6.986   0.341 -0.5678 -0.4596 -0.4213
   45MOL   H58237630   1.845   7.082   0.390 -0.2325 -0.1146 -1.7026
   45MOL   H58337631   1.816   6.778   0.353 -2.2574 -0.5225 -0.3266
   45MOL   H58437632   1.701   6.879   0.425 -1.1528  0.4189 -1.4494
   45MOL   H58537633   1.689   7.011   0.201  1.4100  0.2795 -2.1050
   45MOL   H58637634   1.804   6.890   0.145  3.8877  0.5291  3.5388
   45MOL   H58737635   1.595   6.790   0.095  1.2974 -0.0786  0.3825
   45MOL   H58837636   1.617   6.721   0.259  1.0873 -1.0283 -0.7757
   45MOL   H58937637   1.524   6.850   0.249 -1.0275 -1.4187 -1.2467
   45MOL   C59037638   2.592   7.340   1.431 -0.2545  0.7043  0.3549
   45MOL   C59137639   2.721   7.342   1.335  0.2489  0.2827  0.3913
   45MOL   C59237640   2.801   7.474   1.332  0.5474 -0.2582  0.3407
   45MOL   C59337641   2.724   7.594   1.284  0.2493 -0.2000  1.0434
   45MOL   C59437642   2.699   7.580   1.130 -0.0586 -0.4442  0.2310
   45MOL   C59537643   2.677   0.018   1.060  0.0267 -0.7075  0.5056
   45MOL   C59637644   2.653   0.014   0.903  0.0231 -0.2591  0.3417
   45MOL   C59737645   2.638   0.154   0.842  0.3265  0.2755 -0.6631
   45MOL   C59837646   2.610   0.143   0.687 -0.6302 -0.6456  0.5383
   45MOL   C59937647   2.560   0.282   0.617 -0.4246  0.4990 -0.0034
   45MOL   C60037648   2.514   0.263   0.470  0.1717  0.2764 -0.8942
   45MOL   C60137649   2.464   0.383   0.396 -0.1296 -0.0813  0.1234
   45MOL   C60237650   2.391   0.343   0.275 -0.5495 -0.4089 -0.5477
   45MOL   C60337651   2.305   0.449   0.207  0.5907 -0.4925  0.3466
   45MOL   H60437652   2.620   7.337   1.536 -1.8464  1.1947  0.8101
   45MOL   H60537653   2.537   7.433   1.413 -0.8790  0.1128 -0.8907
   45MOL   H60637654   2.686   7.324   1.234 -4.3126 -1.1297  2.0901
   45MOL   H60737655   2.889   7.457   1.271  1.1918  2.3426  0.4851
   45MOL   H60837656   2.841   7.486   1.433 -0.4846 -3.1334  1.1353
   45MOL   H60937657   2.782   7.679   1.319 -2.7964  1.0794  3.1560
   45MOL   H61037658   2.635   7.626   1.338  0.8019  0.7230  1.4133
   45MOL   H61137659   2.608   7.522   1.114 -1.7073  1.7392  1.4818
   45MOL   H61237660   2.774   7.524   1.073 -0.2376 -1.6269  1.1271
   45MOL   H61337661   2.765   0.083   1.066 -0.0012 -0.7820  1.8324
   45MOL   H61437662   2.602   0.076   1.114  0.1635 -0.5833  0.5636
   45MOL   H61537663   2.725   7.655   0.842  0.2253  0.2208  0.1497
   45MOL   H61637664   2.560   7.655   0.882  1.2221 -1.6338 -1.6153
   45MOL   H61737665   2.552   0.203   0.888  0.7309  1.7005 -1.3789
   45MOL   H61837666   2.718   0.223   0.870  0.2873 -0.2088  0.6423
   45MOL   H61937667   2.701   0.105   0.640 -1.6182 -2.3905 -0.0167
   45MOL   H62037668   2.530   0.071   0.670  1.8710 -3.8723  1.8724
   45MOL   H62137669   2.485   0.328   0.682  0.3616  1.7805 -0.0127
   45MOL   H62237670   2.650   0.342   0.622  0.4171 -0.6731 -1.0473
   45MOL   H62337671   2.436   0.188   0.486  1.1636 -0.5291  0.3071
   45MOL   H62437672   2.598   0.222   0.414 -0.3686 -0.3803 -1.2315
   45MOL   H62537673   2.529   0.467   0.372 -0.0911  0.0120  0.5486
   45MOL   H62637674   2.394   0.427   0.467  1.1655  0.7875  0.8814
   45MOL   H62737675   2.461   0.299   0.204 -0.2396 -0.2539 -0.3370
   45MOL   H62837676   2.321   0.264   0.304  0.5741 -1.5313 -0.8103
   45MOL   H62937677   2.231   0.406   0.140 -1.6380  1.2117  1.6405
   45MOL   H63037678   2.363   0.523   0.151  1.2239 -0.4318  1.0810
   45MOL   H63137679   2.251   0.504   0.284 -0.5983  0.9533 -1.4481
   45MOL   C63237680   2.808   7.219   1.375  0.2171  0.3727  0.4240
   45MOL   C63337681   2.915   7.164   1.265  0.5007 -0.1244 -0.0225
   45MOL   C63437682   3.027   7.087   1.347  0.7479 -0.5305  0.0656
   45MOL   C63537683   3.164   7.086   1.283  0.1638  0.3520  0.1703
   45MOL   C63637684   3.275   7.030   1.378 -0.4693 -0.3086 -0.6543
   45MOL   C63737685   3.271   6.875   1.391 -0.6038 -0.5955  0.1939
   45MOL   C63837686   3.296   6.797   1.259  0.4714  0.4376  0.0225
   45MOL   C63937687   3.275   6.637   1.267  0.1093  0.4668  0.1736
   45MOL   C64037688   3.305   6.566   1.130  0.3678  0.2669 -0.4133
   45MOL   C64137689   3.314   6.415   1.147  0.0409 -0.4927  0.0400
   45MOL   C64237690   3.401   6.338   1.042  0.3056 -0.0523  1.0381
   45MOL   C64337691   3.329   6.342   0.913  0.2897  0.4753  0.1909
   45MOL   C64437692   3.387   6.250   0.803  0.4098 -0.3871 -0.4342
   45MOL   C64537693   3.329   6.288   0.662 -0.3576 -1.1183  0.4725
   45MOL   H64637694   2.755   7.131   1.412 -1.0145  0.4964 -0.9990
   45MOL   H64737695   2.861   7.261   1.461  0.2477  0.3786  0.4022
   45MOL   H64837696   2.956   7.252   1.217 -0.2258  0.1023 -0.2353
   45MOL   H64937697   3.039   7.137   1.443 -2.5783 -0.7196  0.6345
   45MOL   H65037698   2.996   6.983   1.358  0.8852 -0.4147  1.6188
   45MOL   H65137699   3.192   7.188   1.257 -0.4580  0.6732  0.7539
   45MOL   H65237700   3.154   7.028   1.191 -2.1953  0.2305  0.4828
   45MOL   H65337701   3.263   7.076   1.476 -0.3061 -2.7156  0.5234
   45MOL   H65437702   3.376   7.058   1.346 -0.5774 -0.8301 -1.4756
   45MOL   H65537703   3.349   6.846   1.461  0.0141 -0.6760 -0.5212
   45MOL   H65637704   3.173   6.847   1.431  0.0284 -2.5595  0.4253
   45MOL   H65737705   3.228   6.831   1.181  0.1601 -0.7319 -0.2290
   45MOL   H65837706   3.399   6.809   1.225  0.3580  0.0296 -0.4773
   45MOL   H65937707   3.178   6.610   1.310 -0.0585 -0.1645 -0.5794
   45MOL   H66037708   3.342   6.590   1.338 -0.4253  1.2906  1.2423
   45MOL   H66137709   3.395   6.610   1.087  1.3908 -1.0442  0.3575
   45MOL   H66237710   3.218   6.586   1.068 -1.5821 -0.7992  1.8802
   45MOL   H66337711   3.346   6.389   1.248  0.7775  0.0933 -0.0295
   45MOL   H66437712   3.216   6.369   1.146  0.5513 -1.6573  1.1865
   45MOL   H66537713   3.501   6.378   1.056 -0.6030  2.8604 -0.4750
   45MOL   H66637714   3.400   6.230   1.057 -2.0636  0.0591  1.9667
   45MOL   H66737715   3.314   6.439   0.866 -0.6519  0.2963  0.1086
   45MOL   H66837716   3.227   6.309   0.932  0.7506 -0.3479  1.3998
   45MOL   H66937717   3.366   6.147   0.831  1.3039  0.2451  2.7152
   45MOL   H67037718   3.495   6.247   0.785  0.6579  0.3468  0.8830
   45MOL   H67137719   3.223   6.311   0.661 -0.1761 -0.2713  0.4119
   45MOL   H67237720   3.376   6.379   0.623 -1.4132 -0.0619  1.6357
   45MOL   H67337721   3.347   6.199   0.602  3.2749  0.7809 -1.4580
   45MOL   C67437722   2.847   7.082   1.155 -0.2799 -0.5733 -0.4299
   45MOL   C67537723   2.911   7.091   1.021  0.0321 -0.5048  0.3022
   45MOL   C67637724   2.847   6.986   0.938 -0.1429  0.3889 -0.7171
   45MOL   C67737725   2.913   6.846   0.941 -0.2847 -0.0964  0.9023
   45MOL   C67837726   2.831   6.730   0.886  0.4009 -0.3906  0.1114
   45MOL   C67937727   2.909   6.595   0.893  0.4703 -0.7022  0.0461
   45MOL   C68037728   2.834   6.476   0.840  0.6367  0.4047 -0.0018
   45MOL   C68137729   2.921   6.349   0.825  0.2704 -0.3170  0.5259
   45MOL   C68237730   2.845   6.224   0.786 -0.0644  0.4682 -0.4471
   45MOL   C68337731   2.922   6.090   0.778 -0.7104  0.0555  0.5330
   45MOL   C68437732   2.832   5.977   0.740 -0.7181  0.3711 -0.5296
   45MOL   C68537733   2.900   5.836   0.738  0.2319  0.3285  0.1615
   45MOL   C68637734   2.807   5.724   0.686  0.5007  0.5355  0.3282
   45MOL   C68737735   2.704   5.681   0.790 -0.1172 -1.1524  0.1194
   45MOL   H68837736   2.740   7.098   1.142 -0.1010  0.8509 -0.2198
   45MOL   H68937737   2.855   6.978   1.188 -1.7313 -0.4061  0.4963
   45MOL   H69037738   3.016   7.065   1.033 -0.0627 -0.6802  0.8044
   45MOL   H69137739   2.746   6.970   0.975  0.3551  1.1354  1.0164
   45MOL   H69237740   2.844   7.017   0.834 -2.2166  1.8889 -0.2321
   45MOL   H69337741   3.016   6.843   0.906 -1.1614  0.8440 -1.8737
   45MOL   H69437742   2.928   6.827   1.047  0.5608 -0.6593  0.6808
   45MOL   H69537743   2.742   6.717   0.947 -0.5955  0.3104 -1.1808
   45MOL   H69637744   2.802   6.746   0.782 -0.4430 -0.5953  0.3168
   45MOL   H69737745   3.002   6.615   0.840  1.3213  0.7358  2.0544
   45MOL   H69837746   2.942   6.570   0.994  1.5424 -0.8138 -0.3238
   45MOL   H69937747   2.752   6.436   0.900  0.6877  1.0617  0.5205
   45MOL   H70037748   2.778   6.492   0.748 -0.5188 -1.1587  0.4062
   45MOL   H70137749   3.003   6.368   0.755  0.6964  1.2801  1.4292
   45MOL   H70237750   2.970   6.337   0.922  0.7183  0.6799  0.4320
   45MOL   H70337751   2.763   6.204   0.855  0.4546 -1.4614 -0.3837
   45MOL   H70437752   2.799   6.241   0.688 -2.2413  1.5281  0.7113
   45MOL   H70537753   2.970   6.078   0.875  0.9410  1.5222 -0.0700
   45MOL   H70637754   2.999   6.097   0.701 -0.2195  0.2028  1.0415
   45MOL   H70737755   2.792   5.993   0.640  0.1737 -2.7841 -1.4443
   45MOL   H70837756   2.757   5.972   0.818  0.3754 -2.1653  0.4144
   45MOL   H70937757   2.948   5.813   0.833 -0.0018 -0.2925  0.1325
   45MOL   H71037758   2.979   5.831   0.663 -1.4962 -1.6540 -1.6068
   45MOL   H71137759   2.764   5.748   0.588  2.7766  3.1159 -0.1126
   45MOL   H71237760   2.877   5.642   0.670  0.5660  0.3179  1.6679
   45MOL   H71337761   2.641   5.767   0.810 -0.2457 -0.9222 -1.2400
   45MOL   H71437762   2.641   5.594   0.769 -3.4375  1.2149  0.0258
   45MOL   H71537763   2.750   5.665   0.888  0.9188  1.6153  0.1417
   45MOL   C71637764   2.886   7.230   0.959  0.3181  0.4030 -0.3506
   45MOL   C71737765   2.947   7.252   0.823  0.6649 -0.0772 -0.5364
   45MOL   C71837766   2.883   7.378   0.756 -0.4726 -0.3380  0.4874
   45MOL   C71937767   2.729   7.366   0.743 -0.1403 -0.0814  0.0946
   45MOL   C72037768   2.679   7.443   0.617  0.2744 -0.7677 -0.2529
   45MOL   C72137769   2.532   7.444   0.588 -0.2153 -0.7814 -0.1282
   45MOL   C72237770   2.482   7.522   0.463  0.6149  1.4038 -0.7651
   45MOL   C72337771   2.334   7.556   0.456 -0.5911 -0.2200  0.3640
   45MOL   C72437772   2.248   7.445   0.391  0.4479 -0.4638  0.7294
   45MOL   C72537773   2.099   7.469   0.375 -0.8855 -0.4329 -0.1946
   45MOL   C72637774   2.026   7.375   0.276  0.2895  0.2670  0.2450
   45MOL   C72737775   1.867   7.387   0.274 -1.2118  0.3698  0.4212
   45MOL   C72837776   1.792   7.307   0.173 -0.5610  0.3714 -0.3989
   45MOL   C72937777   1.643   7.309   0.172 -0.0984  0.0289 -0.2725
   45MOL   H73037778   2.779   7.249   0.961  0.1036 -0.8492  0.6769
   45MOL   H73137779   2.935   7.308   1.017  1.8732 -0.3128 -0.6676
   45MOL   H73237780   2.925   7.179   0.745  1.0010  0.4276 -1.1188
   45MOL   H73337781   2.935   7.396   0.662  1.2754  0.2818  1.5452
   45MOL   H73437782   2.898   7.468   0.817 -1.0460 -1.7609  2.8099
   45MOL   H73537783   2.709   7.263   0.716  0.7677 -0.4974  0.9966
   45MOL   H73637784   2.660   7.381   0.826 -0.5604  0.6677 -0.3762
   45MOL   H73737785   2.722   7.543   0.623 -0.8517 -0.3015  0.2011
   45MOL   H73837786   2.727   7.401   0.529 -0.6708  1.4500 -1.8496
   45MOL   H73937787   2.488   7.344   0.587 -2.6733  0.2329  0.8852
   45MOL   H74037788   2.491   7.490   0.678 -1.2574  1.2704 -1.6165
   45MOL   H74137789   2.535   7.617   0.472  0.0947  1.5525  0.8815
   45MOL   H74237790   2.518   7.468   0.375 -0.0409 -0.2696 -0.0404
   45MOL   H74337791   2.307   7.640   0.392  0.2938 -0.2538 -0.0683
   45MOL   H74437792   2.292   7.585   0.552 -0.3101  0.6836  0.2217
   45MOL   H74537793   2.297   7.421   0.297  2.1369 -0.3158  1.5544
   45MOL   H74637794   2.247   7.352   0.448  1.0870 -0.5076  0.6678
   45MOL   H74737795   2.042   7.473   0.468  0.5242 -1.5294  0.7373
   45MOL   H74837796   2.088   7.566   0.325 -1.3089  0.0868  0.8771
   45MOL   H74937797   2.060   7.388   0.174  0.9621  0.6541  0.5173
   45MOL   H75037798   2.045   7.273   0.311 -2.7259 -0.4309  0.0253
   45MOL   H75137799   1.836   7.369   0.377 -1.0390  1.6372  0.7031
   45MOL   H75237800   1.842   7.490   0.250 -0.8425  0.0471 -1.4014
   45MOL   H75337801   1.834   7.207   0.169  3.0037  1.7094  0.9006
   45MOL   H75437802   1.830   7.356   0.083 -0.8996 -0.3190 -0.9188
   45MOL   H75537803   1.608   7.239   0.096  0.9373 -0.4560 -0.3111
   45MOL   H75637804   1.609   7.409   0.148  0.9173  0.5318  0.3407
   45MOL   H75737805   1.607   7.277   0.270 -0.8321  1.9144  0.0985
   45MOL   C75837806   3.103   7.271   0.830 -0.6092  0.2839  0.1761
   45MOL   C75937807   3.182   7.245   0.697  0.1132 -0.8842  0.4678
   45MOL   C76037808   3.318   7.306   0.676  0.3754 -1.0514 -0.0701
   45MOL   C76137809   3.319   7.462   0.673  0.1222 -0.3153  0.0162
   45MOL   C76237810   3.453   7.527   0.633 -0.5222 -0.3090  0.0525
   45MOL   C76337811   3.461   7.682   0.652 -0.6427 -0.3650 -0.6447
   45MOL   C76437812   3.462   0.030   0.800 -0.5272  0.3084  0.1302
   45MOL   C76537813   3.469   0.178   0.816 -0.1592 -0.3097  0.1812
   45MOL   C76637814   3.485   0.238   0.951 -0.4058  0.4721 -0.2661
   45MOL   C76737815   3.453   0.387   0.947  0.8481  1.1492 -0.0393
   45MOL   C76837816   3.554   0.473   0.873  0.3307  0.2586  0.1270
   45MOL   C76937817   3.497   0.613   0.866 -0.3426 -0.3735 -0.0267
   45MOL   C77037818   3.598   0.705   0.806 -0.2336  0.2505 -0.3961
   45MOL   C77137819   3.550   0.845   0.783  0.0155  0.0124 -0.2049
   45MOL   H77237820   3.122   7.367   0.878  0.3873  0.8836 -1.3855
   45MOL   H77337821   3.158   7.204   0.896 -0.3057  0.9002  0.5487
   45MOL   H77437822   3.138   7.293   0.610 -0.2367 -1.6284  0.2363
   45MOL   H77537823   3.381   7.276   0.760 -1.1161 -0.6907  1.1889
   45MOL   H77637824   3.369   7.273   0.585 -1.4340 -0.6329 -1.2618
   45MOL   H77737825   3.244   7.481   0.596 -1.9451 -1.2262  1.7445
   45MOL   H77837826   3.299   7.491   0.776 -0.0641 -0.3259 -0.0172
   45MOL   H77937827   3.497   7.492   0.540  1.0423  0.4728  0.4954
   45MOL   H78037828   3.516   7.487   0.712 -2.0905 -0.1287  1.4283
   45MOL   H78137829   3.372   0.040   0.619 -0.7142  0.3026  0.5782
   45MOL   H78237830   3.547   0.033   0.604  0.3919  0.9638  2.3262
   45MOL   H78337831   3.387   7.679   0.865  0.0142 -2.4172 -1.0992
   45MOL   H78437832   3.555   7.688   0.841 -0.6733 -0.4229 -0.1947
   45MOL   H78537833   3.386   0.225   0.762  1.1817  0.1863 -1.5230
   45MOL   H78637834   3.559   0.208   0.761 -1.1618 -3.7997 -3.5600
   45MOL   H78737835   3.592   0.248   0.972 -0.4934  0.8414  0.0150
   45MOL   H78837836   3.430   0.191   1.033  0.2782 -0.0408 -0.0983
   45MOL   H78937837   3.430   0.429   1.045  1.7340  2.1162 -0.2340
   45MOL   H79037838   3.364   0.379   0.884  1.3264 -1.6138 -0.4654
   45MOL   H79137839   3.643   0.474   0.935 -0.0283 -3.7957  0.8811
   45MOL   H79237840   3.570   0.441   0.770  0.1140  1.1772 -0.1900
   45MOL   H79337841   3.416   0.625   0.793  0.2203 -2.5785 -1.0383
   45MOL   H79437842   3.470   0.642   0.967  1.5428 -2.1270  0.9978
   45MOL   H79537843   3.684   0.724   0.871 -1.5846  3.1890  0.6115
   45MOL   H79637844   3.639   0.666   0.713  2.7458  1.9411  0.1495
   45MOL   H79737845   3.463   0.844   0.717  0.5725  1.1110 -0.9757
   45MOL   H79837846   3.519   0.905   0.869  2.7512  0.9217  0.1994
   45MOL   H79937847   3.624   0.901   0.726 -1.1238  1.1327 -0.6246
   45MOL   C80037848   3.178   7.086   0.664 -0.8045  0.2171 -0.5057
   45MOL   C80137849   3.088   7.060   0.540 -0.0484  0.0644  0.1820
   45MOL   C80237850   3.055   6.907   0.527 -0.5224  0.0959 -0.4041
   45MOL   C80337851   3.060   6.852   0.384 -0.8256 -0.3179 -0.0330
   45MOL   C80437852   2.958   6.748   0.340 -0.4788  0.4460 -0.2035
   45MOL   C80537853   2.942   6.625   0.434  0.2021  0.0263  0.9598
   45MOL   C80637854   2.806   6.562   0.442  0.3224 -0.6136  0.1150
   45MOL   C80737855   2.789   6.451   0.343 -0.0029 -0.1212  0.4651
   45MOL   C80837856   2.650   6.375   0.337  0.1630 -0.0008  0.2227
   45MOL   C80937857   2.633   6.276   0.217  0.0867  0.1393  0.2705
   45MOL   C81037858   2.512   6.180   0.228  0.1327 -0.3078 -0.5454
   45MOL   C81137859   2.505   6.102   0.093  0.3124  0.5144 -0.2323
   45MOL   C81237860   2.387   5.996   0.087  0.5497  0.6080  0.8312
   45MOL   C81337861   2.249   6.055   0.074  0.1141  0.4118 -0.2491
   45MOL   H81437862   3.127   7.032   0.744  1.9996 -2.0020 -0.1368
   45MOL   H81537863   3.278   7.046   0.653  0.1344  2.3940 -0.0824
   45MOL   H81637864   3.143   7.090   0.451  0.1508 -1.0019 -0.0540
   45MOL   H81737865   2.955   6.890   0.569  0.5522 -1.1146  1.7375
   45MOL   H81837866   3.125   6.853   0.591 -0.4047  2.7747  1.8040
   45MOL   H81937867   3.154   6.800   0.366 -0.5393  0.2978 -0.3518
   45MOL   H82037868   3.064   6.934   0.311 -0.7136  0.0105  0.3404
   45MOL   H82137869   2.859   6.791   0.323 -0.2257  0.7188 -1.0010
   45MOL   H82237870   2.984   6.709   0.242  2.1682 -0.7017  0.9333
   45MOL   H82337871   2.971   6.647   0.536  2.1780  0.9914  0.2163
   45MOL   H82437872   3.012   6.549   0.400 -2.5894 -2.8533  1.3865
   45MOL   H82537873   2.799   6.526   0.544 -0.0661 -0.9477 -0.0299
   45MOL   H82637874   2.722   6.631   0.435 -0.4223 -1.6701 -1.9136
   45MOL   H82737875   2.820   6.489   0.246 -0.9111  0.6964  0.4755
   45MOL   H82837876   2.848   6.368   0.380 -1.5030 -2.3186 -1.9041
   45MOL   H82937877   2.647   6.322   0.433  2.5183 -1.5815 -0.5178
   45MOL   H83037878   2.564   6.441   0.330  0.7914  0.9754  1.3776
   45MOL   H83137879   2.721   6.212   0.204  0.7616  1.3861 -1.5866
   45MOL   H83237880   2.620   6.317   0.117 -0.7438  0.1810  0.3916
   45MOL   H83337881   2.516   6.105   0.307 -0.7533  0.7884  0.5330
   45MOL   H83437882   2.419   6.231   0.252  0.8290 -0.5700  2.8836
   45MOL   H83537883   2.601   6.054   0.074  0.6826  1.4932 -0.8897
   45MOL   H83637884   2.500   6.168   0.007 -0.8695  0.2385 -0.3895
   45MOL   H83737885   2.412   5.937   7.694 -3.1612  0.4879 -0.1892
   45MOL   H83837886   2.383   5.923   0.169 -3.9564 -1.1140 -0.7987
   45MOL   H83937887   2.240   6.118   7.681  0.2405  0.7023 -0.0564
   45MOL   H84037888   2.173   5.978   0.066  0.0293  0.4672  0.0061
   45MOL   H84137889   2.216   6.117   0.157  0.2429  2.5834 -1.7785
   45MOL   H84237890   3.002   7.126   0.542 -0.5962 -0.6309 -0.3697
   46MOL     C137891   2.892   1.081   1.208  0.4976 -0.2245 -0.9494
   46MOL     C237892   2.819   1.009   1.329 -0.8008 -0.0185  0.2161
   46MOL     C337893   2.913   1.006   1.449 -0.0926  0.3360  0.3317
   46MOL     C437894   3.051   0.939   1.428  0.6692 -0.4763  0.1494
   46MOL     C537895   3.115   0.881   1.561 -0.1546 -0.2854  0.4030
   46MOL     C637896   3.108   0.727   1.571 -0.0425  1.3769 -0.1074
   46MOL     C737897   3.198   0.666   1.684  0.7268  0.2928 -0.0240
   46MOL     C837898   3.183   0.506   1.689  0.4252 -0.7542 -0.2426
   46MOL     C937899   3.268   0.439   1.792 -1.3504  0.0978 -0.3152
   46MOL    C1037900   3.257   0.286   1.786 -0.1357  0.3886  0.0892
   46MOL    C1137901   3.322   0.200   1.890  0.4340  0.4404 -0.3220
   46MOL    C1237902   3.320   0.048   1.862  0.5893 -0.0694  0.6808
   46MOL    C1337903   3.411   7.666   1.963  0.0898 -0.1020 -0.4916
   46MOL    C1437904   3.362   7.674   2.106  0.1325  0.3504  0.3259
   46MOL    H1537905   2.905   1.188   1.223  0.0723  0.2269 -3.5151
   46MOL    H1637906   2.836   1.077   1.114  0.0581  0.7010 -0.7387
   46MOL    H1737907   2.806   0.903   1.309  2.4774 -0.0274 -2.4664
   46MOL    H1837908   2.932   1.101   1.499  1.2914 -0.1622  0.7870
   46MOL    H1937909   2.863   0.941   1.522  1.1191 -3.3345 -1.9509
   46MOL    H2037910   3.119   1.016   1.391  0.0453  0.9044  1.8507
   46MOL    H2137911   3.041   0.854   1.361  0.0573  0.1528 -0.5684
   46MOL    H2237912   3.066   0.924   1.649 -0.0598 -1.1237  0.8755
   46MOL    H2337913   3.220   0.908   1.564  0.7889 -3.6559  0.2654
   46MOL    H2437914   3.144   0.685   1.477  0.0115 -1.0384  0.9553
   46MOL    H2537915   3.007   0.699   1.598 -0.4391  1.5240 -1.3801
   46MOL    H2637916   3.303   0.691   1.669  0.8704  0.6866  1.5468
   46MOL    H2737917   3.162   0.697   1.782  1.8510  2.5521 -0.3086
   46MOL    H2837918   3.218   0.462   1.596 -0.8367  0.3692 -1.2775
   46MOL    H2937919   3.079   0.475   1.701  0.7438 -1.8679 -0.3461
   46MOL    H3037920   3.371   0.475   1.793 -1.3741  0.1704  0.6880
   46MOL    H3137921   3.214   0.472   1.882 -0.2531  0.5461  0.1932
   46MOL    H3237922   3.154   0.251   1.793 -0.6638  2.2093  1.9184
   46MOL    H3337923   3.282   0.254   1.685 -0.6757  0.2171  0.0055
   46MOL    H3437924   3.424   0.235   1.909  1.3314 -1.8165 -0.7278
   46MOL    H3537925   3.278   0.207   1.989 -1.7719 -2.9802 -0.9482
   46MOL    H3637926   3.357   0.022   1.763 -0.0965  0.7124  0.2122
   46MOL    H3737927   3.216   0.020   1.881  0.0375 -1.0580 -3.3712
   46MOL    H3837928   3.409   7.564   1.925  4.2568 -0.5030  0.1193
   46MOL    H3937929   3.519   7.684   1.963  0.1786 -0.4800  2.1353
   46MOL    H4037930   3.422   7.604   2.164  1.1038  2.1601  1.5646
   46MOL    H4137931   3.387   0.081   2.136  0.5136 -0.1226  1.6761
   46MOL    H4237932   3.257   7.649   2.117 -0.0179  0.3011 -1.1494
   46MOL    H4337933   2.993   1.043   1.196  1.0004  0.2525  1.4409
   46MOL    C4437934   2.680   1.065   1.367 -0.2292 -0.0416  0.8784
   46MOL    C4537935   2.562   0.986   1.323  0.0087 -0.0852  0.7429
   46MOL    C4637936   2.561   0.837   1.383 -0.2930  0.0656  0.5643
   46MOL    C4737937   2.545   0.834   1.533 -0.0189  0.3471 -0.1438
   46MOL    C4837938   2.532   0.690   1.582  0.3329  0.6064  0.5604
   46MOL    C4937939   2.472   0.678   1.722  0.0229 -0.2947 -0.3328
   46MOL    C5037940   2.505   0.552   1.797  0.2019  0.5821 -0.4600
   46MOL    C5137941   2.450   0.550   1.947  0.0314 -0.4386 -0.3121
   46MOL    C5237942   2.532   0.616   2.056 -0.1718 -0.2174  0.6351
   46MOL    C5337943   2.468   0.603   2.201  0.0378  0.0747  0.8837
   46MOL    C5437944   2.548   0.669   2.313  0.3134  0.1862 -0.1135
   46MOL    C5537945   2.503   0.618   2.455  0.1990 -0.0552  0.3739
   46MOL    C5637946   2.598   0.659   2.569  0.0453 -0.6552  0.1246
   46MOL    C5737947   2.580   0.569   2.692 -0.0532  0.3754  0.7604
   46MOL    H5837948   2.672   1.065   1.476 -0.1702  2.1012  0.9094
   46MOL    H5937949   2.673   1.170   1.338 -0.2483 -0.2531  0.1017
   46MOL    H6037950   2.474   1.043   1.353  0.3038  0.4372  0.6210
   46MOL    H6137951   2.483   0.782   1.329  0.9483  2.5143 -4.0103
   46MOL    H6237952   2.650   0.783   1.349  1.6130  2.5372  1.4869
   46MOL    H6337953   2.458   0.889   1.569 -0.5435  0.1025 -1.0336
   46MOL    H6437954   2.631   0.878   1.584 -1.3284  2.5563  0.2017
   46MOL    H6537955   2.629   0.641   1.581  0.4197  0.7807 -0.3364
   46MOL    H6637956   2.461   0.631   1.524  0.3737  1.2287 -0.1372
   46MOL    H6737957   2.508   0.764   1.778 -0.1009  0.2202 -1.0437
   46MOL    H6837958   2.366   0.686   1.698 -0.3164 -4.2212 -0.5041
   46MOL    H6937959   2.461   0.463   1.752 -1.4126  0.3807  1.4317
   46MOL    H7037960   2.613   0.540   1.795  0.0436 -1.5899  1.2769
   46MOL    H7137961   2.446   0.448   1.986  0.5473  0.4835  2.2323
   46MOL    H7237962   2.347   0.586   1.952 -0.1844 -0.9910 -0.6585
   46MOL    H7337963   2.628   0.567   2.069 -0.6056 -0.1855  4.7529
   46MOL    H7437964   2.555   0.720   2.037  0.9347 -0.5704 -0.0035
   46MOL    H7537965   2.474   0.495   2.214  0.5590 -0.0447 -0.2709
   46MOL    H7637966   2.362   0.630   2.194  0.2237  0.8504  0.9606
   46MOL    H7737967   2.538   0.778   2.307  0.2374  0.2249  0.7469
   46MOL    H7837968   2.652   0.643   2.295 -0.0046 -0.4463 -1.0736
   46MOL    H7937969   2.399   0.649   2.461  0.8949  2.2816  0.9493
   46MOL    H8037970   2.492   0.509   2.450 -2.7883  0.1859  0.7586
   46MOL    H8137971   2.604   0.767   2.584  0.7225 -0.9672  2.1591
   46MOL    H8237972   2.699   0.636   2.537  0.2888  2.4179 -1.5354
   46MOL    H8337973   2.487   0.571   2.749 -0.7798  0.4442 -0.4108
   46MOL    H8437974   2.666   0.587   2.756  0.8229 -1.3746  0.0901
   46MOL    H8537975   2.591   0.468   2.654  1.9366  0.6436  0.5964
   46MOL    C8637976   2.559   0.987   1.169  0.5555  0.2234 -0.4246
   46MOL    C8737977   2.426   1.022   1.103  0.7973 -0.1282  0.1557
   46MOL    C8837978   2.397   1.170   1.137  0.5743 -0.7459 -0.7014
   46MOL    C8937979   2.383   1.268   1.013  0.3915 -0.1536  0.2191
   46MOL    C9037980   2.348   1.412   1.050 -0.0954 -0.3672  0.9805
   46MOL    C9137981   2.334   1.498   0.924  0.4950 -0.3331 -0.0907
   46MOL    C9237982   2.333   1.652   0.956  1.3414 -0.6096  0.3755
   46MOL    C9337983   2.230   1.735   0.875 -0.6670 -0.2807 -0.5546
   46MOL    C9437984   2.210   1.877   0.926 -0.4701 -0.3932 -0.1499
   46MOL    C9537985   2.204   1.914   1.078  0.4578  0.0734  0.5015
   46MOL    C9637986   2.197   2.069   1.097  0.4951 -0.3702  0.2689
   46MOL    C9737987   2.213   2.113   1.240  0.3427  0.3849  0.2961
   46MOL    C9837988   2.215   2.268   1.264 -0.0602  0.4682 -0.1544
   46MOL    C9937989   2.346   2.319   1.208  0.4520  0.2116 -0.6212
   46MOL   H10037990   2.624   1.067   1.135 -0.9829  1.2724 -0.9808
   46MOL   H10137991   2.611   0.904   1.122 -1.2341 -0.8675 -0.5486
   46MOL   H10237992   2.414   1.011   0.996  0.1377  1.2973  0.0832
   46MOL   H10337993   2.303   1.163   1.192 -0.4652  1.9179 -2.0246
   46MOL   H10437994   2.474   1.211   1.202  1.3635  1.5016 -3.0044
   46MOL   H10537995   2.480   1.266   0.964 -0.2144 -1.4045 -0.9699
   46MOL   H10637996   2.316   1.235   0.934  0.2806  0.7143 -0.0465
   46MOL   H10737997   2.433   1.441   1.112  1.1265 -2.7108  0.4742
   46MOL   H10837998   2.252   1.404   1.101 -0.3341 -0.7938  0.4686
   46MOL   H10937999   2.245   1.470   0.868  0.3661 -0.3261  0.1118
   46MOL   H11038000   2.415   1.478   0.853  0.9012  0.7260  0.0641
   46MOL   H11138001   2.319   1.667   1.063  2.8338 -0.4749  0.5685
   46MOL   H11238002   2.436   1.684   0.937  1.3001 -0.3316  0.6335
   46MOL   H11338003   2.130   1.693   0.875 -0.8778  0.1574  1.6746
   46MOL   H11438004   2.260   1.737   0.771  1.3257  3.1551 -0.0061
   46MOL   H11538005   2.291   1.933   0.879  0.0045 -0.2664  0.7990
   46MOL   H11638006   2.126   1.925   0.876 -1.2636 -2.5578 -0.9618
   46MOL   H11738007   2.297   1.884   1.126  1.6014  1.6396 -0.6898
   46MOL   H11838008   2.112   1.871   1.119  0.0707  0.7669  0.3699
   46MOL   H11938009   2.281   2.099   1.034  0.6788 -2.1485 -0.3835
   46MOL   H12038010   2.108   2.105   1.045 -0.4280 -1.4723  1.0642
   46MOL   H12138011   2.134   2.074   1.304  1.0680 -1.1805  0.2735
   46MOL   H12238012   2.311   2.077   1.270 -0.0898 -3.8280 -2.7485
   46MOL   H12338013   2.204   2.288   1.371  3.5376 -2.3755  0.8801
   46MOL   H12438014   2.132   2.318   1.214 -2.2777 -0.9965  1.9696
   46MOL   H12538015   2.345   2.305   1.100  0.1855  1.2664 -0.7659
   46MOL   H12638016   2.364   2.426   1.222  0.5732  0.1930 -0.6330
   46MOL   H12738017   2.424   2.256   1.250 -0.1141  1.1412  1.9004
   46MOL   C12838018   2.323   0.922   1.153 -0.3686 -0.0671  0.2604
   46MOL   C12938019   2.206   0.888   1.061  0.2523 -0.1037  0.2543
   46MOL   C13038020   2.242   0.764   0.975 -0.1196 -0.4474 -0.1528
   46MOL   C13138021   2.133   0.743   0.866  0.2653 -0.0280 -0.2870
   46MOL   C13238022   2.148   0.817   0.739 -1.0032  0.0421  0.0269
   46MOL   C13338023   2.265   0.772   0.653 -0.1432 -0.0463 -0.5420
   46MOL   C13438024   2.296   0.856   0.533 -0.2945 -0.5394  0.3212
   46MOL   C13538025   2.345   0.998   0.570 -0.2710 -0.4843 -0.0305
   46MOL   C13638026   2.484   0.991   0.634 -0.2671 -0.5353 -0.6490
   46MOL   C13738027   2.535   1.128   0.683  0.2105 -0.1993 -0.0033
   46MOL   C13838028   2.671   1.124   0.752  0.1956 -0.0728  0.0134
   46MOL   C13938029   2.730   1.257   0.791  0.3755 -0.9304 -0.1392
   46MOL   C14038030   2.811   1.330   0.690 -0.0454 -0.2308  0.4722
   46MOL   C14138031   2.892   1.456   0.746 -0.2169 -0.2937  0.1183
   46MOL   H14238032   2.361   0.820   1.165  2.5329  1.1105  1.4227
   46MOL   H14338033   2.293   0.955   1.252 -3.1054 -1.2314 -0.1339
   46MOL   H14438034   2.184   0.977   1.003  0.5020 -1.2302 -1.6368
   46MOL   H14538035   2.341   0.770   0.929 -1.7592  2.2718 -3.5187
   46MOL   H14638036   2.232   0.675   1.038 -0.5065 -0.5261 -0.3204
   46MOL   H14738037   2.130   0.636   0.844 -0.4969 -0.2069  0.6711
   46MOL   H14838038   2.035   0.763   0.909 -1.1299 -0.5332 -3.0749
   46MOL   H14938039   2.055   0.802   0.686 -1.1359  1.5328 -0.1874
   46MOL   H15038040   2.155   0.924   0.760  0.7769  0.1843 -1.1528
   46MOL   H15138041   2.355   0.744   0.707  0.1192  2.9518  0.6591
   46MOL   H15238042   2.237   0.678   0.605  0.0447 -0.4807  0.1939
   46MOL   H15338043   2.373   0.804   0.478 -0.3696  2.4553 -2.8136
   46MOL   H15438044   2.210   0.869   0.467 -0.1925  0.0192  0.2901
   46MOL   H15538045   2.342   1.064   0.484  1.0146  0.8720  0.9416
   46MOL   H15638046   2.270   1.043   0.636 -0.4532  0.3245 -0.7739
   46MOL   H15738047   2.487   0.936   0.728 -1.4202  2.7560  1.3940
   46MOL   H15838048   2.553   0.947   0.562 -0.8757 -0.8515 -1.0490
   46MOL   H15938049   2.465   1.176   0.751 -1.6081  0.1691 -2.0601
   46MOL   H16038050   2.543   1.193   0.595 -0.5961  2.1505  1.5955
   46MOL   H16138051   2.654   1.062   0.840  1.2758  0.4007  0.5759
   46MOL   H16238052   2.745   1.073   0.690  1.0083  0.3846  0.5879
   46MOL   H16338053   2.653   1.328   0.821  0.7507  0.1371 -1.6222
   46MOL   H16438054   2.804   1.256   0.871  0.5184  2.4639 -0.1653
   46MOL   H16538055   2.880   1.263   0.639  0.9512  0.7841  0.4712
   46MOL   H16638056   2.737   1.370   0.620 -0.3026 -0.6582  0.5007
   46MOL   H16738057   2.841   1.519   0.819  0.7869 -0.6445  1.1343
   46MOL   H16838058   2.973   1.411   0.803  0.0097 -0.5764 -0.4269
   46MOL   H16938059   2.939   1.514   0.667 -0.1974 -1.0140 -0.3956
   46MOL   C17038060   2.089   0.868   1.160  0.0667  0.2241  0.4469
   46MOL   C17138061   2.021   1.001   1.211 -0.8328 -0.0617 -0.0150
   46MOL   C17238062   1.939   1.066   1.104 -0.1527 -0.3096  0.6854
   46MOL   C17338063   1.947   1.223   1.113  0.4647 -0.4248  0.2534
   46MOL   C17438064   1.873   1.296   0.995  0.2643 -0.4630  0.0084
   46MOL   C17538065   1.887   1.447   1.013 -0.3566 -0.6771  0.3717
   46MOL   C17638066   1.793   1.538   0.927 -0.6218 -0.2554 -0.0861
   46MOL   C17738067   1.793   1.511   0.780  0.2735 -0.2707  0.1841
   46MOL   C17838068   1.714   1.615   0.694  0.1824  0.4980 -0.1868
   46MOL   C17938069   1.761   1.624   0.542  0.0282  0.2354 -0.0924
   46MOL   C18038070   1.645   1.696   0.454  0.1502  0.0747  0.1035
   46MOL   C18138071   1.653   1.691   0.304 -0.3976 -0.2029 -0.4470
   46MOL   C18238072   1.655   1.544   0.253  0.4265 -0.1779  0.1531
   46MOL   C18338073   1.645   1.532   0.100 -0.7387  0.1218  0.0204
   46MOL   H18438074   2.129   0.809   1.243 -1.4277 -1.4171  0.0290
   46MOL   H18538075   2.016   0.794   1.126 -0.4255  0.6302  0.6215
   46MOL   H18638076   2.099   1.074   1.232 -0.4845 -0.5463  0.3750
   46MOL   H18738077   1.977   1.038   1.005 -0.4913  0.3619  0.3576
   46MOL   H18838078   1.835   1.032   1.108 -0.1831 -0.1208  1.4960
   46MOL   H18938079   1.906   1.242   1.212 -1.5672 -3.4434  0.0557
   46MOL   H19038080   2.050   1.256   1.124  0.7583 -0.8973 -0.9302
   46MOL   H19138081   1.921   1.259   0.904 -1.1735  2.5493 -2.0716
   46MOL   H19238082   1.770   1.267   1.012 -0.2959  2.4837  2.1422
   46MOL   H19338083   1.987   1.481   0.985 -0.5684  0.0218  0.4421
   46MOL   H19438084   1.884   1.478   1.118  1.4614  2.3960 -0.4243
   46MOL   H19538085   1.819   1.642   0.946 -0.4986 -0.3485  0.2664
   46MOL   H19638086   1.688   1.522   0.953 -0.3957 -0.0961  0.9509
   46MOL   H19738087   1.748   1.413   0.764 -0.5144  0.4251 -2.2421
   46MOL   H19838088   1.893   1.494   0.741  0.7265  1.7357  0.4044
   46MOL   H19938089   1.723   1.717   0.730  1.0577  0.4409 -0.2386
   46MOL   H20038090   1.611   1.583   0.711  0.3967  0.0959  0.3993
   46MOL   H20138091   1.771   1.522   0.505  1.9087 -0.3056  1.7993
   46MOL   H20238092   1.857   1.675   0.541  0.9264 -1.4387 -0.1729
   46MOL   H20338093   1.635   1.801   0.484 -3.3708  0.0651 -0.8081
   46MOL   H20438094   1.545   1.659   0.476 -0.4430  1.3489 -0.3892
   46MOL   H20538095   1.578   1.749   0.250 -0.4330  1.9045  1.7680
   46MOL   H20638096   1.747   1.730   0.264 -1.4799  0.7751 -2.1004
   46MOL   H20738097   1.739   1.491   0.297 -0.7715  0.3921  3.3153
   46MOL   H20838098   1.565   1.500   0.296  0.6990  1.2688  2.2845
   46MOL   H20938099   1.609   1.432   0.076  4.1284 -1.3929 -1.5020
   46MOL   H21038100   1.744   1.548   0.057 -0.8370  1.7849  0.3688
   46MOL   H21138101   1.577   1.604   0.055  1.7089  1.9596 -0.8234
   46MOL   C21238102   1.947   0.995   1.348  0.5823 -0.6598  0.0068
   46MOL   C21338103   2.046   0.985   1.465 -0.1551  0.4214 -0.5722
   46MOL   C21438104   2.077   1.120   1.530 -0.0839 -0.0553 -0.1275
   46MOL   C21538105   2.184   1.115   1.638 -0.2902  0.3199 -0.6963
   46MOL   C21638106   2.305   1.208   1.617 -0.1582 -0.6229 -0.0055
   46MOL   C21738107   2.431   1.166   1.693 -0.1371  0.5391 -0.1351
   46MOL   C21838108   2.543   1.259   1.666 -0.1083  0.4032  0.3947
   46MOL   C21938109   2.675   1.203   1.720  0.0011  0.2597 -0.7364
   46MOL   C22038110   2.792   1.300   1.737 -0.0556 -0.4133 -0.7287
   46MOL   C22138111   2.819   1.371   1.600 -0.4304  0.1909  0.4954
   46MOL   C22238112   2.942   1.460   1.600  0.1757 -0.0805  0.3052
   46MOL   C22338113   2.941   1.581   1.701 -0.7626  0.1064  0.8958
   46MOL   C22438114   2.823   1.671   1.686  0.3029 -0.7834 -0.4546
   46MOL   C22538115   2.805   1.773   1.802  0.5883 -0.3240 -0.5667
   46MOL   H22638116   1.880   0.911   1.327 -1.0843  0.9229 -1.2631
   46MOL   H22738117   1.884   1.084   1.347 -0.1498 -1.1576 -1.7762
   46MOL   H22838118   2.138   0.945   1.424 -0.8515 -0.5626 -1.2155
   46MOL   H22938119   2.110   1.186   1.450  0.2652  0.8641  0.7623
   46MOL   H23038120   1.982   1.155   1.570 -0.3820 -1.7379  0.7160
   46MOL   H23138121   2.226   1.015   1.638  1.3722  0.9690  1.4844
   46MOL   H23238122   2.126   1.132   1.728 -1.1685  0.0237 -1.2055
   46MOL   H23338123   2.271   1.307   1.647 -3.2757 -1.4468 -0.7325
   46MOL   H23438124   2.332   1.228   1.513 -0.8987  0.6898  0.0506
   46MOL   H23538125   2.451   1.061   1.671  1.0750  0.5698  0.7449
   46MOL   H23638126   2.401   1.174   1.798  1.0223 -1.2569  0.3653
   46MOL   H23738127   2.551   1.270   1.558  0.0593  0.3568  0.4022
   46MOL   H23838128   2.531   1.358   1.712 -1.5205  0.2800  0.3200
   46MOL   H23938129   2.656   1.171   1.823  2.1464 -2.7221 -1.1719
   46MOL   H24038130   2.705   1.113   1.665 -0.0314 -0.0157 -0.3061
   46MOL   H24138131   2.880   1.246   1.769  0.3444  0.9474  0.5016
   46MOL   H24238132   2.763   1.368   1.817  1.5083  0.6716 -1.0554
   46MOL   H24338133   2.839   1.298   1.522 -1.0958 -1.0341  1.4392
   46MOL   H24438134   2.736   1.433   1.568 -1.1423 -0.9602  0.0740
   46MOL   H24538135   2.959   1.504   1.502 -0.7961 -0.4648 -0.0360
   46MOL   H24638136   3.030   1.401   1.626  0.2901 -0.0223  0.0545
   46MOL   H24738137   3.031   1.639   1.681 -2.0995  2.0105  0.2752
   46MOL   H24838138   2.944   1.539   1.801 -1.0820 -1.5209  0.2325
   46MOL   H24938139   2.734   1.608   1.687 -0.2881  0.0163 -1.3456
   46MOL   H25038140   2.811   1.711   1.585 -0.3424 -1.3840 -0.6240
   46MOL   H25138141   2.869   1.861   1.799 -0.9200  0.8356  0.7463
   46MOL   H25238142   2.701   1.804   1.805  0.4043 -1.0522  0.6581
   46MOL   H25338143   2.828   1.729   1.899  2.1019  0.5538 -0.5165
   46MOL   C25438144   2.014   0.876   1.573 -0.7475  0.0425  0.8001
   46MOL   C25538145   1.899   0.902   1.683  0.3660 -0.3601 -0.0535
   46MOL   C25638146   1.756   0.937   1.628 -0.5958 -0.2180  0.3478
   46MOL   C25738147   1.679   0.822   1.573 -0.3585  0.2925  0.0732
   46MOL   C25838148   1.543   0.860   1.514 -0.4500 -0.0523 -0.7708
   46MOL   C25938149   1.555   0.916   1.371 -0.0028  0.5980 -0.5713
   46MOL   C26038150   1.417   0.921   1.297  0.0279 -0.3823 -0.2409
   46MOL   C26138151   1.426   0.946   1.149 -0.0521  0.4546 -0.2643
   46MOL   C26238152   1.296   0.887   1.081 -0.1271  0.4487  0.0593
   46MOL   C26338153   1.296   0.896   0.932  0.0539 -0.7791 -0.1313
   46MOL   C26438154   1.181   0.811   0.878 -0.8005 -0.0634 -0.0960
   46MOL   C26538155   1.151   0.839   0.726  0.6506 -0.0657 -0.0418
   46MOL   C26638156   1.050   0.731   0.672  0.2228  0.0413 -0.0885
   46MOL   C26738157   1.007   0.756   0.530 -0.1790 -0.0349 -0.1350
   46MOL   H26838158   2.110   0.844   1.613 -0.9186 -1.9396 -0.3103
   46MOL   H26938159   1.980   0.786   1.522 -0.5366  0.3167  0.1675
   46MOL   H27038160   1.920   0.995   1.736 -0.1563 -0.8445  1.0248
   46MOL   H27138161   1.757   1.027   1.566 -2.2281 -0.3156  0.1572
   46MOL   H27238162   1.708   0.972   1.719  0.7058 -0.8150  1.2795
   46MOL   H27338163   1.669   0.746   1.651  1.8100  0.3553  0.4488
   46MOL   H27438164   1.732   0.769   1.494 -0.3697  0.0826  0.2070
   46MOL   H27538165   1.499   0.943   1.569  0.2514 -1.1057  1.4531
   46MOL   H27638166   1.467   0.782   1.509  0.3633 -0.8650 -0.6639
   46MOL   H27738167   1.625   0.855   1.313  0.8124 -1.0902  2.1083
   46MOL   H27838168   1.598   1.015   1.382 -0.2266  0.7132 -0.7213
   46MOL   H27938169   1.371   0.823   1.309 -0.9039  0.1643  0.8131
   46MOL   H28038170   1.355   0.990   1.355 -1.6298 -0.3958 -1.9117
   46MOL   H28138171   1.503   0.883   1.105  0.7802  1.6488 -0.5699
   46MOL   H28238172   1.436   1.052   1.123 -1.3400  0.1626 -2.0098
   46MOL   H28338173   1.293   0.784   1.115  0.2879 -0.0046 -1.2599
   46MOL   H28438174   1.209   0.928   1.132  0.2666  0.8114  0.4458
   46MOL   H28538175   1.386   0.867   0.877  0.5435  1.4536 -0.5426
   46MOL   H28638176   1.279   0.999   0.901  0.8926 -0.5211  0.2383
   46MOL   H28738177   1.094   0.843   0.935 -2.1968 -1.6622 -1.2971
   46MOL   H28838178   1.182   0.704   0.899  0.3612  0.3335  2.1070
   46MOL   H28938179   1.126   0.945   0.711  2.3340  0.6707  2.1704
   46MOL   H29038180   1.235   0.823   0.659  0.6049  1.1547 -0.4149
   46MOL   H29138181   1.096   0.632   0.674 -0.9648 -0.5361 -1.0436
   46MOL   H29238182   0.953   0.728   0.721  0.0144 -0.5758 -0.5256
   46MOL   H29338183   1.095   0.786   0.473 -1.3856  0.8753 -1.5626
   46MOL   H29438184   0.938   0.840   0.527 -1.0345 -0.6765  0.8864
   46MOL   H29538185   0.965   0.669   0.477  0.3566 -1.1623  1.2727
   46MOL   C29638186   1.899   0.790   1.791  0.1786 -0.0934 -0.4608
   46MOL   C29738187   2.024   0.789   1.885  0.3807 -0.2792  0.7392
   46MOL   C29838188   2.009   0.896   1.992  0.4027 -0.1885  0.0529
   46MOL   C29938189   2.119   0.893   2.106  0.9315  0.3032  0.1667
   46MOL   C30038190   2.134   1.028   2.181  0.3180 -0.4535  0.6321
   46MOL   C30138191   2.241   1.026   2.288  0.4297  0.1838 -0.6371
   46MOL   C30238192   2.207   0.964   2.425  0.0280 -0.0831 -0.5979
   46MOL   C30338193   2.325   0.958   2.527  0.1266 -0.1392  0.2872
   46MOL   C30438194   2.277   0.906   2.663 -0.3452 -0.4801  0.1633
   46MOL   C30538195   2.387   0.913   2.775 -0.7391 -0.5888  0.2222
   46MOL   C30638196   2.345   0.847   2.904  0.1000  0.1021 -0.4515
   46MOL   C30738197   2.476   0.819   2.999 -0.0182  0.0992 -0.7641
   46MOL   C30838198   2.510   0.945   3.079 -0.2551 -0.1714  0.3873
   46MOL   C30938199   2.632   0.931   3.168 -0.7302 -0.7150 -0.5809
   46MOL   H31038200   1.890   0.692   1.745 -0.6774 -0.4781  0.5198
   46MOL   H31138201   1.808   0.795   1.849  0.1768  1.0924 -0.5601
   46MOL   H31238202   2.112   0.815   1.828  0.3548 -1.3707  0.1957
   46MOL   H31338203   1.908   0.897   2.033 -0.5714 -1.8049 -2.2030
   46MOL   H31438204   2.020   0.995   1.947  2.6017 -0.4035  0.0647
   46MOL   H31538205   2.217   0.863   2.067  0.8193 -2.0413  1.6077
   46MOL   H31638206   2.095   0.819   2.182  1.8017 -0.1402  0.0288
   46MOL   H31738207   2.152   1.109   2.111 -0.3422 -0.1403  0.8209
   46MOL   H31838208   2.035   1.053   2.219  0.6437  3.5128 -0.9255
   46MOL   H31938209   2.267   1.129   2.311 -0.1961 -0.0574  1.2590
   46MOL   H32038210   2.339   0.987   2.260  0.7363  0.3659  0.1897
   46MOL   H32138211   2.113   1.011   2.454  0.1080 -0.0122 -0.4531
   46MOL   H32238212   2.175   0.863   2.400  1.7511 -0.3397 -1.8833
   46MOL   H32338213   2.365   1.059   2.532 -0.8088  0.4157 -2.2548
   46MOL   H32438214   2.403   0.890   2.493  0.1322 -0.9831  1.9567
   46MOL   H32538215   2.179   0.943   2.692  1.5103  2.4922  3.0502
   46MOL   H32638216   2.263   0.799   2.648 -2.0309  0.0274 -2.0652
   46MOL   H32738217   2.408   1.018   2.797 -1.9376  0.2283 -2.2669
   46MOL   H32838218   2.484   0.871   2.750 -1.1091 -0.5289 -1.3527
   46MOL   H32938219   2.304   0.747   2.885 -1.9396  0.5708  1.2401
   46MOL   H33038220   2.282   0.908   2.968  0.1106 -0.9156  0.5598
   46MOL   H33138221   2.559   0.777   2.941 -1.3086 -0.3015 -2.3412
   46MOL   H33238222   2.446   0.743   3.072  1.3725 -1.0486 -1.3662
   46MOL   H33338223   2.420   0.966   3.136 -1.4814 -1.8256 -0.8951
   46MOL   H33438224   2.525   1.027   3.008 -0.6440 -0.2286  0.2381
   46MOL   H33538225   2.626   0.876   3.262 -0.5190  1.3568  0.6836
   46MOL   H33638226   2.703   0.870   3.113  1.2824  2.1026 -1.2629
   46MOL   H33738227   2.673   1.029   3.195  1.1203 -1.4349 -0.7739
   46MOL   C33838228   2.040   0.646   1.944 -0.2473 -0.3463 -0.1904
   46MOL   C33938229   2.037   0.516   1.852 -0.3004 -0.1180  0.3458
   46MOL   C34038230   2.121   0.531   1.718  0.6066 -0.0326 -0.4394
   46MOL   C34138231   2.045   0.501   1.591 -1.0351  0.0369  0.4396
   46MOL   C34238232   2.141   0.490   1.476 -0.5024 -0.2128  0.3158
   46MOL   C34338233   2.077   0.511   1.340  0.1982 -0.8876  0.5345
   46MOL   C34438234   2.166   0.462   1.228  0.7376  0.2714 -0.2351
   46MOL   C34538235   2.089   0.421   1.101  0.7335  0.7120 -0.3924
   46MOL   C34638236   2.181   0.378   0.991 -0.4926  0.8932  0.2053
   46MOL   C34738237   2.108   0.345   0.863 -0.1379  0.2557  0.3835
   46MOL   C34838238   2.208   0.336   0.745  0.4078  0.2474 -1.0362
   46MOL   C34938239   2.139   0.310   0.611  0.1226 -0.0673 -0.0843
   46MOL   C35038240   2.094   0.160   0.603  0.0734 -0.1508  0.6292
   46MOL   C35138241   2.027   0.113   0.474  0.1848 -0.0366 -0.3573
   46MOL   H35238242   2.130   0.631   2.003  0.0402 -0.2558 -0.6014
   46MOL   H35338243   1.952   0.637   2.007  0.3341  0.3362  0.7259
   46MOL   H35438244   1.941   0.494   1.806 -0.0923 -0.1490 -0.0764
   46MOL   H35538245   2.144   0.637   1.708  2.4655 -0.6331 -2.8586
   46MOL   H35638246   2.203   0.460   1.720  1.2492  0.7346  1.6453
   46MOL   H35738247   1.965   0.572   1.574  0.2311  1.6283  0.9980
   46MOL   H35838248   1.989   0.408   1.597 -0.1194 -0.7752 -2.6359
   46MOL   H35938249   2.167   0.385   1.487  0.5198 -0.1306 -1.1420
   46MOL   H36038250   2.231   0.551   1.478  0.4588 -1.6397  0.8445
   46MOL   H36138251   1.982   0.458   1.336 -0.0843 -0.3639  0.2905
   46MOL   H36238252   2.043   0.614   1.334  1.8596 -0.4937 -4.0959
   46MOL   H36338253   2.243   0.536   1.205  1.2907 -0.6226 -1.3423
   46MOL   H36438254   2.232   0.378   1.251  0.1528 -0.6252 -1.7641
   46MOL   H36538255   2.027   0.334   1.122  0.7610  0.5388 -1.0155
   46MOL   H36638256   2.024   0.499   1.062 -3.0112 -1.8626  0.3788
   46MOL   H36738257   2.258   0.454   0.974  1.5584 -0.8675  1.2950
   46MOL   H36838258   2.228   0.284   1.021 -1.0709  0.6151  0.2410
   46MOL   H36938259   2.037   0.263   0.875 -0.3078  0.1143 -1.5479
   46MOL   H37038260   2.049   0.433   0.837  2.2021  1.5693 -0.6167
   46MOL   H37138261   2.284   0.265   0.779  0.8122  0.7966 -0.7788
   46MOL   H37238262   2.258   0.432   0.731  1.7720  0.0832  2.1308
   46MOL   H37338263   2.202   0.338   0.527  0.4102 -0.7615 -0.1017
   46MOL   H37438264   2.048   0.370   0.601 -0.7171 -1.2080  0.6238
   46MOL   H37538265   2.178   0.094   0.627  0.6325  0.5640  0.6360
   46MOL   H37638266   2.024   0.138   0.683  0.2335 -0.5586  0.6609
   46MOL   H37738267   1.998   0.008   0.484  2.1062 -0.3665  2.4462
   46MOL   H37838268   1.936   0.169   0.455  0.4021  0.4441  0.0154
   46MOL   H37938269   2.098   0.123   0.392 -0.0668 -1.9331 -0.8268
   46MOL   C38038270   2.091   0.390   1.941  0.2588  0.2818  0.1057
   46MOL   C38138271   2.012   0.345   2.063  0.9472  0.6268  0.2445
   46MOL   C38238272   1.872   0.293   2.023 -0.1687  0.2645  0.6416
   46MOL   C38338273   1.786   0.225   2.133 -0.2390  0.7349 -0.6334
   46MOL   C38438274   1.746   0.309   2.248 -0.0881  0.3716 -1.0014
   46MOL   C38538275   1.653   0.246   2.342 -0.5530  0.1680  0.2224
   46MOL   C38638276   1.657   0.303   2.481 -1.4502  0.4908  1.1344
   46MOL   C38738277   1.574   0.219   2.574 -0.3827 -0.1195 -0.3136
   46MOL   C38838278   1.526   0.298   2.691  1.0313 -0.4576  0.0119
   46MOL   C38938279   1.426   0.219   2.777 -0.6541 -0.2553 -0.6076
   46MOL   C39038280   1.376   0.304   2.897  0.0218  0.2721  0.3828
   46MOL   C39138281   1.294   0.214   2.999 -0.9288  0.7083  0.0614
   46MOL   C39238282   1.280   0.274   3.142 -0.7691  0.1668 -0.4115
   46MOL   C39338283   1.201   0.186   3.236  0.5978  0.0313  0.4648
   46MOL   H39438284   2.199   0.400   1.954  0.0688  0.6335  1.4665
   46MOL   H39538285   2.090   0.300   1.879 -1.9666 -0.1047  0.6473
   46MOL   H39638286   2.005   0.427   2.134  1.6046 -0.4577  1.5793
   46MOL   H39738287   1.879   0.227   1.937  0.4480  1.0175  0.1077
   46MOL   H39838288   1.822   0.376   1.973  2.0936  1.3643  0.1333
   46MOL   H39938289   1.834   0.132   2.165 -0.2224  0.8461 -0.3344
   46MOL   H40038290   1.695   0.197   2.080  0.4575  0.8796 -1.9248
   46MOL   H40138291   1.717   0.411   2.220 -1.9920  0.1270 -0.0111
   46MOL   H40238292   1.839   0.323   2.303  1.3446 -1.6922 -2.8198
   46MOL   H40338293   1.686   0.142   2.346  0.0686  0.3267 -0.8155
   46MOL   H40438294   1.553   0.235   2.301 -1.0867  0.2999  1.4501
   46MOL   H40538295   1.753   0.314   2.532 -1.0540  1.3289  0.2436
   46MOL   H40638296   1.604   0.398   2.473  1.7699  2.3872  1.0619
   46MOL   H40738297   1.488   0.168   2.530 -1.5945  1.9508 -0.4051
   46MOL   H40838298   1.639   0.140   2.613 -0.1161 -0.2124 -0.9522
   46MOL   H40938299   1.604   0.323   2.763 -0.5713 -1.9638  2.3746
   46MOL   H41038300   1.477   0.392   2.666  0.4467 -0.4812  1.0385
   46MOL   H41138301   1.472   0.133   2.826  0.3222  1.4380  1.5774
   46MOL   H41238302   1.347   0.182   2.713 -2.3422  0.9367  0.7269
   46MOL   H41338303   1.471   0.341   2.936 -1.1720  2.2971  1.4369
   46MOL   H41438304   1.319   0.392   2.869  0.4341 -0.1023 -1.7025
   46MOL   H41538305   1.340   0.115   3.009  2.1369  2.2338  1.8102
   46MOL   H41638306   1.195   0.209   2.953 -1.0456  1.0288  0.2803
   46MOL   H41738307   1.379   0.296   3.184 -1.3291  0.1404  0.9401
   46MOL   H41838308   1.232   0.372   3.136 -0.5698  0.3256  0.4502
   46MOL   H41938309   1.160   0.240   3.321 -1.3862 -1.7960  0.6967
   46MOL   H42038310   1.261   0.104   3.276  0.6907  0.1620  0.5946
   46MOL   H42138311   1.108   0.146   3.195 -0.9682  3.2882  0.7119
   46MOL   C42238312   2.101   0.240   2.136  0.2217 -0.1425  1.0774
   46MOL   C42338313   2.228   0.295   2.215 -0.0293 -0.4597  0.3072
   46MOL   C42438314   2.197   0.404   2.323 -0.1310  0.1507 -0.3443
   46MOL   C42538315   2.110   0.350   2.443 -0.2919 -0.6410 -0.4601
   46MOL   C42638316   2.043   0.464   2.525  0.0353 -0.4860 -0.2867
   46MOL   C42738317   1.989   0.421   2.660  0.1097  0.0405 -0.0993
   46MOL   C42838318   2.111   0.401   2.752  0.0759  0.3228  0.3701
   46MOL   C42938319   2.068   0.330   2.885 -0.3589 -0.2904 -0.4437
   46MOL   C43038320   2.191   0.330   2.984 -0.1482  1.1332  0.0178
   46MOL   C43138321   2.138   0.263   3.109 -0.3674  0.4791 -0.5194
   46MOL   C43238322   2.224   0.252   3.231 -0.3750  0.3205  0.4529
   46MOL   C43338323   2.143   0.201   3.349 -0.2481 -0.0802  0.8831
   46MOL   C43438324   2.226   0.145   3.470  0.2180  0.1461 -0.2911
   46MOL   C43538325   2.139   0.094   3.591  0.0901 -0.1411 -0.7215
   46MOL   H43638326   2.115   0.153   2.072 -2.3644 -0.8729  1.4419
   46MOL   H43738327   2.048   0.193   2.219 -1.2867  1.4276  1.0479
   46MOL   H43838328   2.287   0.345   2.138  0.9098 -0.3402  1.0991
   46MOL   H43938329   2.158   0.498   2.283  0.8243  0.4131 -0.6626
   46MOL   H44038330   2.290   0.442   2.364  0.7019 -1.1672 -0.9808
   46MOL   H44138331   2.034   0.286   2.398  0.5102 -1.1467 -1.0985
   46MOL   H44238332   2.168   0.287   2.510  0.5001  0.9670  0.4039
   46MOL   H44338333   1.973   0.526   2.469  1.7905  1.4952 -0.3575
   46MOL   H44438334   2.121   0.535   2.552  0.6428 -1.6693  1.1479
   46MOL   H44538335   1.937   0.325   2.668  0.6824 -0.2354  0.3018
   46MOL   H44638336   1.920   0.491   2.706  0.8078  1.6383 -1.4260
   46MOL   H44738337   2.192   0.341   2.710  0.2810  2.4245 -2.3553
   46MOL   H44838338   2.160   0.498   2.761  0.3847  0.3061 -1.1282
   46MOL   H44938339   1.990   0.384   2.938 -0.6010  0.3543 -1.4432
   46MOL   H45038340   2.030   0.232   2.856  2.2950 -1.8902  1.3532
   46MOL   H45138341   2.276   0.268   2.953 -2.4407 -1.3828 -1.5070
   46MOL   H45238342   2.227   0.431   3.001 -1.5340  1.2731  2.3979
   46MOL   H45338343   2.054   0.326   3.142 -0.4216 -1.4550  3.3202
   46MOL   H45438344   2.097   0.167   3.078  1.7152 -0.4318 -0.4669
   46MOL   H45538345   2.308   0.188   3.204  0.1330  0.5442  1.4740
   46MOL   H45638346   2.263   0.351   3.253  0.7135  0.3250 -1.3837
   46MOL   H45738347   2.070   0.132   3.305  0.7605 -0.4277 -0.2909
   46MOL   H45838348   2.077   0.280   3.382  1.0919  1.2682  0.4085
   46MOL   H45938349   2.295   0.065   3.448  0.5663 -0.0904  1.6152
   46MOL   H46038350   2.289   0.225   3.509 -0.9441  0.5718  0.7854
   46MOL   H46138351   2.201   0.052   3.670  0.3793  3.4837  1.0696
   46MOL   H46238352   2.081   0.008   3.556  1.6586 -0.6766 -2.0891
   46MOL   H46338353   2.070   0.161   3.642 -0.2082  0.5490 -2.0034
   46MOL   C46438354   2.321   0.186   2.274  0.3198  0.4219 -0.0461
   46MOL   C46538355   2.371   0.072   2.192 -0.8420  0.0621  0.0693
   46MOL   C46638356   2.463   0.117   2.074  0.6147 -0.1507 -0.0081
   46MOL   C46738357   2.607   0.154   2.117  0.9565 -0.2479 -0.1771
   46MOL   C46838358   2.678   0.220   1.999  0.0511  0.0910 -0.2360
   46MOL   C46938359   2.824   0.254   2.023 -0.5733 -0.5440  0.0880
   46MOL   C47038360   2.859   0.393   2.080 -0.1541 -0.5150 -0.0429
   46MOL   C47138361   3.009   0.419   2.096 -0.2505  0.3358  0.0535
   46MOL   C47238362   3.040   0.562   2.147 -0.6587  1.0155 -0.0448
   46MOL   C47338363   3.173   0.564   2.222  0.0063 -0.0122 -0.1987
   46MOL   C47438364   3.192   0.704   2.285  1.0175 -0.0513  0.5660
   46MOL   C47538365   3.285   0.714   2.395  0.8196 -0.2318 -0.3874
   46MOL   C47638366   3.316   0.857   2.436 -0.2298 -0.2848 -0.5888
   46MOL   C47738367   3.456   0.873   2.502  0.1635  0.0124 -0.8929
   46MOL   H47838368   2.259   0.145   2.354  1.4497 -2.8867 -0.8091
   46MOL   H47938369   2.405   0.225   2.332  0.0802 -0.2477  0.7630
   46MOL   H48038370   2.302   0.017   2.128 -0.0049 -0.3618 -0.4835
   46MOL   H48138371   2.458   0.038   1.999 -2.1602  0.5664 -0.6294
   46MOL   H48238372   2.413   0.199   2.022 -1.3115 -0.2089  1.6754
   46MOL   H48338373   2.656   0.064   2.152  0.8070 -1.2898 -2.5352
   46MOL   H48438374   2.597   0.237   2.186 -1.3031 -0.4906 -0.1700
   46MOL   H48538375   2.624   0.299   1.947  1.8491 -0.3856 -2.9656
   46MOL   H48638376   2.683   0.140   1.925 -2.8348 -2.7559  2.4845
   46MOL   H48738377   2.880   0.185   2.086  2.2548 -1.9037 -3.6869
   46MOL   H48838378   2.868   0.248   1.923  0.6503  0.9545  0.5169
   46MOL   H48938379   2.824   0.472   2.013 -2.1481 -1.0796  0.3019
   46MOL   H49038380   2.811   0.403   2.177  1.8500  0.5858  0.8399
   46MOL   H49138381   3.062   0.341   2.152  2.0238  2.0323  0.3641
   46MOL   H49238382   3.054   0.400   1.999  1.5752 -0.6035  1.0502
   46MOL   H49338383   3.034   0.624   2.058 -0.1724  0.5568 -0.4060
   46MOL   H49438384   2.966   0.589   2.221  1.2352 -1.1988  2.7746
   46MOL   H49538385   3.173   0.484   2.297 -0.6092  2.4968  2.5652
   46MOL   H49638386   3.265   0.532   2.174  0.6061 -1.0386  1.5562
   46MOL   H49738387   3.215   0.772   2.203 -2.4702 -0.5003 -0.8482
   46MOL   H49838388   3.094   0.741   2.315  1.1751 -0.3406  1.4348
   46MOL   H49938389   3.372   0.659   2.359  0.5674  0.1869 -1.6664
   46MOL   H50038390   3.262   0.652   2.481  1.2820  0.4200  0.2033
   46MOL   H50138391   3.321   0.921   2.347 -0.5423  0.6359  0.0485
   46MOL   H50238392   3.231   0.901   2.488  1.8472  1.1666  1.7237
   46MOL   H50338393   3.532   0.858   2.426  2.1182 -1.7310  1.3395
   46MOL   H50438394   3.459   0.978   2.530  1.8454 -0.1557 -0.4261
   46MOL   H50538395   3.469   0.812   2.592  0.9042  0.7023 -0.5244
   46MOL   C50638396   2.437   7.659   2.284  0.0944 -0.4306  0.4718
   46MOL   C50738397   2.332   7.571   2.360 -0.0317 -0.0069  0.2577
   46MOL   C50838398   2.279   7.456   2.270  0.4060  0.6371 -0.8723
   46MOL   C50938399   2.131   7.419   2.319  0.0840 -0.6556  0.4787
   46MOL   C51038400   2.071   7.303   2.239  0.6059 -0.3060 -0.1606
   46MOL   C51138401   1.929   7.270   2.283 -0.4819  1.2035 -0.2923
   46MOL   C51238402   1.867   7.155   2.217 -0.6945  0.0272 -0.2403
   46MOL   C51338403   1.734   7.108   2.283 -0.2891  0.0757  0.2496
   46MOL   C51438404   1.684   6.976   2.224  0.0713 -0.1739  0.7545
   46MOL   C51538405   1.557   6.926   2.297 -0.2986  0.6522 -0.2726
   46MOL   C51638406   1.497   6.792   2.256 -0.4379 -0.4757 -0.3032
   46MOL   C51738407   1.386   6.747   2.362  0.3689  0.0699  0.7463
   46MOL   C51838408   1.325   6.608   2.348 -0.4233  0.2115 -0.2906
   46MOL   C51938409   1.213   6.619   2.238 -0.0378  0.5589  0.0557
   46MOL   H52038410   2.492   0.026   2.354 -1.2673 -0.9824  2.0793
   46MOL   H52138411   2.500   7.597   2.221  2.3338  0.9368  1.3308
   46MOL   H52238412   2.249   7.639   2.377  0.7713  0.7074  1.4102
   46MOL   H52338413   2.267   7.495   2.169  1.2962  0.1464 -1.1750
   46MOL   H52438414   2.344   7.368   2.272 -0.0932  0.2823  0.4389
   46MOL   H52538415   2.141   7.392   2.424 -0.1837 -2.1153  0.1396
   46MOL   H52638416   2.061   7.502   2.316 -0.1042 -0.8037  0.8451
   46MOL   H52738417   2.125   7.208   2.247  0.7393 -0.3744 -1.7174
   46MOL   H52838418   2.067   7.329   2.133  3.6345  1.3535  0.0613
   46MOL   H52938419   1.873   7.362   2.263 -0.3887  1.5938  1.2318
   46MOL   H53038420   1.924   7.259   2.391  2.4165  1.3197 -0.0929
   46MOL   H53138421   1.868   7.166   2.108 -0.1153  3.8348  0.0901
   46MOL   H53238422   1.941   7.076   2.233  0.2094  0.8100 -0.5249
   46MOL   H53338423   1.660   7.188   2.281  1.6839  1.9060 -1.5084
   46MOL   H53438424   1.751   7.094   2.390  2.1273 -0.0931 -0.1178
   46MOL   H53538425   1.757   6.896   2.234  0.1587 -0.2971 -0.7395
   46MOL   H53638426   1.657   6.989   2.119 -0.0143  0.2872  0.8302
   46MOL   H53738427   1.569   6.924   2.406 -1.0822  3.0489 -0.1183
   46MOL   H53838428   1.487   7.008   2.282 -0.5276  0.3796 -0.7017
   46MOL   H53938429   1.453   6.807   2.158  0.6390  0.2364 -0.6863
   46MOL   H54038430   1.590   6.736   2.244  1.4154  1.8885  2.1578
   46MOL   H54138431   1.304   6.818   2.358 -1.3742 -1.9573 -0.1404
   46MOL   H54238432   1.439   6.761   2.456 -0.6373  0.8389  1.2007
   46MOL   H54338433   1.294   6.572   2.446 -1.2457  1.2394 -0.1670
   46MOL   H54438434   1.405   6.543   2.314 -1.5571 -0.2740 -2.1290
   46MOL   H54538435   1.128   6.663   2.290 -0.5930  0.2327 -0.5645
   46MOL   H54638436   1.248   6.673   2.150  4.1216 -0.5986  0.8919
   46MOL   H54738437   1.170   6.524   2.205 -1.9426  1.1325  0.7966
   46MOL   C54838438   2.393   7.528   2.493  0.1002 -0.3077  0.8394
   46MOL   C54938439   2.408   7.645   2.598 -0.0340 -0.1547 -0.5976
   46MOL   C55038440   2.305   7.629   2.715  0.2620 -0.7985  0.4313
   46MOL   C55138441   2.159   7.660   2.673  0.0642 -0.1810 -0.3717
   46MOL   C55238442   2.062   7.610   2.780  0.7906 -0.0400  0.6091
   46MOL   C55338443   1.915   7.609   2.738  0.0330  0.2707  0.5551
   46MOL   C55438444   1.808   7.548   2.834 -0.4197  0.2208 -0.5261
   46MOL   C55538445   1.667   7.558   2.789 -0.0384 -0.4498 -0.4143
   46MOL   C55638446   1.558   7.504   2.883 -0.2631  0.1411  0.3590
   46MOL   C55738447   1.419   7.517   2.814  0.2849 -0.2877  0.1569
   46MOL   C55838448   1.311   7.450   2.905 -0.8195  0.3427 -0.2815
   46MOL   C55938449   1.170   7.460   2.842 -0.3171  0.5328  0.5598
   46MOL   C56038450   1.070   7.558   2.906  0.3360  0.2792 -0.1040
   46MOL   C56138451   0.925   7.567   2.847  0.5000 -0.3155 -0.2052
   46MOL   H56238452   2.322   7.450   2.519 -0.2428 -0.2537  0.0746
   46MOL   H56338453   2.487   7.474   2.484  0.0235 -0.1330 -1.3195
   46MOL   H56438454   2.391   0.046   2.552  0.8144  1.0078  1.4449
   46MOL   H56538455   2.320   7.529   2.757  1.9695 -0.6728  0.1477
   46MOL   H56638456   2.315   7.693   2.803 -1.9802 -0.2276  0.3013
   46MOL   H56738457   2.148   7.601   2.581  0.1437 -2.6538  1.1532
   46MOL   H56838458   2.145   0.067   2.641 -1.4084 -0.0423  0.6654
   46MOL   H56938459   2.094   7.513   2.819  2.0311  0.3760  0.6545
   46MOL   H57038460   2.073   7.676   2.866 -1.9351 -1.3724  2.0399
   46MOL   H57138461   1.894   7.545   2.652 -1.5302 -0.2048  1.2654
   46MOL   H57238462   1.901   0.017   2.709  0.0617  0.6330  1.8216
   46MOL   H57338463   1.827   7.443   2.856  0.0789  0.8321  2.0583
   46MOL   H57438464   1.826   7.611   2.921  1.4820 -0.2682 -0.5406
   46MOL   H57538465   1.650   7.497   2.701  2.1221 -1.3508 -0.2512
   46MOL   H57638466   1.647   7.661   2.759  1.0771 -0.8076 -2.4314
   46MOL   H57738467   1.550   7.578   2.962 -2.4352 -2.4644  2.6516
   46MOL   H57838468   1.585   7.403   2.914  0.7424 -0.1373 -1.3453
   46MOL   H57938469   1.387   7.621   2.800 -2.2727 -0.8225  1.7124
   46MOL   H58038470   1.420   7.471   2.715 -0.7754  1.9907 -0.9562
   46MOL   H58138471   1.297   7.478   3.009 -1.0580 -1.2308  0.1283
   46MOL   H58238472   1.353   7.351   2.925 -0.1025  0.5418 -0.7759
   46MOL   H58338473   1.174   7.479   2.735  1.2131  1.9046  0.8550
   46MOL   H58438474   1.133   7.358   2.849 -0.3599  0.5517  0.6086
   46MOL   H58538475   1.073   7.534   3.012 -2.3925 -2.4202 -0.5423
   46MOL   H58638476   1.104   7.662   2.906  0.4181  0.2637 -1.3262
   46MOL   H58738477   0.868   7.644   2.899 -0.0783  0.3835 -1.8277
   46MOL   H58838478   0.925   7.584   2.739 -0.0297  0.7465 -0.0499
   46MOL   H58938479   0.882   7.467   2.842  2.7350 -1.3110 -0.0954
   46MOL   C59038480   2.548   7.645   2.666  1.2896 -0.2010 -0.3528
   46MOL   C59138481   2.668   7.682   2.574 -0.4079 -0.5750  0.1187
   46MOL   C59238482   2.694   0.139   2.583  0.4011  0.2337  0.0943
   46MOL   C59338483   2.798   0.185   2.475  0.5309  0.2315 -0.0958
   46MOL   C59438484   2.838   0.326   2.497  0.3003 -0.3471  0.2291
   46MOL   C59538485   2.937   0.346   2.609 -1.1626 -0.6786 -0.3799
   46MOL   C59638486   2.995   0.485   2.621 -0.7390 -0.3856  0.2623
   46MOL   C59738487   3.102   0.504   2.733 -0.1022 -0.2718  0.0071
   46MOL   C59838488   3.222   0.416   2.717  0.5579 -0.6909 -0.0062
   46MOL   C59938489   3.348   0.480   2.782 -0.0712 -0.2213  0.4337
   46MOL   C60038490   3.468   0.377   2.787 -0.1775  1.1930 -0.8592
   46MOL   C60138491   3.587   0.446   2.837 -0.1923  0.1119 -0.2066
   46MOL   C60238492   3.720   0.355   2.856 -0.6360  0.3153  0.9364
   46MOL   C60338493   3.823   0.438   2.938 -0.4210 -0.2311  0.1847
   46MOL   H60438494   2.567   7.548   2.711  4.7537  1.5643  2.1565
   46MOL   H60538495   2.555   0.027   2.743  1.0426 -0.2854 -0.2445
   46MOL   H60638496   2.650   7.648   2.472 -0.1604  0.4624 -0.2744
   46MOL   H60738497   2.729   0.156   2.685  1.6235  1.1496 -0.4575
   46MOL   H60838498   2.605   0.200   2.566  0.1877 -0.0319  0.2634
   46MOL   H60938499   2.743   0.176   2.381 -0.3054  0.0746  0.4063
   46MOL   H61038500   2.880   0.113   2.477  0.2740 -0.3526 -4.6793
   46MOL   H61138501   2.748   0.383   2.520  0.5765 -0.8678  2.7070
   46MOL   H61238502   2.890   0.365   2.410  0.6502  3.4064  2.0580
   46MOL   H61338503   3.018   0.277   2.583 -0.4506 -1.0820  2.6912
   46MOL   H61438504   2.910   0.301   2.705 -0.0612  2.4020  1.4579
   46MOL   H61538505   3.035   0.518   2.525 -1.0521 -0.3384  0.1456
   46MOL   H61638506   2.919   0.559   2.646  2.0307  2.1821  1.3034
   46MOL   H61738507   3.136   0.605   2.711 -0.4109 -0.5325 -1.7442
   46MOL   H61838508   3.063   0.495   2.834  0.8270  0.6428  0.4547
   46MOL   H61938509   3.196   0.317   2.754  0.2214 -0.9369 -0.8873
   46MOL   H62038510   3.242   0.408   2.610 -0.7409 -0.1917 -0.2994
   46MOL   H62138511   3.390   0.564   2.726  0.2505 -0.3300  0.5112
   46MOL   H62238512   3.333   0.524   2.880  0.2726 -0.6845  0.6944
   46MOL   H62338513   3.491   0.326   2.693  1.2514  0.3166 -0.0372
   46MOL   H62438514   3.442   0.302   2.861  0.3446 -0.2526 -2.1160
   46MOL   H62538515   3.563   0.499   2.929 -0.2176  0.6376 -0.5128
   46MOL   H62638516   3.625   0.524   2.772  0.2964 -0.0960 -0.1771
   46MOL   H62738517   3.703   0.263   2.912 -1.5216  0.7439  1.3824
   46MOL   H62838518   3.770   0.327   2.763 -1.9154  1.2658 -0.0445
   46MOL   H62938519   3.825   0.543   2.908 -0.0520 -0.1536  0.4834
   46MOL   H63038520   3.923   0.400   2.919 -0.7190 -0.6729 -0.5457
   46MOL   H63138521   3.805   0.448   3.045  3.5880  0.4123  0.8589
   46MOL   C63238522   2.794   7.603   2.620 -0.1038  0.2483  0.7013
   46MOL   C63338523   2.816   7.462   2.570 -0.0025 -0.3641 -0.2749
   46MOL   C63438524   2.896   7.450   2.437  0.5645 -0.1873  0.1686
   46MOL   C63538525   2.816   7.500   2.317  0.1210 -0.2293 -0.0139
   46MOL   C63638526   2.860   7.448   2.179  0.1598  0.3384  0.1311
   46MOL   C63738527   2.988   7.522   2.133 -0.2085 -0.2571  0.2372
   46MOL   C63838528   3.030   7.482   1.991 -0.5645  0.3437 -0.1081
   46MOL   C63938529   3.111   7.353   1.965  0.0949  0.1319  0.2187
   46MOL   C64038530   3.140   7.318   1.817  0.4035  0.0849 -0.5558
   46MOL   C64138531   3.198   7.177   1.786  0.0655 -0.6964 -0.1026
   46MOL   C64238532   3.085   7.077   1.773 -0.7500  0.5863  0.1978
   46MOL   C64338533   3.124   6.927   1.750  0.6743 -0.2303 -0.3524
   46MOL   C64438534   2.991   6.848   1.730 -0.3498  0.1646 -0.1403
   46MOL   C64538535   3.016   6.703   1.687 -0.3357  0.1361  0.1467
   46MOL   H64638536   2.782   7.610   2.728  0.8499 -1.5692  0.9322
   46MOL   H64738537   2.886   7.662   2.615  0.3312 -0.4344  0.5456
   46MOL   H64838538   2.717   7.418   2.555 -0.0304 -1.6065  3.1570
   46MOL   H64938539   2.994   7.499   2.435 -0.1368  1.2296 -1.4474
   46MOL   H65038540   2.917   7.345   2.418  1.5299  0.2816 -1.5032
   46MOL   H65138541   2.828   7.608   2.325  2.8042 -0.4230 -0.6763
   46MOL   H65238542   2.710   7.482   2.330  0.0607  0.0581 -0.1022
   46MOL   H65338543   2.781   7.449   2.104 -1.9250 -2.2313  2.2374
   46MOL   H65438544   2.884   7.342   2.178  0.4661  0.3856  1.8962
   46MOL   H65538545   2.969   7.628   2.144  2.6085  0.2888  0.2663
   46MOL   H65638546   3.066   7.506   2.207  0.2933  0.4360 -0.1381
   46MOL   H65738547   2.939   7.491   1.931 -1.2128 -0.8670  0.6782
   46MOL   H65838548   3.087   7.570   1.960 -0.1345 -0.6122 -2.0713
   46MOL   H65938549   3.062   7.265   2.006  2.3482 -2.0141 -1.5016
   46MOL   H66038550   3.207   7.355   2.017  0.5346 -1.2578 -0.5081
   46MOL   H66138551   3.213   7.391   1.780  0.4319  0.3511  0.0216
   46MOL   H66238552   3.058   7.349   1.753 -0.0229 -1.7714 -0.9529
   46MOL   H66338553   3.261   7.190   1.698 -0.4468 -1.9682 -0.6645
   46MOL   H66438554   3.266   7.150   1.866 -1.3503 -4.2355  0.0131
   46MOL   H66538555   3.022   7.092   1.861  0.0227 -0.7015  0.9882
   46MOL   H66638556   3.024   7.121   1.694  0.9719 -0.8354 -2.0082
   46MOL   H66738557   3.189   6.884   1.826 -0.2280 -0.6518  0.1914
   46MOL   H66838558   3.188   6.922   1.662  2.0214  0.6607  0.5523
   46MOL   H66938559   2.936   6.903   1.654 -0.3751  0.0550 -0.2006
   46MOL   H67038560   2.934   6.850   1.823 -1.4561  1.3819 -0.8372
   46MOL   H67138561   3.093   6.698   1.610  1.2420  2.1380  1.5482
   46MOL   H67238562   3.054   6.634   1.762 -1.2499 -0.2930  0.2317
   46MOL   H67338563   2.923   6.655   1.656 -1.4932  2.6166 -0.3587
   46MOL   C67438564   2.863   7.365   2.682  0.0323 -0.6334 -0.3935
   46MOL   C67538565   2.992   7.396   2.762 -0.1403  0.1943 -0.2796
   46MOL   C67638566   3.120   7.391   2.674 -0.7132  0.5628 -0.0003
   46MOL   C67738567   3.142   7.260   2.604  0.0669  0.0016 -1.2137
   46MOL   C67838568   3.215   7.151   2.672  0.1392  0.0911  0.3324
   46MOL   C67938569   3.245   7.022   2.590 -0.8038 -0.0119 -0.7135
   46MOL   C68038570   3.306   6.918   2.689  0.0708  0.1669  0.2292
   46MOL   C68138571   3.323   6.773   2.625 -0.2734  0.8947 -0.5291
   46MOL   C68238572   3.380   6.671   2.724 -0.5259  0.2641  0.0059
   46MOL   C68338573   3.361   6.520   2.681  0.0936 -0.3680  0.4222
   46MOL   C68438574   3.454   6.430   2.760 -1.0257  0.4986 -0.2431
   46MOL   C68538575   3.425   6.407   2.908  0.0764 -0.5496  0.2068
   46MOL   C68638576   3.514   6.299   2.989  0.4565 -0.1110  0.6231
   46MOL   C68738577   3.664   6.319   3.008  0.3210  0.0845 -0.2705
   46MOL   H68838578   2.850   7.263   2.646 -0.6082  0.0580 -2.2087
   46MOL   H68938579   2.785   7.361   2.757  0.7640  1.8529  0.5454
   46MOL   H69038580   2.992   7.310   2.829 -1.5820 -1.2338 -2.0572
   46MOL   H69138581   3.112   7.471   2.600 -1.0371  1.2821  0.8050
   46MOL   H69238582   3.204   7.408   2.742 -2.2795  0.1395  2.0903
   46MOL   H69338583   3.059   7.227   2.541 -2.3720  1.5498  1.0982
   46MOL   H69438584   3.208   7.285   2.521  0.5960 -0.7633 -1.0302
   46MOL   H69538585   3.308   7.185   2.717  0.1935 -1.0312  1.0779
   46MOL   H69638586   3.151   7.123   2.756 -0.5405  0.7592  0.0504
   46MOL   H69738587   3.154   6.989   2.541  0.0442 -0.0480 -2.2920
   46MOL   H69838588   3.302   7.034   2.498 -1.8624  0.0499 -1.3582
   46MOL   H69938589   3.401   6.950   2.732 -0.1204 -0.2438  0.9682
   46MOL   H70038590   3.240   6.907   2.775 -0.8078 -0.0103 -0.4642
   46MOL   H70138591   3.226   6.741   2.587  0.3970  0.0514 -1.5455
   46MOL   H70238592   3.372   6.768   2.528  2.8689  1.6382  0.9469
   46MOL   H70338593   3.488   6.677   2.726 -0.5747  1.0166  0.3777
   46MOL   H70438594   3.323   6.683   2.816  2.4575 -0.5796  1.9986
   46MOL   H70538595   3.411   6.522   2.585 -1.0563  0.8210 -0.1740
   46MOL   H70638596   3.259   6.483   2.667 -0.0276  0.3757 -0.6967
   46MOL   H70738597   3.561   6.453   2.755 -0.9870  0.7766  1.6330
   46MOL   H70838598   3.458   6.332   2.712  1.6869  1.0045 -1.1493
   46MOL   H70938599   3.320   6.403   2.937  0.1899  0.2307  0.7406
   46MOL   H71038600   3.433   6.505   2.956 -0.4466 -0.4429  0.0829
   46MOL   H71138601   3.467   6.285   3.086 -2.8156  1.7655 -0.6081
   46MOL   H71238602   3.507   6.202   2.941 -2.3754  0.0077  0.7165
   46MOL   H71338603   3.710   6.244   3.073 -1.8856 -1.6624 -0.6616
   46MOL   H71438604   3.723   6.335   2.918  0.3629 -0.6029 -0.3688
   46MOL   H71538605   3.673   6.413   3.061  0.6293  0.0789 -0.3129
   46MOL   C71638606   2.972   7.515   2.859 -0.1976 -0.4287  0.2489
   46MOL   C71738607   3.068   7.524   2.977 -1.0076 -0.4530 -0.2102
   46MOL   C71838608   3.059   7.671   3.040  0.7581  0.8302  0.0235
   46MOL   C71938609   3.182   0.071   3.021  0.0342 -0.0270  0.2129
   46MOL   C72038610   3.196   0.162   3.142  0.6773 -0.7813  0.1383
   46MOL   C72138611   3.294   0.283   3.119 -0.3800  0.0333  0.3704
   46MOL   C72238612   3.444   0.245   3.142  0.2345 -0.5793 -0.9846
   46MOL   C72338613   3.483   0.234   3.292 -0.4646  1.1833 -0.0684
   46MOL   C72438614   3.635   0.192   3.318  0.5764  0.2707  0.2117
   46MOL   C72538615   3.681   0.138   3.457  0.2290 -0.1479  0.8624
   46MOL   C72638616   3.823   0.096   3.456  0.2195  0.5819 -0.8358
   46MOL   C72738617   3.904   0.091   3.587  0.4902  0.2143  0.4189
   46MOL   C72838618   4.053   0.053   3.563 -0.9433  0.5348  0.2710
   46MOL   C72938619   4.127   0.038   3.698  0.5206 -0.4601 -0.3219
   46MOL   H73038620   2.980   7.612   2.810 -0.9570  0.5363  1.9971
   46MOL   H73138621   2.869   7.510   2.893 -0.6365 -0.4783 -1.0382
   46MOL   H73238622   3.172   7.511   2.946 -0.9242 -0.3626  0.0347
   46MOL   H73338623   3.038   7.661   3.146 -0.2263  0.1959 -0.2304
   46MOL   H73438624   2.968   0.026   3.007  0.1126  2.0992  3.5303
   46MOL   H73538625   3.280   0.023   3.017  1.0573  2.0451 -0.7004
   46MOL   H73638626   3.168   0.135   2.934 -1.3346 -1.2137 -0.4621
   46MOL   H73738627   3.096   0.195   3.170  0.0094 -1.5180 -1.2844
   46MOL   H73838628   3.224   0.099   3.226  0.8922  2.4201  2.5449
   46MOL   H73938629   3.277   0.332   3.023  1.3086 -1.6191 -0.8052
   46MOL   H74038630   3.267   0.359   3.193 -1.6805  1.3858 -1.4586
   46MOL   H74138631   3.452   0.153   3.084  1.1137 -1.5304  0.6108
   46MOL   H74238632   3.496   0.330   3.097 -1.8166  1.5961  0.5998
   46MOL   H74338633   3.426   0.148   3.327  1.7407 -0.2522  0.1247
   46MOL   H74438634   3.453   0.311   3.363  2.2381  1.3515  0.9704
   46MOL   H74538635   3.659   0.108   3.253 -0.3975 -0.2300  0.4824
   46MOL   H74638636   3.691   0.279   3.283 -0.2550  0.1738 -1.4420
   46MOL   H74738637   3.672   0.214   3.535  1.2684  1.8385 -0.8970
   46MOL   H74838638   3.615   0.059   3.492 -1.3049  0.5960 -0.2797
   46MOL   H74938639   3.821   7.695   3.406 -0.4175  0.6539 -0.9625
   46MOL   H75038640   3.873   0.159   3.383 -2.4363  2.3153 -1.2414
   46MOL   H75138641   3.900   0.192   3.626  0.2041  0.2845  0.2071
   46MOL   H75238642   3.848   0.020   3.648 -2.6994  1.0314 -1.4353
   46MOL   H75338643   4.120   0.117   3.507  0.8152  1.0372  2.8788
   46MOL   H75438644   4.057   7.650   3.517  2.5776  0.1978  1.1924
   46MOL   H75538645   4.100   7.637   3.741 -0.2936 -0.1097 -0.0430
   46MOL   H75638646   4.115   0.126   3.761  1.9170 -0.6680  0.2474
   46MOL   H75738647   4.233   0.030   3.676  0.6608  0.2171  0.0911
   46MOL   C75838648   3.053   7.413   3.085  0.5427 -0.6578  0.1955
   46MOL   C75938649   3.186   7.388   3.154 -0.2127 -0.4363 -0.6437
   46MOL   C76038650   3.165   7.361   3.302  0.7026  0.5030  0.4583
   46MOL   C76138651   3.148   7.482   3.404 -0.2523  0.6614 -0.5898
   46MOL   C76238652   3.008   7.531   3.418  0.8048 -0.1128 -0.6045
   46MOL   C76338653   2.986   7.602   3.558  0.4357  0.2532 -0.0222
   46MOL   C76438654   3.034   0.049   3.557 -0.0392 -0.4759  0.0466
   46MOL   C76538655   2.945   0.151   3.495 -0.6268 -0.3999 -0.1243
   46MOL   C76638656   3.003   0.296   3.490  0.6380  0.0186 -0.1276
   46MOL   C76738657   2.903   0.411   3.452  0.9331 -0.3452 -0.1464
   46MOL   C76838658   2.816   0.387   3.332  0.1022 -0.5931  0.3140
   46MOL   C76938659   2.719   0.493   3.323 -0.6342 -0.5539 -0.1336
   46MOL   C77038660   2.600   0.464   3.229  0.3601 -0.2452 -0.8283
   46MOL   C77138661   2.634   0.461   3.088 -0.2921  0.6431 -0.3318
   46MOL   H77238662   2.973   7.434   3.156 -0.4070 -2.1975 -0.3877
   46MOL   H77338663   3.022   7.325   3.029  0.8644 -1.5023  1.3297
   46MOL   H77438664   3.255   7.472   3.145  0.4053 -1.0682 -1.8671
   46MOL   H77538665   3.081   7.300   3.335 -0.8575  2.0391 -0.5858
   46MOL   H77638666   3.259   7.325   3.343 -0.1010 -1.6643  0.4659
   46MOL   H77738667   3.175   7.442   3.502  0.1143  0.3711 -0.8081
   46MOL   H77838668   3.225   7.554   3.378  0.6107 -0.3831 -0.9671
   46MOL   H77938669   2.933   7.451   3.410 -0.8610  1.5269 -1.6922
   46MOL   H78038670   2.980   7.599   3.338  0.9351  0.4739 -0.1495
   46MOL   H78138671   3.034   7.553   3.643  0.0336  0.2263  0.1860
   46MOL   H78238672   2.880   7.602   3.582  0.5999 -0.3099  0.7135
   46MOL   H78338673   3.063   0.077   3.658  0.5664 -0.6064 -0.0894
   46MOL   H78438674   3.130   0.051   3.505 -0.4020  1.3328 -0.5856
   46MOL   H78538675   2.851   0.154   3.550  1.1344 -1.7355  3.0672
   46MOL   H78638676   2.937   0.128   3.389 -2.2879  1.1505 -0.3403
   46MOL   H78738677   3.077   0.290   3.410  0.6841  0.0918 -0.0908
   46MOL   H78838678   3.053   0.325   3.582  0.6165  0.4375 -0.2456
   46MOL   H78938679   2.968   0.498   3.439  0.9296 -0.3837 -0.4120
   46MOL   H79038680   2.844   0.425   3.543 -0.4985  0.0042 -1.1197
   46MOL   H79138681   2.874   0.390   3.239  0.7668  0.3563  0.7492
   46MOL   H79238682   2.765   0.290   3.331  0.8596 -1.0008 -1.6881
   46MOL   H79338683   2.676   0.519   3.420 -0.8405  0.1589 -0.4099
   46MOL   H79438684   2.769   0.586   3.299  2.7280 -2.1546  0.4333
   46MOL   H79538685   2.543   0.377   3.261  0.6796 -0.5550 -1.0992
   46MOL   H79638686   2.526   0.544   3.238 -0.2696 -0.9865  0.7983
   46MOL   H79738687   2.548   0.441   3.024  0.4207 -0.5055 -0.9295
   46MOL   H79838688   2.667   0.561   3.059 -0.0094  0.2799 -1.2809
   46MOL   H79938689   2.709   0.392   3.051  0.4087  0.7076  0.9242
   46MOL   C80038690   3.269   7.273   3.079 -0.7187  0.4327 -0.0802
   46MOL   C80138691   3.391   7.213   3.154  0.8076  0.2416  0.1120
   46MOL   C80238692   3.463   7.100   3.079  0.1487  0.2850 -0.4555
   46MOL   C80338693   3.539   7.016   3.175  0.9885  0.3555 -0.2342
   46MOL   C80438694   3.587   6.890   3.104 -0.5083  0.3103 -0.0444
   46MOL   C80538695   3.667   6.789   3.185 -0.5085 -0.4495 -0.1281
   46MOL   C80638696   3.795   6.832   3.255 -0.2447  0.1270 -0.2077
   46MOL   C80738697   3.849   6.735   3.354  0.7521  0.6785  0.7444
   46MOL   C80838698   3.995   6.782   3.393 -0.1328 -0.3716  0.3951
   46MOL   C80938699   4.043   6.719   3.523 -0.3611 -0.9416  0.7121
   46MOL   C81038700   4.189   6.752   3.558  0.1491  0.5866 -0.0124
   46MOL   C81138701   4.264   6.648   3.649 -0.0675 -0.2240  0.1972
   46MOL   C81238702   4.272   6.684   3.798  0.0727  0.6495  1.0493
   46MOL   C81338703   4.352   6.580   3.872  0.2356  0.5435  0.3586
   46MOL   H81438704   3.298   7.315   2.983  0.9809  0.1845  0.3085
   46MOL   H81538705   3.199   7.190   3.074  0.3445 -0.5321  0.9445
   46MOL   H81638706   3.349   7.172   3.245 -1.3201  0.5453 -0.6859
   46MOL   H81738707   3.540   7.130   3.008  0.3042  0.0805 -0.3734
   46MOL   H81838708   3.387   7.046   3.023  1.0820  0.5505 -2.0268
   46MOL   H81938709   3.480   6.973   3.256  1.1905  0.0775 -0.2354
   46MOL   H82038710   3.625   7.066   3.218  1.2422  0.9910 -1.4781
   46MOL   H82138711   3.498   6.843   3.061 -1.5365  0.7899  1.5379
   46MOL   H82238712   3.647   6.922   3.018  0.8700 -0.8260  0.4645
   46MOL   H82338713   3.701   6.709   3.120  1.1782  0.6890 -0.6979
   46MOL   H82438714   3.593   6.745   3.251 -1.8591  1.9679  0.0329
   46MOL   H82538715   3.873   6.856   3.182 -1.3164 -0.1883 -1.4745
   46MOL   H82638716   3.773   6.922   3.311 -2.0030 -0.4141 -0.0021
   46MOL   H82738717   3.788   6.733   3.444  0.5495  2.0874  0.6536
   46MOL   H82838718   3.858   6.637   3.307 -4.7883  0.5032 -0.2874
   46MOL   H82938719   4.060   6.755   3.310 -0.3163  0.5712 -0.0579
   46MOL   H83038720   4.007   6.890   3.404  1.7196 -0.5226  0.0176
   46MOL   H83138721   4.016   6.614   3.523 -0.7470 -0.8429  0.7846
   46MOL   H83238722   3.974   6.743   3.604 -1.3383 -0.6160 -0.2034
   46MOL   H83338723   4.253   6.749   3.470  0.9657 -1.2177  0.6261
   46MOL   H83438724   4.204   6.847   3.609  1.7803  0.0901  0.4792
   46MOL   H83538725   4.364   6.623   3.614 -0.7711 -1.6055 -0.8989
   46MOL   H83638726   4.221   6.551   3.625  2.6992 -1.5323  0.2675
   46MOL   H83738727   4.319   6.782   3.814  2.6764 -0.3554 -0.1401
   46MOL   H83838728   4.170   6.686   3.835 -0.8247 -1.5403 -1.1717
   46MOL   H83938729   4.451   6.570   3.829 -1.2575  0.0126 -3.1583
   46MOL   H84038730   4.358   6.606   3.977 -2.3382  3.1009 -0.0513
   46MOL   H84138731   4.313   6.479   3.863  0.3327  0.6593 -1.6710
   46MOL   H84238732   3.462   7.292   3.178  1.6135 -0.0066 -1.3680
   47MOL     C138733   6.076   6.051   1.821  0.6208 -0.3084  0.7222
   47MOL     C238734   6.055   5.899   1.833  0.0713 -0.6936 -0.1296
   47MOL     C338735   6.196   5.832   1.846 -0.0593 -0.0444 -0.5868
   47MOL     C438736   6.273   5.821   1.720 -0.0844 -0.2248  0.3235
   47MOL     C538737   6.405   5.741   1.735  0.1262  0.0334 -0.3450
   47MOL     C638738   6.390   5.589   1.734  0.4608  0.3235 -0.1941
   47MOL     C738739   6.513   5.511   1.692 -0.1186 -0.5982 -0.1666
   47MOL     C838740   6.472   5.359   1.700  0.3118 -0.6749 -0.0358
   47MOL     C938741   6.556   5.275   1.595 -0.0059  0.1583  0.8249
   47MOL    C1038742   6.516   5.127   1.603 -0.1845 -0.0582  0.1998
   47MOL    C1138743   6.604   5.049   1.505  0.7782  0.2086  0.3586
   47MOL    C1238744   6.567   4.899   1.490  0.2869 -0.3638  0.0535
   47MOL    C1338745   6.671   4.827   1.408  0.1475 -0.6168 -0.0015
   47MOL    C1438746   6.644   4.678   1.415  0.6855  0.2550 -0.0678
   47MOL    H1538747   5.982   6.100   1.800  0.4243 -0.6724  0.7474
   47MOL    H1638748   6.145   6.098   1.750 -2.5567  0.6973 -1.8043
   47MOL    H1738749   6.022   5.872   1.732 -0.9322  2.0154 -0.5767
   47MOL    H1838750   6.267   5.890   1.904  0.6445 -1.6263  0.1594
   47MOL    H1938751   6.189   5.737   1.900 -1.1921 -0.7055 -1.8647
   47MOL    H2038752   6.299   5.919   1.681 -0.7600  0.9370  2.6593
   47MOL    H2138753   6.216   5.772   1.641 -2.1919  0.7990  1.1718
   47MOL    H2238754   6.451   5.752   1.833 -0.6465  1.8820 -0.1811
   47MOL    H2338755   6.474   5.777   1.660 -1.4801  2.1003 -0.8628
   47MOL    H2438756   6.309   5.559   1.668  1.1349  0.2368 -0.9947
   47MOL    H2538757   6.379   5.567   1.840  1.2271  0.7068 -0.0289
   47MOL    H2638758   6.543   5.543   1.592  2.6249 -1.0468  0.4580
   47MOL    H2738759   6.597   5.534   1.758 -0.3048 -0.4129  0.0023
   47MOL    H2838760   6.367   5.342   1.676  0.4912  0.7719 -1.9648
   47MOL    H2938761   6.474   5.309   1.797 -0.0358 -0.2940  0.1681
   47MOL    H3038762   6.548   5.324   1.498 -0.2329 -0.1063  0.7086
   47MOL    H3138763   6.659   5.283   1.628 -0.0079 -0.0207  0.8787
   47MOL    H3238764   6.530   5.090   1.704 -2.8876 -4.6272 -0.9607
   47MOL    H3338765   6.412   5.110   1.576 -0.5191 -1.9553  2.6027
   47MOL    H3438766   6.578   5.099   1.412 -0.4970  1.2826  1.2715
   47MOL    H3538767   6.709   5.077   1.516  0.8635  0.3128 -0.7096
   47MOL    H3638768   6.469   4.882   1.445  0.7957 -1.6103 -0.6036
   47MOL    H3738769   6.556   4.866   1.593  1.1591  1.3313  0.7049
   47MOL    H3838770   6.688   4.858   1.305  3.2260 -1.3985  0.2156
   47MOL    H3938771   6.770   4.852   1.446  0.3542  0.4303 -1.1952
   47MOL    H4038772   6.715   4.621   1.354 -0.3385 -0.3641 -0.6874
   47MOL    H4138773   6.655   4.639   1.516  1.4728  1.9538  0.5205
   47MOL    H4238774   6.547   4.653   1.372  1.1442 -2.2649  0.2803
   47MOL    H4338775   6.111   6.088   1.917  0.0965 -1.4331  1.3506
   47MOL    C4438776   5.957   5.847   1.945  0.1842  0.7540  0.1608
   47MOL    C4538777   5.868   5.725   1.917 -0.1133 -0.6786  0.2001
   47MOL    C4638778   5.960   5.605   1.898  0.7892  0.4427 -0.2038
   47MOL    C4738779   5.889   5.473   1.875  0.0242  0.6545 -0.3323
   47MOL    C4838780   5.962   5.348   1.841  0.2138  0.2511  0.1558
   47MOL    C4938781   6.059   5.371   1.720 -0.0795 -0.2496 -0.5163
   47MOL    C5038782   6.007   5.416   1.587 -0.1257 -1.0329 -0.0159
   47MOL    C5138783   6.115   5.396   1.477  0.5646 -0.5122 -0.2360
   47MOL    C5238784   6.164   5.262   1.436 -0.3953  0.1753  0.4180
   47MOL    C5338785   6.231   5.279   1.295  0.3825  0.2879 -0.4435
   47MOL    C5438786   6.280   5.153   1.236 -0.4470 -0.9801 -0.3720
   47MOL    C5538787   6.311   5.155   1.085 -0.2933 -0.3556  0.1279
   47MOL    C5638788   6.441   5.238   1.056  1.0907  0.0804 -0.3805
   47MOL    C5738789   6.573   5.171   1.107  0.2494 -0.1726  0.3112
   47MOL    H5838790   6.005   5.820   2.039  1.2792  1.2379 -0.2583
   47MOL    H5938791   5.890   5.929   1.970  1.3664  1.7616  0.0719
   47MOL    H6038792   5.804   5.710   2.003  0.1216 -0.0767  0.4833
   47MOL    H6138793   6.018   5.612   1.806  0.2875  1.5351 -0.4389
   47MOL    H6238794   6.039   5.599   1.974 -0.1415  1.0880  0.8258
   47MOL    H6338795   5.814   5.476   1.796  0.4177  1.9549 -0.6682
   47MOL    H6438796   5.815   5.450   1.952  1.6248  1.8214  1.6278
   47MOL    H6538797   5.891   5.267   1.824  0.8293  0.1535 -2.0956
   47MOL    H6638798   6.012   5.317   1.932  1.4055  1.9406  0.0790
   47MOL    H6738799   6.138   5.442   1.744 -1.5828  0.8046  1.4358
   47MOL    H6838800   6.107   5.276   1.698 -0.7864 -0.8206  0.4060
   47MOL    H6938801   5.914   5.372   1.552 -0.8656 -0.0086  0.6263
   47MOL    H7038802   5.985   5.523   1.595 -0.9429 -1.2822  1.4241
   47MOL    H7138803   6.207   5.451   1.493 -0.5808  1.3727 -0.0629
   47MOL    H7238804   6.070   5.440   1.388 -0.4383  0.5467  0.7873
   47MOL    H7338805   6.227   5.218   1.512 -0.1093  0.1597  0.1733
   47MOL    H7438806   6.088   5.186   1.420  0.3469 -0.9633  2.2289
   47MOL    H7538807   6.313   5.349   1.310 -0.3238  0.6534  1.9424
   47MOL    H7638808   6.161   5.324   1.224  0.9024  1.2834 -0.3353
   47MOL    H7738809   6.196   5.085   1.249 -0.0311 -1.9781 -2.5960
   47MOL    H7838810   6.369   5.124   1.291  0.1518  1.1473 -0.1520
   47MOL    H7938811   6.321   5.053   1.045 -2.2662 -0.4646 -0.1609
   47MOL    H8038812   6.223   5.200   1.039  1.6938  0.3994 -3.0889
   47MOL    H8138813   6.427   5.339   1.094 -0.5180 -0.5541  0.7406
   47MOL    H8238814   6.445   5.253   0.948  0.5808 -1.6979 -0.6735
   47MOL    H8338815   6.567   5.063   1.123  0.8187 -0.5103 -1.6239
   47MOL    H8438816   6.594   5.223   1.200 -0.2828 -0.3965  0.5594
   47MOL    H8538817   6.657   5.184   1.039  0.7414  0.8481  1.1014
   47MOL    C8638818   5.766   5.745   1.800  0.7696  0.4418  0.6272
   47MOL    C8738819   5.688   5.879   1.794  0.9555 -0.5245 -0.7968
   47MOL    C8838820   5.606   5.905   1.926  0.0253  0.1455 -0.5454
   47MOL    C8938821   5.584   6.052   1.951 -0.0299 -0.5730 -0.4333
   47MOL    C9038822   5.691   6.104   2.048  0.1768  0.0237  0.0986
   47MOL    C9138823   5.688   6.257   2.065 -0.1418  0.0831  0.1149
   47MOL    C9238824   5.811   6.302   2.147  0.0167 -0.2840  0.5296
   47MOL    C9338825   5.833   6.452   2.125  0.5244  0.1026 -0.6198
   47MOL    C9438826   5.934   6.525   2.218 -0.4892 -0.4509  0.7437
   47MOL    C9538827   5.955   6.672   2.186 -0.4900  0.3109 -0.2700
   47MOL    C9638828   5.998   6.754   2.304 -0.0892 -0.0467 -0.4100
   47MOL    C9738829   6.141   6.730   2.340  0.1946 -0.3101  0.6270
   47MOL    C9838830   6.209   6.838   2.421 -0.3765  0.5039 -0.3035
   47MOL    C9938831   6.358   6.816   2.470  0.4790 -0.0709 -0.1672
   47MOL   H10038832   5.824   5.730   1.709 -1.8704  1.9636 -1.3978
   47MOL   H10138833   5.697   5.661   1.810 -0.5383  1.4507  0.2891
   47MOL   H10238834   5.764   5.956   1.779  0.6730 -0.0202  0.3315
   47MOL   H10338835   5.507   5.860   1.923 -0.2987  0.9226 -2.2265
   47MOL   H10438836   5.647   5.857   2.014  0.6683 -0.0518 -0.9482
   47MOL   H10538837   5.570   6.114   1.863  0.1239 -1.3131 -0.9880
   47MOL   H10638838   5.502   6.069   2.021  0.4820  0.2070 -0.0209
   47MOL   H10738839   5.791   6.090   2.006  0.2988  4.1741 -1.2713
   47MOL   H10838840   5.671   6.055   2.144 -2.9523  1.2745  0.1370
   47MOL   H10938841   5.594   6.298   2.102 -0.8210 -1.0939 -0.2626
   47MOL   H11038842   5.699   6.298   1.965  2.7686 -1.0167 -0.0754
   47MOL   H11138843   5.807   6.270   2.251 -1.8204 -0.8057  0.3073
   47MOL   H11238844   5.897   6.247   2.109  1.2122  2.2130 -0.5530
   47MOL   H11338845   5.740   6.507   2.132  0.8965  0.4520  2.2042
   47MOL   H11438846   5.881   6.468   2.028  2.3350 -0.2251  0.2129
   47MOL   H11538847   5.901   6.521   2.322 -1.0280 -1.3436  0.5462
   47MOL   H11638848   6.030   6.475   2.220 -0.2189  0.0678  0.7861
   47MOL   H11738849   5.868   6.721   2.142 -1.2927 -0.4211  0.4916
   47MOL   H11838850   6.032   6.687   2.110 -2.3540  1.7872 -1.8957
   47MOL   H11938851   5.992   6.859   2.273 -2.1671  0.1461  0.5410
   47MOL   H12038852   5.929   6.739   2.387 -3.1681 -0.5247 -2.9365
   47MOL   H12138853   6.159   6.632   2.386 -1.3111 -0.7733  0.2762
   47MOL   H12238854   6.200   6.742   2.249  1.5469  1.2250  1.6915
   47MOL   H12338855   6.140   6.843   2.506 -1.2379  0.0474 -0.9712
   47MOL   H12438856   6.196   6.935   2.374  1.4441  1.1661  0.5104
   47MOL   H12538857   6.380   6.885   2.551  0.3484 -0.5341  0.2667
   47MOL   H12638858   6.374   6.715   2.507 -0.0355  0.5569  1.8893
   47MOL   H12738859   6.436   6.827   2.395 -0.7866 -1.9396 -1.7900
   47MOL   C12838860   5.591   5.887   1.676  0.0734  0.6833 -0.1784
   47MOL   C12938861   5.660   5.873   1.540 -0.1604 -0.2338  0.7681
   47MOL   C13038862   5.635   5.737   1.476  0.1101  0.3027  0.1601
   47MOL   C13138863   5.734   5.697   1.370 -0.8264 -0.1756  0.0936
   47MOL   C13238864   5.714   5.551   1.325  0.4955 -0.8443 -0.0321
   47MOL   C13338865   5.795   5.527   1.195 -0.1807 -0.3203  0.2805
   47MOL   C13438866   5.780   5.383   1.154  0.1655 -0.5142  0.0603
   47MOL   C13538867   5.855   5.358   1.024 -0.4036  1.3279  0.2495
   47MOL   C13638868   5.861   5.207   0.985  0.2462 -0.4862  0.2900
   47MOL   C13738869   5.920   5.199   0.846 -0.2141 -0.0860  0.1857
   47MOL   C13838870   5.973   5.057   0.817  0.4495  0.3406 -0.0899
   47MOL   C13938871   6.070   5.057   0.700 -0.1651 -0.1781 -0.2770
   47MOL   C14038872   6.100   4.918   0.658 -0.6569 -0.2793  0.2036
   47MOL   C14138873   6.216   4.911   0.553  0.1413  0.2527 -0.0811
   47MOL   H14238874   5.509   5.816   1.687 -0.7641  2.0009  2.7637
   47MOL   H14338875   5.550   5.988   1.676 -2.0548 -0.1751 -2.2254
   47MOL   H14438876   5.768   5.879   1.552  0.2903 -3.1119 -1.3959
   47MOL   H14538877   5.643   5.655   1.548  2.8355  1.3121  1.0751
   47MOL   H14638878   5.536   5.738   1.431 -0.7434 -0.3893  1.9662
   47MOL   H14738879   5.725   5.765   1.285 -0.1551 -1.1511 -0.7666
   47MOL   H14838880   5.833   5.711   1.412 -0.2099 -0.7775 -1.1328
   47MOL   H14938881   5.752   5.478   1.397 -2.8143 -0.0320  2.6503
   47MOL   H15038882   5.612   5.520   1.300 -0.3724  1.0466  1.0713
   47MOL   H15138883   5.750   5.588   1.117  1.5120 -0.0576 -0.5152
   47MOL   H15238884   5.896   5.562   1.216 -0.2234 -1.0858  1.8034
   47MOL   H15338885   5.806   5.324   1.242 -0.5013 -0.2392  0.4462
   47MOL   H15438886   5.677   5.364   1.124  0.1399 -1.5609  0.7843
   47MOL   H15538887   5.811   5.424   0.949  1.3586  1.5506 -0.6359
   47MOL   H15638888   5.957   5.397   1.016  0.0634  0.0428 -0.1558
   47MOL   H15738889   5.915   5.148   1.060 -1.0354 -1.6213  0.3556
   47MOL   H15838890   5.762   5.162   0.976  0.8230 -1.6043 -0.6480
   47MOL   H15938891   6.004   5.267   0.836  2.0891 -2.7401  0.8247
   47MOL   H16038892   5.846   5.221   0.769 -2.5002  2.5890  3.0679
   47MOL   H16138893   6.013   5.012   0.908  0.3854  2.1998  0.8946
   47MOL   H16238894   5.883   5.001   0.791  1.1560 -1.2244  0.7860
   47MOL   H16338895   6.017   5.100   0.616 -0.4076  0.6244  0.2834
   47MOL   H16438896   6.167   5.106   0.716 -0.4335  0.5365 -0.8249
   47MOL   H16538897   6.137   4.848   0.732 -3.0965 -1.5933  0.2365
   47MOL   H16638898   6.010   4.885   0.607 -0.3312 -0.6931 -0.1088
   47MOL   H16738899   6.304   4.947   0.608  0.0849  1.8282 -0.9844
   47MOL   H16838900   6.249   4.809   0.538 -0.2943 -0.0746  1.1305
   47MOL   H16938901   6.187   4.965   0.463  0.6586 -1.1335 -1.0874
   47MOL   C17038902   5.636   5.987   1.444  0.1270 -0.0281 -0.5324
   47MOL   C17138903   5.701   6.124   1.494  0.2144 -0.1128  0.4246
   47MOL   C17238904   5.860   6.101   1.504  0.7313 -0.9656  0.0593
   47MOL   C17338905   5.934   6.038   1.379  0.3306 -0.3485 -0.1868
   47MOL   C17438906   6.060   5.963   1.419 -0.3097  0.1813 -0.1866
   47MOL   C17538907   6.123   5.894   1.295 -0.5108  0.0611  0.1958
   47MOL   C17638908   6.261   5.842   1.339 -0.3385 -0.3104  0.5357
   47MOL   C17738909   6.355   5.809   1.219  0.4397 -0.4711  0.2350
   47MOL   C17838910   6.496   5.755   1.267  0.1372 -0.1771 -0.0088
   47MOL   C17938911   6.574   5.691   1.157  0.7507 -0.1425  0.3666
   47MOL   C18038912   6.697   5.615   1.206 -0.2569  0.5443  0.4151
   47MOL   C18138913   6.767   5.550   1.083  0.1675  0.0214  0.4734
   47MOL   C18238914   6.889   5.464   1.118  0.3429  0.3742 -0.8195
   47MOL   C18338915   6.946   5.384   1.005  0.0194  0.0287 -0.3397
   47MOL   H18438916   5.529   5.997   1.428 -0.0697  0.7185  1.1478
   47MOL   H18538917   5.671   5.962   1.343 -0.6776 -1.0324 -0.5642
   47MOL   H18638918   5.670   6.149   1.596  1.9451 -1.1106  1.2193
   47MOL   H18738919   5.913   6.192   1.532  0.8710 -0.7752 -0.8263
   47MOL   H18838920   5.885   6.041   1.592  1.0943  1.6831  1.8147
   47MOL   H18938921   5.870   5.956   1.345  1.9466 -1.8659  0.4176
   47MOL   H19038922   5.961   6.108   1.300  0.5514 -0.5528 -0.2936
   47MOL   H19138923   6.128   6.035   1.464  0.8202 -0.9790 -0.0231
   47MOL   H19238924   6.027   5.891   1.494 -0.0681 -1.3318 -1.4982
   47MOL   H19338925   6.129   5.961   1.209 -1.3820  3.7621  2.8984
   47MOL   H19438926   6.064   5.813   1.251 -1.2395  0.5428  0.2892
   47MOL   H19538927   6.251   5.750   1.396  1.6794  0.9111  2.9488
   47MOL   H19638928   6.307   5.911   1.410  2.1582 -0.3642 -0.9830
   47MOL   H19738929   6.365   5.900   1.160  0.0742 -1.6204 -1.6244
   47MOL   H19838930   6.309   5.739   1.149  0.6521 -1.7004  1.3080
   47MOL   H19938931   6.469   5.686   1.347  1.8373  0.0765  0.8259
   47MOL   H20038932   6.549   5.836   1.318 -2.1503  0.3270  1.6869
   47MOL   H20138933   6.588   5.754   1.069 -1.0044 -1.0927 -0.6318
   47MOL   H20238934   6.508   5.614   1.115 -0.3819  0.2547  1.3789
   47MOL   H20338935   6.672   5.548   1.288  0.5275  1.6953  1.6083
   47MOL   H20438936   6.771   5.676   1.256 -0.5389  0.5649  0.8065
   47MOL   H20538937   6.697   5.481   1.035 -0.4029 -0.2684  1.7041
   47MOL   H20638938   6.802   5.627   1.015 -1.1190  0.0294 -0.1981
   47MOL   H20738939   6.972   5.523   1.156  0.9346 -0.3285 -0.9989
   47MOL   H20838940   6.868   5.390   1.196  3.2912 -0.4286 -0.7290
   47MOL   H20938941   6.992   5.449   0.931 -1.1962  0.8998 -0.3451
   47MOL   H21038942   6.880   5.316   0.949 -1.0578  0.8473 -0.0718
   47MOL   H21138943   7.027   5.315   1.027 -0.9660 -1.6572 -1.8101
   47MOL   C21238944   5.656   6.233   1.401  0.2133  0.5906  0.3868
   47MOL   C21338945   5.706   6.380   1.414 -0.3715 -0.2347 -0.5502
   47MOL   C21438946   5.695   6.452   1.274 -0.1329  0.0560  0.0666
   47MOL   C21538947   5.556   6.445   1.205  0.8693  0.4238  0.4454
   47MOL   C21638948   5.542   6.527   1.073  0.1636 -0.1762 -0.6468
   47MOL   C21738949   5.416   6.499   0.995 -0.2675 -0.7427  0.0539
   47MOL   C21838950   5.413   6.590   0.872 -0.3025  0.1525 -0.6587
   47MOL   C21938951   5.276   6.613   0.811  0.4880 -0.3408 -0.0514
   47MOL   C22038952   5.177   6.681   0.898  0.0600 -0.1922 -0.1434
   47MOL   C22138953   5.039   6.712   0.845  0.5656  0.0620  0.1713
   47MOL   C22238954   4.959   6.584   0.805  0.0014  0.0444  0.1253
   47MOL   C22338955   4.814   6.591   0.843  0.1166  0.6310  0.2453
   47MOL   C22438956   4.741   6.697   0.762 -0.2246  0.2590 -0.2367
   47MOL   C22538957   4.593   6.696   0.785 -0.0001 -0.2327  0.1555
   47MOL   H22638958   5.548   6.247   1.397  0.0187 -1.0977 -1.4479
   47MOL   H22738959   5.686   6.193   1.304  1.8260 -1.0959  1.5477
   47MOL   H22838960   5.814   6.386   1.431 -0.7416  0.6752  1.6469
   47MOL   H22938961   5.723   6.558   1.279  0.4082 -0.1500  1.9228
   47MOL   H23038962   5.769   6.409   1.208  0.3584 -0.0102  0.6561
   47MOL   H23138963   5.478   6.472   1.276  0.2840 -1.4558  0.5366
   47MOL   H23238964   5.521   6.343   1.189  0.6919 -0.0340  3.4581
   47MOL   H23338965   5.623   6.496   1.006  1.3294 -0.5389  0.9208
   47MOL   H23438966   5.544   6.630   1.107 -0.7032  0.2023 -1.7035
   47MOL   H23538967   5.329   6.505   1.060  0.1641 -0.8192  0.6430
   47MOL   H23638968   5.413   6.393   0.969  0.6660 -0.5843 -0.7095
   47MOL   H23738969   5.439   6.689   0.909 -0.6017 -0.5343  1.4404
   47MOL   H23838970   5.485   6.563   0.794  1.4841 -1.0104  1.3675
   47MOL   H23938971   5.293   6.674   0.723 -1.4935  0.3025 -0.0074
   47MOL   H24038972   5.233   6.517   0.781  0.1733  0.2248 -1.4130
   47MOL   H24138973   5.215   6.777   0.932 -0.7082  0.7198 -1.7742
   47MOL   H24238974   5.164   6.632   0.994  1.8726  1.0556  0.7558
   47MOL   H24338975   4.978   6.763   0.919 -0.2857  1.4295 -1.4407
   47MOL   H24438976   5.043   6.771   0.753  4.5840 -4.6272 -2.9575
   47MOL   H24538977   5.005   6.502   0.860 -0.9712  0.5099  1.6789
   47MOL   H24638978   4.969   6.554   0.701 -0.1364 -1.6218  0.5785
   47MOL   H24738979   4.811   6.600   0.951  1.5746  2.1859  0.1727
   47MOL   H24838980   4.778   6.490   0.821 -0.9729  1.3695 -1.4931
   47MOL   H24938981   4.765   6.682   0.656 -0.8374 -0.0420 -0.3368
   47MOL   H25038982   4.786   6.795   0.779 -3.5901  2.2235 -2.1110
   47MOL   H25138983   4.558   6.593   0.783 -0.5178 -0.0511 -0.0979
   47MOL   H25238984   4.545   6.740   0.873 -2.1861 -0.6143 -0.8202
   47MOL   H25338985   4.539   6.735   0.699 -0.2338  1.8871  1.2361
   47MOL   C25438986   5.639   6.454   1.533  0.1425 -0.0296  0.2064
   47MOL   C25538987   5.705   6.587   1.575 -1.1046  0.0783  0.0014
   47MOL   C25638988   5.624   6.688   1.658  0.5771  0.2629 -0.6752
   47MOL   C25738989   5.519   6.766   1.576  0.0620  0.0000 -0.1911
   47MOL   C25838990   5.500   6.910   1.625  0.4008  0.5871  0.4882
   47MOL   C25938991   5.422   7.001   1.532  0.3533 -0.3443  0.0292
   47MOL   C26038992   5.374   7.123   1.610 -0.0402 -0.0875  0.5856
   47MOL   C26138993   5.322   7.230   1.507 -0.2862  0.2106  0.1168
   47MOL   C26238994   5.256   7.350   1.581  0.3390  0.1688 -0.6092
   47MOL   C26338995   5.195   7.451   1.482  0.2287  0.0350  0.2883
   47MOL   C26438996   5.126   7.560   1.553  0.1322  0.6159 -0.0433
   47MOL   C26538997   5.033   7.635   1.458 -0.4169  0.2791  0.2792
   47MOL   C26638998   4.945   0.048   1.522 -0.2445 -0.3757  0.4389
   47MOL   C26738999   4.844   0.114   1.432 -0.4437 -0.1869  0.2097
   47MOL   H26839000   5.633   6.389   1.621 -0.9008 -1.0983 -0.6443
   47MOL   H26939001   5.531   6.453   1.516  0.4859 -0.2487 -2.0725
   47MOL   H27039002   5.739   6.638   1.485  1.1718 -1.1625  0.1222
   47MOL   H27139003   5.689   6.752   1.718 -0.8489  2.3785 -1.3124
   47MOL   H27239004   5.564   6.637   1.733  2.1230 -0.0914  0.3265
   47MOL   H27339005   5.428   6.708   1.560 -1.1319  1.0977  2.3921
   47MOL   H27439006   5.556   6.788   1.475 -3.7835  0.6156 -1.5698
   47MOL   H27539007   5.603   6.938   1.645  0.4103 -1.0277  2.9776
   47MOL   H27639008   5.446   6.907   1.720  0.9155  2.5081  0.8629
   47MOL   H27739009   5.333   6.951   1.493 -0.0129  2.0338 -2.4269
   47MOL   H27839010   5.492   7.037   1.456  0.0302  0.4367  0.1011
   47MOL   H27939011   5.300   7.086   1.681 -0.9270  2.8108  1.2438
   47MOL   H28039012   5.461   7.163   1.662 -0.2259  0.7421  0.2834
   47MOL   H28139013   5.256   7.177   1.440  2.7263 -0.8675 -2.1060
   47MOL   H28239014   5.405   7.261   1.444  1.7564  0.7878  2.9484
   47MOL   H28339015   5.184   7.309   1.653  1.4864 -3.0438 -1.1775
   47MOL   H28439016   5.334   7.401   1.637  0.7054 -0.7330 -0.2803
   47MOL   H28539017   5.122   7.399   1.421 -2.6617  4.1944  0.0217
   47MOL   H28639018   5.265   7.502   1.415  0.1354  2.4263  1.9575
   47MOL   H28739019   5.187   7.625   1.616  0.1659  0.4368  0.1092
   47MOL   H28839020   5.057   7.529   1.632  0.9202  0.8813  0.7683
   47MOL   H28939021   5.100   7.679   1.384 -1.3472  2.3488  0.6242
   47MOL   H29039022   4.963   7.568   1.407  0.3648  1.3073 -2.2167
   47MOL   H29139023   4.887   0.008   1.605 -0.7550  0.0473  0.2891
   47MOL   H29239024   5.013   0.125   1.560  0.1516 -0.0609 -0.8748
   47MOL   H29339025   4.898   0.161   1.350 -0.2742 -1.9478 -0.7152
   47MOL   H29439026   4.798   0.197   1.484 -0.5879 -0.0166 -0.1918
   47MOL   H29539027   4.773   0.045   1.386  1.2790 -0.1327 -2.6041
   47MOL   C29639028   5.837   6.548   1.654 -0.5842 -0.0277  0.0581
   47MOL   C29739029   5.937   6.668   1.669  1.0852  0.0505 -0.6317
   47MOL   C29839030   6.053   6.627   1.764  0.7540  0.5328 -0.0982
   47MOL   C29939031   6.166   6.541   1.715  0.1255  0.0463  0.2272
   47MOL   C30039032   6.275   6.519   1.815 -0.0016  1.0152  0.4924
   47MOL   C30139033   6.240   6.447   1.945 -0.1135  0.0572  0.1970
   47MOL   C30239034   6.356   6.384   2.019  0.1864  0.4206  0.2776
   47MOL   C30339035   6.319   6.349   2.160 -0.3347 -0.4009 -1.0823
   47MOL   C30439036   6.235   6.220   2.175 -0.0980  0.2481 -0.7642
   47MOL   C30539037   6.220   6.176   2.323  0.1788 -0.5769  0.5866
   47MOL   C30639038   6.154   6.038   2.330  0.1304  0.6041 -0.2807
   47MOL   C30739039   6.000   6.033   2.350 -0.0629 -0.4621  1.2696
   47MOL   C30839040   5.955   6.082   2.488 -0.2802  0.8383  0.1472
   47MOL   C30939041   5.804   6.061   2.495  0.2681 -1.1390 -0.2264
   47MOL   H31039042   5.889   6.473   1.594  1.0785  0.5782  0.7276
   47MOL   H31139043   5.818   6.499   1.750  1.9813  0.2689  0.7400
   47MOL   H31239044   5.889   6.739   1.736 -1.9731 -1.7229 -0.8276
   47MOL   H31339045   6.002   6.586   1.852  4.9646 -1.7558  1.4101
   47MOL   H31439046   6.092   6.714   1.818  0.7187  1.1927 -1.1298
   47MOL   H31539047   6.201   6.564   1.614 -3.9103  0.5478 -1.1634
   47MOL   H31639048   6.121   6.442   1.703 -1.1694  0.3665  2.1491
   47MOL   H31739049   6.348   6.462   1.759 -2.3355  0.1073 -1.7291
   47MOL   H31839050   6.325   6.613   1.842  0.1344  0.8583  0.7851
   47MOL   H31939051   6.186   6.355   1.923 -0.9366 -0.4676  4.0065
   47MOL   H32039052   6.191   6.512   2.017  1.5698 -0.2496  1.6574
   47MOL   H32139053   6.383   6.289   1.974 -1.0949 -0.6447  1.7029
   47MOL   H32239054   6.450   6.439   2.016  1.3851 -1.6039  0.5473
   47MOL   H32339055   6.272   6.433   2.211  1.4435  0.4101 -0.7533
   47MOL   H32439056   6.413   6.331   2.212  0.4828 -0.1917 -2.4583
   47MOL   H32539057   6.141   6.228   2.122  0.5938  3.6159 -1.5673
   47MOL   H32639058   6.298   6.145   2.128 -0.4119 -0.6722  0.2658
   47MOL   H32739059   6.177   6.257   2.381  1.5210  0.3694  0.2892
   47MOL   H32839060   6.319   6.168   2.369  0.5315  0.6464  0.0527
   47MOL   H32939061   6.200   5.972   2.403 -0.9869  0.6095  0.4342
   47MOL   H33039062   6.183   5.984   2.239  2.0496 -0.0769  0.7000
   47MOL   H33139063   5.960   5.936   2.323  0.8154 -0.2309 -0.9652
   47MOL   H33239064   5.945   6.075   2.266  0.5705 -0.9325  0.6109
   47MOL   H33339065   5.994   6.181   2.513 -0.6768  1.2249 -0.7183
   47MOL   H33439066   5.992   6.016   2.566 -1.4309 -0.6247 -0.5411
   47MOL   H33539067   5.761   6.066   2.395  0.5063  1.2672 -0.2283
   47MOL   H33639068   5.778   5.964   2.538 -2.3969 -0.4362 -0.1656
   47MOL   H33739069   5.753   6.143   2.546  1.0576  0.8230 -2.4959
   47MOL   C33839070   5.997   6.741   1.545  0.7822  0.0424  0.4707
   47MOL   C33939071   5.926   6.873   1.505 -0.1275 -0.8902 -0.1304
   47MOL   C34039072   5.933   6.985   1.607  0.6797  0.0697 -0.1325
   47MOL   C34139073   6.075   7.034   1.630  0.4872  0.3168  0.3351
   47MOL   C34239074   6.057   7.152   1.727 -0.4158  0.2924  0.2087
   47MOL   C34339075   6.017   7.106   1.869  0.1593 -0.0542  0.4750
   47MOL   C34439076   6.012   7.215   1.978  0.5604  0.1804 -0.7064
   47MOL   C34539077   5.911   7.325   1.958 -0.0220  0.1603  0.0688
   47MOL   C34639078   5.895   7.415   2.081 -0.1516 -0.0887  0.6463
   47MOL   C34739079   5.774   7.509   2.082 -0.3594  0.3234 -0.2532
   47MOL   C34839080   5.761   7.609   2.196 -0.3326 -0.7370 -0.1820
   47MOL   C34939081   5.654   0.017   2.169 -0.1507 -0.5202  0.5576
   47MOL   C35039082   5.650   0.116   2.281  0.1750 -0.3010 -0.6183
   47MOL   C35139083   5.524   0.202   2.279 -0.2517 -0.6885  0.6260
   47MOL   H35239084   6.101   6.763   1.566  0.7141 -0.1222  0.9737
   47MOL   H35339085   6.023   6.676   1.461  0.4421  0.5950 -0.0648
   47MOL   H35439086   5.820   6.847   1.499 -0.7747  1.7442 -0.6361
   47MOL   H35539087   5.865   7.064   1.572 -1.9411 -3.1369 -2.6213
   47MOL   H35639088   5.882   6.954   1.698 -0.2791 -0.3709 -0.8069
   47MOL   H35739089   6.113   7.084   1.540 -1.3231 -0.8600 -1.1305
   47MOL   H35839090   6.154   6.967   1.663  0.8131  0.7571  0.4470
   47MOL   H35939091   5.990   7.226   1.683 -0.1573 -0.7794 -2.0533
   47MOL   H36039092   6.152   7.205   1.735 -1.1650  1.6827  0.1520
   47MOL   H36139093   5.913   7.072   1.863  0.4926 -0.7997 -1.5313
   47MOL   H36239094   6.074   7.020   1.903 -1.1156 -0.5344  1.4658
   47MOL   H36339095   5.983   7.169   2.073 -3.9684  1.7287 -1.2392
   47MOL   H36439096   6.114   7.254   1.977  0.4493  0.4725 -1.7600
   47MOL   H36539097   5.932   7.384   1.869 -3.9425 -0.8080 -1.6228
   47MOL   H36639098   5.815   7.276   1.940  0.5619 -0.8104 -0.4459
   47MOL   H36739099   5.889   7.347   2.166  1.8848 -1.0573  0.0476
   47MOL   H36839100   5.970   7.490   2.106 -1.3734  1.2749  0.3136
   47MOL   H36939101   5.766   7.554   1.983 -0.7363 -3.0131 -1.8189
   47MOL   H37039102   5.680   7.455   2.071 -1.7407  2.5857  0.1947
   47MOL   H37139103   5.858   7.660   2.203  1.2190 -3.5592 -0.3253
   47MOL   H37239104   5.743   7.548   2.284  0.3759 -0.2871  0.2798
   47MOL   H37339105   5.554   7.671   2.163 -1.0332  1.3477  1.8188
   47MOL   H37439106   5.677   0.067   2.075 -1.7470 -2.3950 -0.8751
   47MOL   H37539107   5.646   0.055   2.372  0.8578  0.8425  0.2028
   47MOL   H37639108   5.741   0.177   2.282  1.2586 -1.8660 -1.0679
   47MOL   H37739109   5.435   0.139   2.279 -0.6073 -0.1905  0.9517
   47MOL   H37839110   5.517   0.254   2.374 -2.1536 -0.8356  0.5871
   47MOL   H37939111   5.527   0.272   2.195 -1.2244 -0.3839  0.8473
   47MOL   C38039112   5.977   6.929   1.365 -0.2510  0.2007  0.0139
   47MOL   C38139113   5.932   6.859   1.237  0.0727 -0.3081 -0.1620
   47MOL   C38239114   5.822   6.930   1.156 -0.4622  0.2390  0.5442
   47MOL   C38339115   5.697   6.990   1.227 -0.3350 -0.7670  0.3070
   47MOL   C38439116   5.629   7.072   1.119  0.4760  0.3605  0.5902
   47MOL   C38539117   5.498   7.132   1.178 -0.0471 -0.4493  0.3522
   47MOL   C38639118   5.430   7.231   1.082  0.3345  0.5397  0.9059
   47MOL   C38739119   5.512   7.355   1.031  0.3979  0.4892  0.2391
   47MOL   C38839120   5.561   7.452   1.136  0.3266 -0.5554  0.2989
   47MOL   C38939121   5.680   7.545   1.092 -0.2334  0.0022 -0.7596
   47MOL   C39039122   5.691   7.652   1.208  0.3765 -0.1164  0.4261
   47MOL   C39139123   5.830   0.022   1.199  0.0265  0.3753 -0.5958
   47MOL   C39239124   5.868   0.104   1.318 -0.0991 -0.8292 -0.2496
   47MOL   C39339125   6.010   0.169   1.326 -0.4449 -0.1265  0.5876
   47MOL   H39439126   6.083   6.951   1.360 -0.1380 -0.5162 -0.9183
   47MOL   H39539127   5.934   7.028   1.349  0.8281  0.5926 -0.5138
   47MOL   H39639128   5.884   6.764   1.264 -2.1268  0.8496  0.1078
   47MOL   H39739129   5.791   6.859   1.079  0.7735  2.4873 -2.1291
   47MOL   H39839130   5.884   7.007   1.109 -1.4427 -0.0285 -1.2290
   47MOL   H39939131   5.725   7.055   1.310 -1.5242 -1.6300  1.4000
   47MOL   H40039132   5.641   6.908   1.271  1.1968 -2.1937 -0.3577
   47MOL   H40139133   5.592   7.006   1.040 -2.0102  2.7031 -0.3181
   47MOL   H40239134   5.699   7.149   1.085  0.3523  0.8036  1.3321
   47MOL   H40339135   5.520   7.178   1.274 -1.4862  0.4372  0.2809
   47MOL   H40439136   5.435   7.060   1.230 -0.8179  0.7489  1.0951
   47MOL   H40539137   5.376   7.178   1.004  1.5562  1.4669 -0.6047
   47MOL   H40639138   5.346   7.273   1.137 -1.0773 -0.1750 -0.6528
   47MOL   H40739139   5.600   7.311   0.983 -0.3004 -0.8442  0.1596
   47MOL   H40839140   5.460   7.414   0.955 -0.8824  0.4369  1.0539
   47MOL   H40939141   5.476   7.513   1.168  0.6077 -0.6989  1.3471
   47MOL   H41039142   5.596   7.403   1.227 -0.5562 -1.1410  0.3213
   47MOL   H41139143   5.654   7.593   0.997 -2.8082  3.2490  1.4598
   47MOL   H41239144   5.774   7.490   1.089 -2.3944 -4.0285  0.9618
   47MOL   H41339145   5.619   0.038   1.202  1.2783  0.8229  1.9976
   47MOL   H41439146   5.681   7.594   1.300 -1.1133  1.0775  1.0391
   47MOL   H41539147   5.837   0.080   1.107  0.1868  2.3340  0.6154
   47MOL   H41639148   5.920   7.656   1.190  0.3439  0.5380  1.2331
   47MOL   H41739149   5.796   0.187   1.311  0.0935 -0.4724  1.7130
   47MOL   H41839150   5.845   0.060   1.415 -0.4182  0.6915  0.3920
   47MOL   H41939151   6.018   0.243   1.246 -2.4035 -0.8127 -0.2777
   47MOL   H42039152   6.095   0.101   1.323  0.0139  0.4910 -0.6355
   47MOL   H42139153   6.018   0.228   1.417  0.1169  1.1838 -0.3036
   47MOL   C42239154   6.051   6.833   1.147 -0.2830  0.4704  0.0191
   47MOL   C42339155   6.147   6.732   1.195 -0.0084  0.2747 -0.6160
   47MOL   C42439156   6.084   6.593   1.172  0.2172  0.5273  0.7575
   47MOL   C42539157   6.096   6.481   1.274 -0.0478  0.3748 -0.2737
   47MOL   C42639158   6.232   6.464   1.335 -0.2472 -0.0434  0.3816
   47MOL   C42739159   6.244   6.338   1.422  0.2689 -0.1053  0.8367
   47MOL   C42839160   6.391   6.307   1.478 -0.8424 -0.1411  1.2016
   47MOL   C42939161   6.381   6.210   1.595  0.1039 -0.2350  1.0891
   47MOL   C43039162   6.506   6.203   1.687  0.3093  0.4443  0.4313
   47MOL   C43139163   6.523   6.075   1.772  0.0503  0.0322  0.4858
   47MOL   C43239164   6.658   6.082   1.851 -0.1718  0.3240  0.2466
   47MOL   C43339165   6.658   6.181   1.971  0.1644  0.3565 -0.4503
   47MOL   C43439166   6.781   6.163   2.068 -0.4160  0.0616  0.3961
   47MOL   C43539167   6.793   6.288   2.153 -0.8913  0.8589 -0.1502
   47MOL   H43639168   6.095   6.931   1.126  0.9739 -0.1156 -0.1554
   47MOL   H43739169   6.023   6.814   1.044 -0.3436  2.6883 -0.3997
   47MOL   H43839170   6.164   6.745   1.302 -0.4921  1.8539 -0.7184
   47MOL   H43939171   6.112   6.571   1.069 -0.1345  1.9564  0.3469
   47MOL   H44039172   5.980   6.599   1.142  0.4277  1.9776  0.2970
   47MOL   H44139173   6.026   6.492   1.357 -1.7968  0.9300 -1.8175
   47MOL   H44239174   6.059   6.392   1.224 -0.8732  1.2294 -1.1920
   47MOL   H44339175   6.263   6.545   1.401  0.2491 -0.9826  1.3179
   47MOL   H44439176   6.305   6.461   1.254  0.7897 -1.0566  1.3556
   47MOL   H44539177   6.222   6.248   1.364  2.1717  0.6816 -1.1796
   47MOL   H44639178   6.176   6.347   1.507  0.6347 -0.7060  1.1940
   47MOL   H44739179   6.444   6.256   1.397  0.4574  1.3285  1.1047
   47MOL   H44839180   6.450   6.394   1.508  2.7508 -1.7237 -0.8916
   47MOL   H44939181   6.294   6.233   1.656  0.5756  1.6911  1.0788
   47MOL   H45039182   6.352   6.115   1.550  1.1376  0.5141 -1.2758
   47MOL   H45139183   6.599   6.207   1.629  1.0981  0.6221  1.7043
   47MOL   H45239184   6.506   6.286   1.757 -0.6851  1.1774 -0.4159
   47MOL   H45339185   6.436   6.066   1.837 -0.9136 -0.7999 -0.8849
   47MOL   H45439186   6.530   5.989   1.705  1.9082 -0.5218  1.3599
   47MOL   H45539187   6.687   5.980   1.876  0.4149  0.3519 -0.3002
   47MOL   H45639188   6.743   6.103   1.785  0.3568 -2.5525 -0.0683
   47MOL   H45739189   6.568   6.180   2.031  0.5742  1.7530  0.2152
   47MOL   H45839190   6.666   6.281   1.928  1.5058  0.8689  0.9336
   47MOL   H45939191   6.776   6.073   2.129  3.2156 -0.0856  0.5641
   47MOL   H46039192   6.872   6.150   2.010 -2.1073  0.3370 -2.3788
   47MOL   H46139193   6.704   6.305   2.213 -3.2280 -1.7754 -2.7164
   47MOL   H46239194   6.811   6.375   2.090 -0.3520  0.3430 -0.7177
   47MOL   H46339195   6.881   6.290   2.218 -1.3323  1.7018  0.4285
   47MOL   C46439196   6.278   6.741   1.115  0.2840 -0.8460  0.7040
   47MOL   C46539197   6.370   6.852   1.173 -0.3054  0.0535  0.1171
   47MOL   C46639198   6.448   6.795   1.295  0.1167 -0.3436  0.5623
   47MOL   C46739199   6.530   6.883   1.379 -0.4304  0.5047 -0.3310
   47MOL   C46839200   6.440   6.989   1.458 -0.1541 -0.3145 -0.2539
   47MOL   C46939201   6.533   7.098   1.526  0.2377 -0.5722 -0.1376
   47MOL   C47039202   6.463   7.169   1.654 -0.2961  0.3475  0.1091
   47MOL   C47139203   6.539   7.296   1.705 -0.1396  0.3736  0.4831
   47MOL   C47239204   6.520   7.330   1.850 -0.2190  0.2116 -0.1950
   47MOL   C47339205   6.374   7.381   1.878  0.6115  0.2874 -0.2775
   47MOL   C47439206   6.340   7.525   1.833 -0.1963  0.0238 -0.6272
   47MOL   C47539207   6.185   7.554   1.815  0.5345  0.3356  0.3041
   47MOL   C47639208   6.159   7.689   1.753 -0.3179  0.0059  0.3085
   47MOL   C47739209   6.006   0.031   1.738 -0.4014  0.1544  0.6125
   47MOL   H47839210   6.242   6.759   1.013  1.7211 -1.9247 -0.0098
   47MOL   H47939211   6.333   6.648   1.100 -0.2475 -1.0058 -0.2969
   47MOL   H48039212   6.307   6.932   1.213 -1.6660 -0.7044 -0.4737
   47MOL   H48139213   6.372   6.749   1.358 -1.4307  1.1486 -0.1865
   47MOL   H48239214   6.520   6.718   1.268  0.4615 -0.0140  0.5392
   47MOL   H48339215   6.601   6.938   1.318 -0.2883  0.2061 -0.4373
   47MOL   H48439216   6.578   6.823   1.457 -1.5109  1.2789  0.9486
   47MOL   H48539217   6.369   6.940   1.525  2.0748 -0.7111  1.8918
   47MOL   H48639218   6.373   7.035   1.384  0.1516 -2.8325 -2.1746
   47MOL   H48739219   6.625   7.055   1.567  0.8814 -0.1878 -1.1558
   47MOL   H48839220   6.550   7.181   1.458 -2.4148  0.5616  0.5292
   47MOL   H48939221   6.360   7.191   1.625 -1.1685 -2.9556  0.3882
   47MOL   H49039222   6.444   7.101   1.737 -0.0342  2.0074  1.5400
   47MOL   H49139223   6.642   7.271   1.680 -0.4671 -0.0128 -0.5245
   47MOL   H49239224   6.510   7.386   1.649 -0.8922  0.6344  1.2888
   47MOL   H49339225   6.539   7.236   1.900  1.0760  0.1317 -0.8188
   47MOL   H49439226   6.598   7.401   1.877 -1.2907  2.5070 -2.8255
   47MOL   H49539227   6.300   7.305   1.854  0.5319 -0.3476  1.8679
   47MOL   H49639228   6.369   7.378   1.987  3.6005 -0.3519 -0.1226
   47MOL   H49739229   6.389   7.597   1.899  0.6758 -1.4454  0.3644
   47MOL   H49839230   6.394   7.549   1.741  0.5584 -1.1749 -0.5100
   47MOL   H49939231   6.130   7.563   1.909  1.2774  0.3648  0.7402
   47MOL   H50039232   6.141   7.479   1.749 -1.6398  0.9564  1.0308
   47MOL   H50139233   6.190   0.070   1.824 -1.1415  0.1008  0.5684
   47MOL   H50239234   6.219   0.029   1.669  0.2764 -0.8203  0.3692
   47MOL   H50339235   5.949   7.657   1.676  1.6089 -0.1175 -0.9713
   47MOL   H50439236   5.946   0.031   1.829 -1.4942 -0.9679 -0.0840
   47MOL   H50539237   5.996   0.126   1.687 -1.9118  0.2668  1.0821
   47MOL   C50639238   6.460   6.897   1.059 -1.1406  0.3808 -0.3949
   47MOL   C50739239   6.410   6.978   0.938 -0.2276 -0.3531  0.3693
   47MOL   C50839240   6.415   7.129   0.965 -0.1445  0.2686  1.0528
   47MOL   C50939241   6.350   7.173   1.092  0.4262 -0.1822 -0.6402
   47MOL   C51039242   6.322   7.325   1.109 -0.3006  0.4400  0.5463
   47MOL   C51139243   6.248   7.364   1.235  0.1167  0.0738 -0.2992
   47MOL   C51239244   6.090   7.365   1.241 -0.2503  0.1883  0.3266
   47MOL   C51339245   6.040   7.370   1.381 -0.6696 -0.0315 -0.0390
   47MOL   C51439246   5.892   7.403   1.385  0.3890  0.3455  0.0931
   47MOL   C51539247   5.831   7.402   1.526  0.5866 -0.0937 -0.4912
   47MOL   C51639248   5.707   7.481   1.540  0.3579  0.1591 -0.4293
   47MOL   C51739249   5.653   7.480   1.680 -0.5001  0.3451 -0.2559
   47MOL   C51839250   5.553   7.600   1.710  0.9568 -0.5569 -0.1920
   47MOL   C51939251   5.465   7.594   1.839 -0.1318  0.0471  0.3002
   47MOL   H52039252   6.499   6.801   1.024 -2.2791 -0.6014  0.9476
   47MOL   H52139253   6.545   6.952   1.097 -0.4942 -1.2325  0.5447
   47MOL   H52239254   6.310   6.939   0.918  1.2572 -3.4856 -1.3151
   47MOL   H52339255   6.518   7.166   0.974  0.8595 -2.0187 -0.6798
   47MOL   H52439256   6.383   7.179   0.873  0.8089 -0.0523  0.5398
   47MOL   H52539257   6.254   7.121   1.102  0.2270  0.7102  2.8478
   47MOL   H52639258   6.406   7.141   1.180  0.8072  0.1828 -0.7526
   47MOL   H52739259   6.264   7.359   1.023  2.4695  0.5233 -1.3533
   47MOL   H52839260   6.418   7.377   1.117 -0.7290  1.2632  0.4342
   47MOL   H52939261   6.289   7.457   1.274 -2.1206  1.4087 -1.0317
   47MOL   H53039262   6.287   7.292   1.307 -0.8716 -1.8600 -1.6557
   47MOL   H53139263   6.063   7.457   1.190 -0.7050  0.2980  0.7615
   47MOL   H53239264   6.045   7.277   1.195  1.4763 -0.6628  0.2463
   47MOL   H53339265   6.103   7.441   1.433 -1.0771  1.3664 -1.4249
   47MOL   H53439266   6.051   7.273   1.431 -1.1479 -0.6416 -1.0926
   47MOL   H53539267   5.847   7.332   1.315  2.5557 -0.4679 -0.5209
   47MOL   H53639268   5.885   7.509   1.361 -3.8544  0.5769  2.0717
   47MOL   H53739269   5.818   7.306   1.575  2.6123  0.0330  0.3506
   47MOL   H53839270   5.904   7.455   1.587  0.8703 -0.3642 -0.5949
   47MOL   H53939271   5.729   7.583   1.510 -2.4151  0.8916 -0.1036
   47MOL   H54039272   5.633   7.446   1.468  0.4692  1.0772 -0.9913
   47MOL   H54139273   5.736   7.482   1.750  0.1609  1.4042 -1.0524
   47MOL   H54239274   5.604   7.384   1.695 -0.5865  0.1844 -1.4568
   47MOL   H54339275   5.491   7.605   1.620  0.8232 -1.3850 -0.1473
   47MOL   H54439276   5.612   7.692   1.706  0.9082 -0.5644 -1.6935
   47MOL   H54539277   5.388   7.518   1.825 -0.1362  0.3760 -1.6492
   47MOL   H54639278   5.526   7.569   1.926  1.0361 -0.0942 -0.5338
   47MOL   H54739279   5.410   7.685   1.861  0.3410  0.9634 -2.1475
   47MOL   C54839280   6.488   6.957   0.812 -0.6127  0.3657 -0.5951
   47MOL   C54939281   6.474   6.818   0.748 -0.5512 -0.1380 -0.7071
   47MOL   C55039282   6.332   6.798   0.691  0.6600 -0.0396 -0.6403
   47MOL   C55139283   6.311   6.652   0.639  0.2988 -0.3545  0.6564
   47MOL   C55239284   6.170   6.642   0.568 -0.4498 -0.2050 -1.0292
   47MOL   C55339285   6.157   6.518   0.475 -0.2849 -0.2521  0.1682
   47MOL   C55439286   6.047   6.508   0.374  0.5208  0.4306  0.6613
   47MOL   C55539287   5.910   6.536   0.444  0.6710 -0.6302  0.8266
   47MOL   C55639288   5.789   6.515   0.361 -0.0589 -0.5226  0.1026
   47MOL   C55739289   5.658   6.553   0.437 -0.0934  0.2286  0.2059
   47MOL   C55839290   5.531   6.569   0.345  0.1926 -0.0606 -0.0434
   47MOL   C55939291   5.408   6.607   0.428  0.3360 -0.8678 -0.3897
   47MOL   C56039292   5.277   6.617   0.341  0.3591 -1.2786 -0.8923
   47MOL   C56139293   5.162   6.653   0.426 -0.4650  0.4774 -0.7401
   47MOL   H56239294   6.464   7.019   0.726  2.8725 -0.2844 -2.1348
   47MOL   H56339295   6.589   6.987   0.839 -0.9455  1.3255 -0.3979
   47MOL   H56439296   6.487   6.742   0.825  0.2418  0.0236 -0.6804
   47MOL   H56539297   6.253   6.814   0.764 -0.2055  0.8782 -1.7729
   47MOL   H56639298   6.308   6.862   0.607 -1.3879 -0.0110 -0.0473
   47MOL   H56739299   6.327   6.579   0.719  1.4931 -0.3692  0.4191
   47MOL   H56839300   6.382   6.631   0.559  1.3053  1.0262  1.1574
   47MOL   H56939301   6.095   6.638   0.647 -0.2333 -0.3709 -0.8322
   47MOL   H57039302   6.147   6.735   0.516 -1.3413  0.9740  1.3881
   47MOL   H57139303   6.153   6.435   0.546 -0.7667  2.1855  3.0818
   47MOL   H57239304   6.251   6.499   0.422 -0.2938  0.5713 -0.1379
   47MOL   H57339305   6.072   6.581   0.298 -0.0438 -0.3974 -0.3299
   47MOL   H57439306   6.043   6.404   0.340 -2.8499  0.6015  0.3791
   47MOL   H57539307   5.915   6.641   0.475 -2.4580 -0.2865  0.3066
   47MOL   H57639308   5.900   6.474   0.532 -2.4949 -1.3777 -0.0268
   47MOL   H57739309   5.778   6.408   0.342 -0.6765 -0.4257 -0.0877
   47MOL   H57839310   5.802   6.575   0.270  3.5218  1.3834  1.7692
   47MOL   H57939311   5.626   6.480   0.511  1.7204 -0.5275  0.2794
   47MOL   H58039312   5.672   6.652   0.480  1.3283 -0.0347  0.3881
   47MOL   H58139313   5.518   6.479   0.286 -1.9386  0.1931 -0.0147
   47MOL   H58239314   5.550   6.648   0.272 -2.0769  1.2070  0.6725
   47MOL   H58339315   5.400   6.544   0.517 -2.9040 -1.2953 -0.9151
   47MOL   H58439316   5.422   6.702   0.478 -0.9686  1.1656 -3.7216
   47MOL   H58539317   5.297   6.684   0.257  1.0771 -1.1818 -0.6506
   47MOL   H58639318   5.257   6.518   0.302 -0.0919 -1.1365 -1.0202
   47MOL   H58739319   5.080   6.698   0.372 -3.1048 -2.3327  0.7599
   47MOL   H58839320   5.114   6.564   0.468  2.7706 -0.9251  0.2176
   47MOL   H58939321   5.172   6.732   0.500  0.0685 -0.0933 -0.1864
   47MOL   C59039322   6.580   6.806   0.634  0.6339  0.2085  1.0487
   47MOL   C59139323   6.732   6.786   0.665 -0.5748 -0.4788 -0.1371
   47MOL   C59239324   6.758   6.657   0.749 -0.7940  1.0402 -1.0072
   47MOL   C59339325   6.731   6.524   0.675  0.7867 -0.0069 -0.2558
   47MOL   C59439326   6.745   6.409   0.779  0.1604  0.1140 -0.1318
   47MOL   C59539327   6.744   6.268   0.711  0.1071 -0.2438  0.4742
   47MOL   C59639328   6.879   6.223   0.656 -0.9332 -0.9151  0.4532
   47MOL   C59739329   6.968   6.136   0.743  0.1798  0.2237 -0.0143
   47MOL   C59839330   7.039   6.215   0.854  0.2049 -0.1478  0.7859
   47MOL   C59939331   7.137   6.131   0.936  0.0077 -0.4081 -0.4913
   47MOL   C60039332   7.087   5.994   0.982  0.0673 -0.6050  0.1134
   47MOL   C60139333   7.162   5.914   1.089  0.3323  0.8531 -0.7981
   47MOL   C60239334   7.075   5.806   1.156  0.1553 -0.5573 -0.2307
   47MOL   C60339335   7.156   5.706   1.231 -0.3766  0.2413 -0.6241
   47MOL   H60439336   6.568   6.905   0.592  1.6806  0.3346  1.0490
   47MOL   H60539337   6.551   6.739   0.553 -0.6372  1.2220  0.6477
   47MOL   H60639338   6.757   6.864   0.737 -0.7518 -1.0571  0.5582
   47MOL   H60739339   6.716   6.664   0.849 -1.3855 -1.3518 -1.0787
   47MOL   H60839340   6.861   6.660   0.783 -1.0494  1.8055 -0.2539
   47MOL   H60939341   6.788   6.523   0.582  1.2210 -0.3147  0.0146
   47MOL   H61039342   6.633   6.518   0.627 -0.0007 -0.7875  1.4226
   47MOL   H61139343   6.665   6.418   0.851 -0.6916  1.5377 -1.2416
   47MOL   H61239344   6.841   6.428   0.827  2.3610 -1.9451 -3.3863
   47MOL   H61339345   6.674   6.268   0.628  1.8112 -0.6375 -1.0086
   47MOL   H61439346   6.705   6.199   0.786  2.0055 -0.6844  1.0797
   47MOL   H61539347   6.871   6.173   0.560  3.3656 -2.2342  0.7028
   47MOL   H61639348   6.924   6.317   0.624 -1.1718 -0.8408  0.3286
   47MOL   H61739349   6.905   6.062   0.792  0.2912 -1.8781 -2.9594
   47MOL   H61839350   7.034   6.074   0.683 -1.8649 -1.8164 -0.2463
   47MOL   H61939351   7.090   6.306   0.821 -1.2797  0.8464  1.1507
   47MOL   H62039352   6.962   6.259   0.918 -1.3323  2.4847 -2.6805
   47MOL   H62139353   7.231   6.126   0.881 -0.6533 -0.2201 -1.6424
   47MOL   H62239354   7.175   6.178   1.027 -2.0243  0.7079 -0.1956
   47MOL   H62339355   7.057   5.923   0.904  2.9272 -1.0844 -0.6023
   47MOL   H62439356   6.993   6.034   1.020  1.8186  1.0703  2.8009
   47MOL   H62539357   7.201   5.986   1.161 -1.8688  0.5917  0.7219
   47MOL   H62639358   7.241   5.858   1.040 -1.2513 -1.1932 -1.0854
   47MOL   H62739359   7.006   5.859   1.222  0.1631 -1.5043  0.5535
   47MOL   H62839360   7.015   5.763   1.077 -0.3824 -0.1248 -0.0622
   47MOL   H62939361   7.106   5.619   1.272  2.1973 -0.4351  1.2225
   47MOL   H63039362   7.223   5.753   1.303  0.8222 -1.0890 -0.8619
   47MOL   H63139363   7.232   5.664   1.165  0.9516  0.0737  0.9677
   47MOL   C63239364   6.825   6.791   0.540 -0.1924  0.0158 -0.4129
   47MOL   C63339365   6.873   6.928   0.481  0.5101 -0.5003  0.0410
   47MOL   C63439366   6.970   6.915   0.361 -0.0416  0.5302 -0.5008
   47MOL   C63539367   6.922   6.837   0.239  0.2430 -0.7979 -0.4595
   47MOL   C63639368   7.005   6.862   0.107 -1.0002 -0.5234 -0.2011
   47MOL   C63739369   6.977   6.751   0.007  0.1261  0.0787  0.1000
   47MOL   C63839370   7.057   6.778   7.576 -0.0590 -0.8427 -0.1037
   47MOL   C63939371   6.999   6.885   7.474  0.2977  0.0745 -0.2388
   47MOL   C64039372   7.104   6.923   7.364  0.6013  0.4089  0.3057
   47MOL   C64139373   7.099   6.825   7.244  0.3579  0.3119 -0.6317
   47MOL   C64239374   7.196   6.862   7.134 -0.5730  0.3354  0.1944
   47MOL   C64339375   7.190   6.776   7.008  0.6357 -0.5982  0.1847
   47MOL   C64439376   7.292   6.815   6.904 -0.4616  0.3134  0.5225
   47MOL   C64539377   7.320   6.713   6.792  0.6974  0.0721  0.3953
   47MOL   H64639378   6.768   6.733   0.468 -3.7159  2.4685  0.2562
   47MOL   H64739379   6.919   6.737   0.553 -1.3142 -1.7503  0.5557
   47MOL   H64839380   6.931   6.973   0.562  2.3562 -3.5421  0.5022
   47MOL   H64939381   7.020   7.010   0.340  2.0919 -0.5653 -0.4853
   47MOL   H65039382   7.060   6.869   0.400  0.8542  2.8921  0.3225
   47MOL   H65139383   6.821   6.875   0.222  1.1435  2.1141  0.4508
   47MOL   H65239384   6.909   6.730   0.258 -0.7165 -0.2275  2.3819
   47MOL   H65339385   7.109   6.854   0.139 -1.3527 -0.3487  1.0039
   47MOL   H65439386   6.978   6.962   0.075 -1.0477 -0.0925  1.1542
   47MOL   H65539387   7.023   6.660   0.044  1.3284  0.5189 -0.2964
   47MOL   H65639388   6.869   6.745   7.685 -0.0616  1.6850  0.5843
   47MOL   H65739389   7.155   6.800   7.618 -2.3053  1.2054  4.3543
   47MOL   H65839390   7.080   6.686   7.521 -0.4085 -0.8422 -0.2573
   47MOL   H65939391   6.979   6.975   7.531 -2.4588 -0.8273  0.2561
   47MOL   H66039392   6.901   6.853   7.439 -0.2410  0.1265  1.2232
   47MOL   H66139393   7.205   6.927   7.404  0.8417 -1.9824 -0.0420
   47MOL   H66239394   7.095   7.026   7.329 -0.3599  1.5375  3.6350
   47MOL   H66339395   7.130   6.728   7.282 -0.4134  0.1237 -0.4765
   47MOL   H66439396   6.997   6.811   7.209  0.4004  1.7930 -1.4003
   47MOL   H66539397   7.180   6.965   7.103  0.6549  0.0818 -1.3797
   47MOL   H66639398   7.298   6.850   7.169 -1.3114  2.1571  3.0779
   47MOL   H66739399   7.091   6.785   6.964  0.7618 -0.9792 -0.1768
   47MOL   H66839400   7.205   6.675   7.046 -0.6365 -0.4386  1.1364
   47MOL   H66939401   7.384   6.851   6.951 -0.0011 -0.2936  0.1009
   47MOL   H67039402   7.236   6.900   6.866 -1.3815 -0.3181  0.4603
   47MOL   H67139403   7.380   6.750   6.709  1.3374 -0.0325  0.8076
   47MOL   H67239404   7.360   6.618   6.827  1.4978 -0.1073 -0.9758
   47MOL   H67339405   7.232   6.692   6.731  1.0707  2.0246 -0.8739
   47MOL   C67439406   6.752   7.026   0.444  0.0197  0.3796  0.0834
   47MOL   C67539407   6.787   7.165   0.379 -0.6754  0.6072  0.9314
   47MOL   C67639408   6.662   7.241   0.341  0.3756 -0.5261 -0.1171
   47MOL   C67739409   6.551   7.264   0.457  0.2238 -0.2468  1.0544
   47MOL   C67839410   6.438   7.361   0.415 -0.1119 -0.0658  0.7175
   47MOL   C67939411   6.338   7.384   0.529  0.0589 -0.2440  0.4054
   47MOL   C68039412   6.269   7.264   0.591 -0.1349  0.0554  0.1783
   47MOL   C68139413   6.181   7.298   0.711  0.7198  0.1142 -0.1586
   47MOL   C68239414   6.105   7.185   0.775  0.6669 -0.4229 -0.2157
   47MOL   C68339415   6.023   7.104   0.678  0.2688  0.6261 -0.5062
   47MOL   C68439416   5.923   7.023   0.762 -0.0517 -0.4872 -0.1931
   47MOL   C68539417   5.832   6.941   0.678 -0.4001 -0.4815  1.1934
   47MOL   C68639418   5.761   6.827   0.744 -0.8857 -0.1046  0.4463
   47MOL   C68739419   5.860   6.717   0.798  0.6341  0.0365 -0.1324
   47MOL   H68839420   6.692   7.041   0.534  1.9206  0.8813  1.2863
   47MOL   H68939421   6.687   6.970   0.377  0.4938 -1.1445  0.8757
   47MOL   H69039422   6.832   7.139   0.284 -2.2998  1.2232 -0.0213
   47MOL   H69139423   6.685   7.343   0.312  1.1317 -0.6029  0.2126
   47MOL   H69239424   6.598   7.199   0.263 -0.1384 -1.7751  0.9564
   47MOL   H69339425   6.509   7.166   0.479 -1.1041 -0.2514 -1.2608
   47MOL   H69439426   6.587   7.303   0.552 -0.9244 -0.9933  1.7996
   47MOL   H69539427   6.489   7.455   0.391  0.4032 -0.2627  1.0236
   47MOL   H69639428   6.395   7.310   0.329  0.2123 -0.7543  0.9600
   47MOL   H69739429   6.395   7.432   0.608  0.9855 -0.8684  0.1310
   47MOL   H69839430   6.267   7.456   0.490  0.4583  0.0024  0.1367
   47MOL   H69939431   6.217   7.217   0.508  2.6732 -2.1161 -0.4420
   47MOL   H70039432   6.352   7.197   0.614 -1.5581 -2.0279 -0.7019
   47MOL   H70139433   6.231   7.360   0.785  0.6222  1.5258 -1.2432
   47MOL   H70239434   6.112   7.374   0.673  1.6367 -0.6908 -3.6286
   47MOL   H70339435   6.179   7.127   0.830  2.0947  1.2859 -0.2773
   47MOL   H70439436   6.037   7.229   0.847  1.1708  1.5480 -0.8964
   47MOL   H70539437   6.089   7.036   0.623  0.6236 -0.1432  0.8541
   47MOL   H70639438   5.958   7.164   0.615  0.5657  0.4955 -0.9440
   47MOL   H70739439   5.865   7.099   0.815  1.7355 -0.0839  1.2484
   47MOL   H70839440   5.980   6.966   0.836  1.9384  0.8343 -0.6732
   47MOL   H70939441   5.890   6.894   0.599 -2.2197  0.6193 -0.8434
   47MOL   H71039442   5.764   7.013   0.632  0.7256  0.0540  0.3293
   47MOL   H71139443   5.713   6.871   0.831  1.8756  1.9946  1.0062
   47MOL   H71239444   5.681   6.784   0.684 -0.9547 -0.2871  0.6671
   47MOL   H71339445   5.881   6.646   0.718  1.5689  2.4399 -2.1155
   47MOL   H71439446   5.947   6.767   0.840  1.9675 -1.9065 -0.5178
   47MOL   H71539447   5.809   6.662   0.877  2.8596 -0.6152  0.8801
   47MOL   C71639448   6.892   7.254   0.469 -0.0947 -0.2642 -0.8636
   47MOL   C71739449   6.960   7.389   0.417  0.1661  0.5459 -0.4494
   47MOL   C71839450   7.006   7.481   0.533  0.3494  0.2819  0.3179
   47MOL   C71939451   7.115   7.421   0.628  0.5537  0.1704  0.4509
   47MOL   C72039452   7.146   7.505   0.743  0.4638 -0.2279 -0.1759
   47MOL   C72139453   7.029   7.518   0.846 -0.1338  0.2183  0.1401
   47MOL   C72239454   7.080   7.571   0.983 -0.3682 -0.4544 -0.1818
   47MOL   C72339455   6.970   7.627   1.076  0.2204  0.5892  0.1097
   47MOL   C72439456   7.021   7.660   1.218  0.8056  0.1602  0.7408
   47MOL   C72539457   7.128   0.081   1.217 -0.1759  0.2302  0.4075
   47MOL   C72639458   7.194   0.109   1.350 -0.4192  0.6453  0.0485
   47MOL   C72739459   7.311   0.208   1.352  0.2922  0.5468 -0.2511
   47MOL   C72839460   7.376   0.239   1.493 -0.3030 -1.1446 -0.3980
   47MOL   C72939461   7.284   0.309   1.595 -0.7553  0.4162  0.4335
   47MOL   H73039462   6.828   7.286   0.551  0.6572  0.9268 -0.7312
   47MOL   H73139463   6.975   7.192   0.502 -0.5981  0.1177  1.1972
   47MOL   H73239464   6.887   7.455   0.369  1.0726  1.5578 -0.4565
   47MOL   H73339465   6.927   7.510   0.603 -0.9730  3.6029 -2.4487
   47MOL   H73439466   7.042   7.578   0.500  0.0951  0.2164 -0.1508
   47MOL   H73539467   7.082   7.321   0.658 -2.3081  0.5974 -1.0868
   47MOL   H73639468   7.210   7.406   0.575  0.0998  1.3984 -0.7221
   47MOL   H73739469   7.223   7.452   0.798 -0.1654  0.6942  1.6227
   47MOL   H73839470   7.177   7.603   0.707 -2.0107  0.5600 -0.3057
   47MOL   H73939471   6.958   7.598   0.822  0.6697  0.6601 -0.8235
   47MOL   H74039472   6.981   7.425   0.874 -0.5193  0.1222 -0.8072
   47MOL   H74139473   7.150   7.502   1.030 -1.2077 -0.9071  0.4231
   47MOL   H74239474   7.148   7.651   0.954 -2.1775  1.1023 -0.2056
   47MOL   H74339475   6.895   7.548   1.078  0.5570  0.2309 -0.9094
   47MOL   H74439476   6.914   0.011   1.026 -2.3341 -2.2512 -1.7302
   47MOL   H74539477   6.949   7.678   1.297  0.6974 -1.8044  1.1207
   47MOL   H74639478   7.059   7.565   1.254 -1.0424 -1.2023 -0.7889
   47MOL   H74739479   7.198   0.059   1.136 -2.3674 -1.6731 -1.0300
   47MOL   H74839480   7.095   0.176   1.176  1.2656 -0.0988 -1.5828
   47MOL   H74939481   7.124   0.150   1.423  0.6674  2.4633  0.0979
   47MOL   H75039482   7.214   0.005   1.374  1.5042  0.8816 -0.3983
   47MOL   H75139483   7.391   0.158   1.298 -0.8444  0.6485 -2.0357
   47MOL   H75239484   7.273   0.293   1.297 -0.5287  0.8946  0.8306
   47MOL   H75339485   7.464   0.301   1.472 -0.2410 -0.1705  2.4911
   47MOL   H75439486   7.414   0.146   1.535  0.8617 -0.9702 -1.0325
   47MOL   H75539487   7.200   0.244   1.621 -0.6356 -0.2467 -0.7977
   47MOL   H75639488   7.240   0.390   1.538 -1.3699 -1.0534 -1.2280
   47MOL   H75739489   7.341   0.358   1.674  0.8198  0.4390 -0.6994
   47MOL   C75839490   7.077   7.371   0.314 -0.4964 -0.1256  0.8435
   47MOL   C75939491   7.042   7.317   0.167 -0.6758  0.5600 -0.4148
   47MOL   C76039492   6.951   7.404   0.087  0.0977  0.3261 -0.0175
   47MOL   C76139493   6.916   7.378   7.635 -0.3487  0.5139  0.3507
   47MOL   C76239494   6.809   7.472   7.576 -0.5525  0.2278  0.8994
   47MOL   C76339495   6.775   7.436   7.433  0.0430 -0.1462  0.6215
   47MOL   C76439496   6.647   7.502   7.380  0.0103  0.4273  0.6512
   47MOL   C76539497   6.604   7.467   7.242  0.1400  0.9035  0.1937
   47MOL   C76639498   6.472   7.535   7.194  0.0069 -0.0175 -0.5722
   47MOL   C76739499   6.353   7.500   7.291 -0.5221  0.4201 -0.4627
   47MOL   C76839500   6.228   7.567   7.245  0.1070 -0.3003  0.0166
   47MOL   C76939501   6.103   7.502   7.308  0.1244 -0.4563 -0.2834
   47MOL   C77039502   5.987   7.596   7.298 -0.3703 -0.3484 -0.8678
   47MOL   C77139503   5.864   7.553   7.377  0.4992 -0.5334  0.5363
   47MOL   H77239504   7.110   7.469   0.281  1.3253 -1.6549 -2.1356
   47MOL   H77339505   7.147   7.309   0.370 -3.1861 -2.2068  2.0119
   47MOL   H77439506   6.992   7.223   0.191 -0.5672  0.4251 -0.7185
   47MOL   H77539507   6.865   7.431   0.147 -0.5331 -1.0804 -0.2897
   47MOL   H77639508   7.000   7.502   0.091  1.9095 -0.6132  1.8531
   47MOL   H77739509   7.004   7.390   7.573  0.5036  0.6772  1.5599
   47MOL   H77839510   6.882   7.275   7.627  1.1910 -0.3081  3.4375
   47MOL   H77939511   6.845   7.574   7.584 -2.8380  1.2838 -1.4386
   47MOL   H78039512   6.726   7.461   7.646 -1.9361 -1.0879 -0.9046
   47MOL   H78139513   6.769   7.329   7.413 -0.5585  0.4197 -2.5170
   47MOL   H78239514   6.849   7.468   7.360 -1.5829  2.1094 -0.1036
   47MOL   H78339515   6.562   7.477   7.443 -1.2258  0.7223 -0.8590
   47MOL   H78439516   6.655   7.610   7.390 -0.8270  0.7007 -1.3677
   47MOL   H78539517   6.608   7.359   7.227 -3.5513  0.3375  2.6389
   47MOL   H78639518   6.675   7.499   7.165  0.1998 -2.7287 -1.3670
   47MOL   H78739519   6.467   7.498   7.092  0.5744 -1.2886 -0.1572
   47MOL   H78839520   6.508   7.638   7.193 -0.6221  0.1931 -1.9821
   47MOL   H78939521   6.369   7.546   7.388  1.2294 -2.7362  0.8310
   47MOL   H79039522   6.348   7.391   7.293 -0.0147  0.3516 -2.0304
   47MOL   H79139523   6.231   7.676   7.241 -2.4290 -0.2682 -3.3651
   47MOL   H79239524   6.231   7.548   7.138 -5.0758 -0.4370 -0.2291
   47MOL   H79339525   6.079   7.406   7.262  2.4588 -0.2418 -2.0493
   47MOL   H79439526   6.134   7.476   7.410  0.7363 -1.4372 -0.7096
   47MOL   H79539527   6.019   7.686   7.351  1.4879 -1.7508  0.4862
   47MOL   H79639528   5.967   7.628   7.196 -0.1113  0.0565 -0.7953
   47MOL   H79739529   5.839   7.458   7.329 -1.7532 -0.9005  2.3247
   47MOL   H79839530   5.876   7.523   7.481 -0.3256 -1.2003  0.4433
   47MOL   H79939531   5.783   7.626   7.373  0.4608 -0.4881  1.9327
   47MOL   C80039532   7.170   7.280   0.081 -0.2720 -0.3091  0.3236
   47MOL   C80139533   7.254   7.167   0.139  0.2455 -0.4726  0.1657
   47MOL   C80239534   7.376   7.134   0.044  0.4683 -0.0198 -1.0057
   47MOL   C80339535   7.333   7.061   7.609 -0.3687  0.0217 -0.1446
   47MOL   C80439536   7.457   6.992   7.538 -0.3522 -0.1640  0.1287
   47MOL   C80539537   7.477   6.851   7.591  0.5473  0.1897 -0.3128
   47MOL   C80639538   7.587   6.781   7.507  0.1689 -0.0328 -0.3870
   47MOL   C80739539   7.622   6.651   7.577  0.6933 -0.0197 -0.1464
   47MOL   C80839540   0.037   6.576   7.502 -0.0893 -0.2322  0.2859
   47MOL   C80939541   0.180   6.624   7.528  0.4926 -0.2696  0.0710
   47MOL   C81039542   0.292   6.529   7.485  0.5454  0.3857 -0.1872
   47MOL   C81139543   0.438   6.577   7.499 -0.3515 -0.2230  0.5873
   47MOL   C81239544   0.543   6.474   7.495  0.3137  0.1569  0.2887
   47MOL   C81339545   0.553   6.434   7.344 -0.4603  0.1943  0.6493
   47MOL   H81439546   7.224   7.373   0.063 -2.8555  0.7079 -2.4589
   47MOL   H81539547   7.144   7.245   7.677  0.2863  1.2386 -0.3744
   47MOL   H81639548   7.200   7.076   0.163 -1.8391  0.4197 -1.0485
   47MOL   H81739549   7.449   7.069   0.092 -0.0552 -0.3764 -0.6877
   47MOL   H81839550   7.425   7.230   0.030  1.9755 -0.2355  2.3028
   47MOL   H81939551   7.282   7.126   7.537 -1.1302 -0.2936  0.1050
   47MOL   H82039552   7.255   6.987   7.627  0.7690 -1.9183 -2.7989
   47MOL   H82139553   7.428   6.988   7.432 -1.3236  1.8234  0.2994
   47MOL   H82239554   7.550   7.048   7.529  0.2202 -1.2857 -1.1224
   47MOL   H82339555   7.393   6.782   7.580  0.1529  0.3874  1.3477
   47MOL   H82439556   7.508   6.851   0.000  5.2304 -1.1410 -1.5735
   47MOL   H82539557   7.554   6.758   7.405  1.1479 -0.9361 -0.5044
   47MOL   H82639558   7.670   6.845   7.478  1.3050 -1.6771 -0.8380
   47MOL   H82739559   7.647   6.661   7.683 -1.9414  2.4489  0.2824
   47MOL   H82839560   7.532   6.590   7.579  1.7181 -1.5670 -0.4490
   47MOL   H82939561   0.034   6.470   7.528 -0.8547 -0.1131  0.7009
   47MOL   H83039562   0.013   6.567   7.396 -1.7038  0.4526  0.5689
   47MOL   H83139563   0.181   6.633   7.637  0.8836  0.8029 -0.0176
   47MOL   H83239564   0.205   6.714   7.473  1.0604 -0.5289 -0.0947
   47MOL   H83339565   0.269   6.434   7.533 -0.7401 -0.6227 -2.7157
   47MOL   H83439566   0.274   6.522   7.378 -0.4905 -1.4130  0.0919
   47MOL   H83539567   0.443   6.615   7.601 -0.7107 -0.5507  0.7255
   47MOL   H83639568   0.462   6.658   7.431  1.6757  0.2014  1.7418
   47MOL   H83739569   0.638   6.518   7.528  0.9355  0.1313 -1.3862
   47MOL   H83839570   0.512   6.384   7.548  1.1982 -0.6831 -0.5756
   47MOL   H83939571   0.573   6.521   7.282  2.3016  0.4242  1.8253
   47MOL   H84039572   0.634   6.366   7.315 -1.0849  0.2506 -1.3573
   47MOL   H84139573   0.464   6.384   7.305 -0.1420  1.1421 -1.4048
   47MOL   H84239574   7.295   7.201   0.234  1.6553  0.3715 -0.7218
   48MOL     C139575   4.722   1.657   5.278  0.0812  0.1528  0.1364
   48MOL     C239576   4.767   1.765   5.375 -0.0038  0.4515 -0.3959
   48MOL     C339577   4.871   1.856   5.306  0.5714 -0.1060 -0.7737
   48MOL     C439578   4.967   1.917   5.406  0.2006  0.8494  0.1838
   48MOL     C539579   5.090   1.828   5.456 -0.0079  0.1540  0.4005
   48MOL     C639580   5.155   1.896   5.579  0.1453 -0.1607  0.0286
   48MOL     C739581   5.089   1.855   5.708  0.4013 -0.0412 -0.7083
   48MOL     C839582   5.164   1.904   5.835 -0.1849 -0.4062 -0.0713
   48MOL     C939583   5.185   2.057   5.846  0.0116  0.1897  0.9213
   48MOL    C1039584   5.225   2.115   5.984  0.8295  0.1066 -0.2742
   48MOL    C1139585   5.125   2.126   6.097  0.5252 -0.0980 -0.0838
   48MOL    C1239586   5.186   2.172   6.234  0.8784  0.3150 -0.1909
   48MOL    C1339587   5.080   2.218   6.334  0.1088 -0.0439  0.3466
   48MOL    C1439588   4.962   2.123   6.358  0.0189  0.0273  0.3012
   48MOL    H1539589   4.805   1.592   5.249  0.1073  0.4818 -0.5621
   48MOL    H1639590   4.681   1.712   5.193  2.1611  0.6232 -0.5952
   48MOL    H1739591   4.809   1.703   5.455  2.3870  0.9318 -1.2377
   48MOL    H1839592   4.927   1.805   5.227 -1.2836 -3.2852 -0.1169
   48MOL    H1939593   4.834   1.946   5.257  2.8864  0.9686 -0.6659
   48MOL    H2039594   4.897   1.940   5.486 -1.3478 -0.6565 -0.7053
   48MOL    H2139595   5.004   2.006   5.356  1.2161 -0.9263 -2.3331
   48MOL    H2239596   5.169   1.824   5.381  1.6195  2.9362  1.8764
   48MOL    H2339597   5.053   1.730   5.482 -1.9664  0.5767 -0.7151
   48MOL    H2439598   5.144   2.004   5.565 -0.5347 -0.1793  0.4314
   48MOL    H2539599   5.262   1.874   5.571 -0.0203 -1.0065  0.0728
   48MOL    H2639600   4.990   1.899   5.715  0.0613 -1.0458  1.2044
   48MOL    H2739601   5.078   1.747   5.716  0.6716  0.1421  3.5501
   48MOL    H2839602   5.265   1.863   5.834 -0.3323 -0.7779  0.2159
   48MOL    H2939603   5.113   1.871   5.926  0.6184 -0.5186  0.3415
   48MOL    H3039604   5.254   2.094   5.771 -0.9248  0.1317  0.0203
   48MOL    H3139605   5.093   2.108   5.818 -0.1181 -0.8870 -0.7074
   48MOL    H3239606   5.299   2.044   6.020 -0.0883  0.3454  2.1858
   48MOL    H3339607   5.266   2.213   5.960  1.3808 -0.6821 -2.6338
   48MOL    H3439608   5.045   2.196   6.071 -1.4079 -2.0735  0.3572
   48MOL    H3539609   5.066   2.034   6.098 -1.0601  0.8349 -2.6772
   48MOL    H3639610   5.257   2.249   6.203 -0.0715  0.7319 -1.3552
   48MOL    H3739611   5.250   2.091   6.269  2.9366  2.2267  0.6304
   48MOL    H3839612   5.127   2.237   6.431  0.8923  1.3639 -0.2823
   48MOL    H3939613   5.043   2.315   6.299  1.1508 -0.1827 -1.1771
   48MOL    H4039614   4.908   2.149   6.449 -1.8814 -1.5603 -0.3465
   48MOL    H4139615   4.894   2.125   6.272  0.5736  1.0033 -0.1242
   48MOL    H4239616   4.996   2.020   6.366 -0.3735 -0.2565 -1.4915
   48MOL    H4339617   4.638   1.606   5.325  0.1522 -0.2579 -0.1763
   48MOL    C4439618   4.641   1.851   5.422 -0.1668 -0.1106  0.8742
   48MOL    C4539619   4.550   1.777   5.534  0.3260  0.3287  0.1009
   48MOL    C4639620   4.441   1.873   5.575  0.0629  0.8793  0.7165
   48MOL    C4739621   4.342   1.922   5.465  1.1345  0.1204 -0.7097
   48MOL    C4839622   4.217   1.978   5.536  0.0446 -0.0840  0.7049
   48MOL    C4939623   4.131   2.047   5.429  0.0556 -0.1503 -0.7539
   48MOL    C5039624   3.984   2.079   5.466 -0.0840 -0.3256 -0.2859
   48MOL    C5139625   3.916   2.157   5.360 -0.5885  0.1578 -0.3958
   48MOL    C5239626   3.787   2.221   5.406 -0.5955  0.5671  0.5292
   48MOL    C5339627   3.702   2.273   5.287 -0.3088  0.7704  0.0641
   48MOL    C5439628   3.568   2.333   5.322  0.2468 -0.4340 -0.3077
   48MOL    C5539629   3.457   2.340   5.217  0.2282 -0.0208  0.1859
   48MOL    C5639630   3.506   2.400   5.081 -0.3436  0.6086 -0.0340
   48MOL    C5739631   3.395   2.409   4.983  0.3119  0.2990  1.1795
   48MOL    H5839632   4.670   1.948   5.461 -0.2926 -0.2390  1.2866
   48MOL    H5939633   4.579   1.872   5.335 -1.9928  1.8617  2.6029
   48MOL    H6039634   4.499   1.685   5.504 -0.8677  1.2241 -0.6835
   48MOL    H6139635   4.381   1.821   5.649 -1.4522 -2.0323 -2.4302
   48MOL    H6239636   4.489   1.955   5.628 -1.1747  1.4228  1.0352
   48MOL    H6339637   4.299   1.837   5.412 -0.6301 -0.6519  1.8668
   48MOL    H6439638   4.386   1.999   5.401  0.1823  2.0522  0.9193
   48MOL    H6539639   4.259   2.046   5.610 -0.1765  0.1825  0.5853
   48MOL    H6639640   4.166   1.900   5.593 -1.2013  0.5379  0.4468
   48MOL    H6739641   4.188   2.134   5.397  1.1382 -0.6202 -0.1141
   48MOL    H6839642   4.134   1.983   5.341  0.4524 -0.7065 -0.3392
   48MOL    H6939643   3.931   1.986   5.487 -1.1845 -0.3399 -2.9536
   48MOL    H7039644   3.992   2.122   5.566 -0.7143  1.4011 -0.9689
   48MOL    H7139645   3.901   2.095   5.272 -0.6759  1.3423 -1.2356
   48MOL    H7239646   3.984   2.237   5.330 -0.2279  1.0826  2.6855
   48MOL    H7339647   3.728   2.160   5.475 -0.0286 -0.2922  0.2631
   48MOL    H7439648   3.807   2.309   5.467  0.1058 -0.2341  1.4695
   48MOL    H7539649   3.683   2.190   5.218 -0.7657  0.9338 -0.0078
   48MOL    H7639650   3.767   2.341   5.233  0.4142 -0.7814 -1.0384
   48MOL    H7739651   3.591   2.434   5.353 -1.6025 -0.1007  0.0306
   48MOL    H7839652   3.528   2.280   5.409  1.3743 -1.0243 -0.1355
   48MOL    H7939653   3.425   2.239   5.189  1.1616  0.4360 -2.7265
   48MOL    H8039654   3.372   2.395   5.258  0.7756 -0.5365  2.0385
   48MOL    H8139655   3.593   2.346   5.043  0.5023  2.3874 -0.6931
   48MOL    H8239656   3.539   2.499   5.113  0.2152  0.4058  0.0240
   48MOL    H8339657   3.308   2.458   5.027  0.3614 -0.4003  2.0730
   48MOL    H8439658   3.364   2.308   4.958  1.9035  0.4280 -1.5378
   48MOL    H8539659   3.412   2.457   4.887 -2.2518 -1.6206 -0.2985
   48MOL    C8639660   4.636   1.746   5.664  0.6362 -0.3414  0.8224
   48MOL    C8739661   4.668   1.605   5.698 -0.2615  0.8617  0.5600
   48MOL    C8839662   4.547   1.517   5.749  0.0905  0.7795 -0.5613
   48MOL    C8939663   4.540   1.366   5.695 -0.4626  0.6314 -0.1517
   48MOL    C9039664   4.486   1.363   5.552 -0.0626  0.3478 -0.3158
   48MOL    C9139665   4.457   1.229   5.485 -0.2743 -0.2606 -0.3340
   48MOL    C9239666   4.563   1.125   5.512 -1.1602 -1.0806  0.1096
   48MOL    C9339667   4.539   0.989   5.435  0.4548  0.2180  0.5075
   48MOL    C9439668   4.649   0.893   5.464  0.0643 -0.0739 -0.2256
   48MOL    C9539669   4.639   0.765   5.369 -0.6582  0.2989  0.0539
   48MOL    C9639670   4.749   0.653   5.374  0.1697 -0.2565 -0.4421
   48MOL    C9739671   4.885   0.708   5.313 -1.0292  0.0913 -0.3915
   48MOL    C9839672   4.891   0.710   5.162  0.0657 -0.0959  0.2302
   48MOL    C9939673   5.031   0.740   5.108  0.1988  0.0668 -0.1814
   48MOL   H10039674   4.730   1.797   5.644 -0.1829  0.5284 -0.9403
   48MOL   H10139675   4.595   1.794   5.753 -0.2768 -1.8754  1.2622
   48MOL   H10239676   4.695   1.563   5.601 -3.0981  0.2430 -0.0297
   48MOL   H10339677   4.537   1.521   5.857  1.2567  1.0231 -0.4562
   48MOL   H10439678   4.454   1.566   5.718  0.4797  1.7500 -0.2195
   48MOL   H10539679   4.636   1.315   5.701 -0.7977  0.0437  0.2241
   48MOL   H10639680   4.473   1.308   5.758  0.1861 -0.6750 -0.6325
   48MOL   H10739681   4.560   1.405   5.484  0.0064 -0.5690 -0.8176
   48MOL   H10839682   4.398   1.424   5.536  0.1965  1.2751  1.6533
   48MOL   H10939683   4.441   1.238   5.377 -0.2816 -1.3931 -0.4259
   48MOL   H11039684   4.358   1.203   5.520  0.7045 -0.7001  2.1708
   48MOL   H11139685   4.657   1.172   5.483 -0.5485 -2.1852  0.2480
   48MOL   H11239686   4.573   1.104   5.618 -2.3096  0.1847  0.4704
   48MOL   H11339687   4.538   1.007   5.328 -0.4551 -3.0747 -0.0703
   48MOL   H11439688   4.443   0.939   5.450  0.5316 -1.2508 -3.4393
   48MOL   H11539689   4.752   0.928   5.457 -0.8325  2.5970 -0.4166
   48MOL   H11639690   4.652   0.861   5.568 -4.2378 -1.3292 -0.4003
   48MOL   H11739691   4.635   0.798   5.266  1.1039 -0.9653 -0.4369
   48MOL   H11839692   4.544   0.713   5.384 -1.1299  0.3912 -2.4120
   48MOL   H11939693   4.774   0.636   5.478  1.8912  3.1252 -0.2535
   48MOL   H12039694   4.723   0.559   5.324 -3.2003 -0.6540  1.8550
   48MOL   H12139695   4.910   0.806   5.353  2.0125 -0.5269 -0.6777
   48MOL   H12239696   4.973   0.658   5.352 -1.5841 -1.8986 -1.6374
   48MOL   H12339697   4.824   0.787   5.123  2.2279  1.5520 -0.2959
   48MOL   H12439698   4.860   0.610   5.130  2.1116 -0.6846  0.0462
   48MOL   H12539699   5.105   0.672   5.149 -1.1589 -0.0037  2.2292
   48MOL   H12639700   5.051   0.743   5.001  4.0754  0.0490  0.4986
   48MOL   H12739701   5.063   0.829   5.161 -0.3799 -0.9798  1.9683
   48MOL   C12839702   4.788   1.595   5.788  0.9675 -0.8026  0.0313
   48MOL   C12939703   4.850   1.459   5.819  0.3366  0.9429 -0.4538
   48MOL   C13039704   4.927   1.409   5.695 -0.3640 -1.0494 -0.0655
   48MOL   C13139705   5.022   1.288   5.717 -0.0270  0.3850  0.6308
   48MOL   C13239706   5.083   1.249   5.582 -0.5474  0.6926  0.6306
   48MOL   C13339707   4.990   1.184   5.472 -0.1656 -0.2218  0.4087
   48MOL   C13439708   4.943   1.294   5.375  0.2181 -0.3338 -0.3608
   48MOL   C13539709   4.858   1.257   5.254  0.3875 -0.3488  1.2204
   48MOL   C13639710   4.928   1.145   5.172  0.3033  0.1553 -0.6853
   48MOL   C13739711   5.057   1.189   5.097 -0.2140  0.1138 -0.1885
   48MOL   C13839712   5.128   1.068   5.029  0.2809 -0.4444  0.1100
   48MOL   C13939713   5.250   1.108   4.941 -0.1857  0.2463 -0.2480
   48MOL   C14039714   5.315   0.997   4.854 -0.2520  0.1559 -0.6838
   48MOL   C14139715   5.401   0.902   4.949 -0.4428 -0.6690  0.5902
   48MOL   H14239716   4.860   1.666   5.749 -0.6338 -0.6724 -2.8683
   48MOL   H14339717   4.750   1.647   5.876 -0.1549 -0.4834 -0.6312
   48MOL   H14439718   4.777   1.382   5.845 -1.2009  2.3688 -0.4895
   48MOL   H14539719   4.847   1.390   5.623 -0.1868 -2.0134 -0.0123
   48MOL   H14639720   4.985   1.497   5.668 -3.0351  0.8042 -0.0399
   48MOL   H14739721   5.102   1.314   5.785  1.5478 -0.9988 -0.6631
   48MOL   H14839722   4.953   1.209   5.748 -1.8805  2.0611  0.9072
   48MOL   H14939723   5.135   1.339   5.549 -1.9373  1.0182 -0.6800
   48MOL   H15039724   5.148   1.166   5.609  1.6865  1.6559 -1.5636
   48MOL   H15139725   5.039   1.099   5.423 -1.7150 -0.1356 -1.3280
   48MOL   H15239726   4.905   1.130   5.515 -1.6550  2.8357  1.4093
   48MOL   H15339727   4.882   1.370   5.424 -1.1560 -1.9752  0.5253
   48MOL   H15439728   5.021   1.360   5.337  0.6740 -0.1503  0.8676
   48MOL   H15539729   4.766   1.222   5.301  0.4459  0.1229  1.6876
   48MOL   H15639730   4.843   1.349   5.197  0.4736 -0.9072  0.2806
   48MOL   H15739731   4.954   1.056   5.229  3.6468  0.6724 -1.3207
   48MOL   H15839732   4.857   1.098   5.104  0.2976  1.1574 -1.3823
   48MOL   H15939733   5.121   1.256   5.155  2.3333  0.1457 -2.9592
   48MOL   H16039734   5.019   1.255   5.019  2.1037  1.1443 -0.4802
   48MOL   H16139735   5.171   1.005   5.107 -1.1138 -1.3322  0.1680
   48MOL   H16239736   5.057   1.001   4.980 -0.0095  0.3156 -0.5290
   48MOL   H16339737   5.212   1.182   4.871 -2.1772 -0.0177  0.5371
   48MOL   H16439738   5.332   1.162   4.990  1.1350  1.1279 -3.3431
   48MOL   H16539739   5.229   0.945   4.812 -2.8623  1.8020  2.4036
   48MOL   H16639740   5.381   1.034   4.776  0.4879 -0.9614 -0.6041
   48MOL   H16739741   5.340   0.858   5.028 -1.7365 -2.6914 -1.4788
   48MOL   H16839742   5.441   0.825   4.883 -1.3993  0.1173 -0.9371
   48MOL   H16939743   5.488   0.953   4.991 -1.0046  1.4281 -0.7552
   48MOL   C17039744   4.946   1.468   5.944 -0.4013 -0.5084 -0.5915
   48MOL   C17139745   4.874   1.470   6.081  0.7465 -0.2167  0.3397
   48MOL   C17239746   4.818   1.337   6.128 -0.6869  0.6033  0.0240
   48MOL   C17339747   4.665   1.305   6.089 -0.4362  0.0066 -0.5985
   48MOL   C17439748   4.611   1.186   6.174 -0.1157  0.3410  0.1573
   48MOL   C17539749   4.607   1.202   6.327 -0.1843 -0.0721 -0.8846
   48MOL   C17639750   4.567   1.066   6.388 -0.1233  0.7721 -1.0991
   48MOL   C17739751   4.534   1.074   6.543 -0.2117  0.2104  0.3726
   48MOL   C17839752   4.475   0.949   6.595  0.4270  0.1474 -0.2060
   48MOL   C17939753   4.437   0.962   6.747  0.3842 -0.1558 -0.5326
   48MOL   C18039754   4.368   0.843   6.805  0.0876  0.6009  0.2416
   48MOL   C18139755   4.330   0.873   6.947 -1.1156  0.1620 -0.4871
   48MOL   C18239756   4.244   0.761   7.010  0.1422  0.4427 -0.4216
   48MOL   C18339757   4.213   0.775   7.157 -0.1813  0.4073 -0.4439
   48MOL   H18439758   5.023   1.542   5.924 -2.0357  0.7276 -2.5046
   48MOL   H18539759   5.007   1.378   5.954  0.0014 -0.1608  0.1746
   48MOL   H18639760   4.786   1.532   6.063  0.5149 -0.8561 -0.8205
   48MOL   H18739761   4.879   1.255   6.087  1.8386  1.7134  1.4381
   48MOL   H18839762   4.815   1.326   6.236 -3.3188  2.6543  0.1856
   48MOL   H18939763   4.609   1.398   6.091 -2.9859 -1.4682 -0.5360
   48MOL   H19039764   4.652   1.272   5.986  0.9400  0.1772 -0.8335
   48MOL   H19139765   4.511   1.161   6.138  0.0188 -1.3276  0.8859
   48MOL   H19239766   4.668   1.095   6.153  0.3446  0.6997 -0.1556
   48MOL   H19339767   4.534   1.271   6.370 -0.3945 -1.0946  0.4503
   48MOL   H19439768   4.708   1.223   6.362 -1.4737  1.2969  2.2358
   48MOL   H19539769   4.635   0.981   6.380  0.0887  0.9631 -1.3052
   48MOL   H19639770   4.471   1.047   6.339 -0.0195  0.8788 -1.3408
   48MOL   H19739771   4.462   1.156   6.547 -0.4438  0.2149 -2.4275
   48MOL   H19839772   4.622   1.102   6.600  0.3949 -2.6317  0.9222
   48MOL   H19939773   4.549   0.869   6.589  1.1427  0.8127 -0.2135
   48MOL   H20039774   4.383   0.907   6.554  1.0799 -0.8061 -0.7134
   48MOL   H20139775   4.361   1.038   6.763  0.3931 -0.0446 -1.0126
   48MOL   H20239776   4.524   0.996   6.803  0.3687 -1.0260  0.0360
   48MOL   H20339777   4.435   0.757   6.801 -1.0845 -0.2943 -0.2785
   48MOL   H20439778   4.273   0.825   6.756 -1.5575  1.9840  2.7815
   48MOL   H20539779   4.419   0.883   7.009 -0.4643 -1.9359 -1.0225
   48MOL   H20639780   4.281   0.970   6.959 -0.6067  0.3688 -0.0975
   48MOL   H20739781   4.147   0.766   6.961  0.5455 -0.8439 -1.3678
   48MOL   H20839782   4.282   0.661   6.989 -0.3787  0.6977 -2.6198
   48MOL   H20939783   4.299   0.733   7.210 -2.0137  1.1547  3.3048
   48MOL   H21039784   4.134   0.702   7.179 -0.1972 -0.1300 -2.2115
   48MOL   H21139785   4.166   0.866   7.193 -1.0128  0.2640 -1.1565
   48MOL   C21239786   4.951   1.544   6.191  0.2237 -0.0569 -1.0801
   48MOL   C21339787   4.983   1.694   6.171  0.4085  0.7444  0.1907
   48MOL   C21439788   4.858   1.779   6.175  0.0726  0.2674 -0.1779
   48MOL   C21539789   4.778   1.779   6.307 -0.8425  0.4642 -0.1057
   48MOL   C21639790   4.629   1.801   6.290  0.0002 -0.0135 -0.0319
   48MOL   C21739791   4.556   1.685   6.226 -0.0645  0.0590  0.0525
   48MOL   C21839792   4.414   1.690   6.271  0.2313  0.1034  0.3481
   48MOL   C21939793   4.317   1.582   6.206 -0.1263 -0.1714 -0.1478
   48MOL   C22039794   4.286   1.599   6.059 -0.3700 -0.1280 -0.8524
   48MOL   C22139795   4.208   1.484   5.989  0.1934  0.3237 -0.1051
   48MOL   C22239796   4.187   1.499   5.844 -0.5998 -0.6543 -0.3975
   48MOL   C22339797   4.137   1.364   5.780 -0.0509 -0.9807  0.4683
   48MOL   C22439798   4.083   1.367   5.637  0.2940  0.1242  0.1472
   48MOL   C22539799   3.971   1.468   5.621  0.3911 -0.2715 -0.7320
   48MOL   H22639800   5.050   1.508   6.221  0.6239 -0.2156 -2.5677
   48MOL   H22739801   4.904   1.533   6.289  0.6363 -1.9670 -1.0847
   48MOL   H22839802   5.023   1.713   6.071  2.3408 -2.5047  0.2448
   48MOL   H22939803   4.884   1.880   6.145  0.9350  0.0848 -0.0641
   48MOL   H23039804   4.793   1.755   6.091  0.3081  1.6890 -0.7836
   48MOL   H23139805   4.820   1.860   6.367 -1.4981  0.9911 -0.3369
   48MOL   H23239806   4.803   1.691   6.365  1.7570  1.5394  0.4645
   48MOL   H23339807   4.616   1.880   6.216 -0.2771  0.6748  0.7404
   48MOL   H23439808   4.598   1.836   6.388  0.0331 -0.8887  0.2951
   48MOL   H23539809   4.594   1.591   6.264 -1.5932 -0.2455  0.8633
   48MOL   H23639810   4.572   1.682   6.118 -2.2938  0.3424 -0.3075
   48MOL   H23739811   4.412   1.680   6.380  2.3120  2.9620  0.6993
   48MOL   H23839812   4.381   1.792   6.250  0.5935 -0.1042 -1.2920
   48MOL   H23939813   4.373   1.491   6.226  0.5565  0.1164 -0.7382
   48MOL   H24039814   4.222   1.581   6.259 -0.0348 -1.7138  0.0119
   48MOL   H24139815   4.381   1.609   6.006  0.4326 -2.3370  0.1058
   48MOL   H24239816   4.231   1.692   6.051  1.7074  1.5065  2.6441
   48MOL   H24339817   4.263   1.392   6.006 -0.5690 -0.1119  0.0172
   48MOL   H24439818   4.114   1.475   6.044  0.9891  1.1137  1.4135
   48MOL   H24539819   4.273   1.545   5.794  1.9933  0.0626  4.4665
   48MOL   H24639820   4.120   1.584   5.832  1.3995  0.9846 -0.2136
   48MOL   H24739821   4.066   1.326   5.853 -1.9964 -0.7339 -1.2336
   48MOL   H24839822   4.224   1.299   5.789 -0.3474 -1.6033 -0.9455
   48MOL   H24939823   4.056   1.267   5.604 -1.9967 -0.1048  2.5025
   48MOL   H25039824   4.167   1.380   5.569  0.9660  1.2221  1.1669
   48MOL   H25139825   3.924   1.475   5.523 -0.9707  2.2560  0.0578
   48MOL   H25239826   3.889   1.443   5.687 -0.3245  1.1119 -1.0734
   48MOL   H25339827   3.998   1.572   5.641  2.5249 -1.0257  0.5629
   48MOL   C25439828   5.092   1.744   6.270 -0.3764 -0.0145 -0.0048
   48MOL   C25539829   5.238   1.680   6.286 -0.4260  0.2945 -0.9560
   48MOL   C25639830   5.306   1.704   6.156 -0.0032 -0.2644 -0.5980
   48MOL   C25739831   5.446   1.638   6.137  0.4802 -1.2361 -0.7924
   48MOL   C25839832   5.516   1.673   6.000  0.1917  0.6016 -0.3311
   48MOL   C25939833   5.458   1.576   5.905  0.5643  0.0693  0.6404
   48MOL   C26039834   5.484   1.618   5.757 -0.6925  0.3715 -0.1663
   48MOL   C26139835   5.383   1.553   5.656  0.8353  0.3684  0.3789
   48MOL   C26239836   5.440   1.569   5.507 -0.0611 -0.0245 -0.0783
   48MOL   C26339837   5.342   1.534   5.399  0.1777 -0.3153 -0.0904
   48MOL   C26439838   5.389   1.577   5.253  0.1763  0.5221  0.0076
   48MOL   C26539839   5.294   1.534   5.135 -0.1103 -0.5390 -0.3103
   48MOL   C26639840   5.155   1.607   5.158 -0.1605 -0.4056  0.2369
   48MOL   C26739841   5.071   1.612   5.031  0.0528  0.1840  0.3794
   48MOL   H26839842   5.051   1.761   6.370  0.7537 -0.4493  0.5389
   48MOL   H26939843   5.115   1.849   6.248  0.7670  0.3406  2.6492
   48MOL   H27039844   5.235   1.571   6.295  0.1118  0.2982 -0.6677
   48MOL   H27139845   5.319   1.809   6.129 -1.8705 -0.5773 -2.7882
   48MOL   H27239846   5.241   1.670   6.076 -0.2487 -0.4030 -0.3424
   48MOL   H27339847   5.431   1.534   6.166  0.1886 -0.9953 -0.0670
   48MOL   H27439848   5.518   1.671   6.212  0.9460 -2.7362 -0.5732
   48MOL   H27539849   5.622   1.648   5.999 -0.1026 -0.8134  1.2481
   48MOL   H27639850   5.509   1.780   5.980  0.6618  0.7542  0.3064
   48MOL   H27739851   5.351   1.575   5.927 -0.2350 -1.0975 -2.9646
   48MOL   H27839852   5.484   1.472   5.923 -0.4999 -0.7327 -2.2267
   48MOL   H27939853   5.472   1.726   5.753 -0.8718  0.3321 -0.6865
   48MOL   H28039854   5.589   1.601   5.734 -0.7245 -0.7120  0.4440
   48MOL   H28139855   5.296   1.614   5.680  0.0570 -1.0086  1.1534
   48MOL   H28239856   5.367   1.446   5.675 -0.2464  0.5545  0.5552
   48MOL   H28339857   5.471   1.670   5.483  0.6972  0.1492  1.5586
   48MOL   H28439858   5.525   1.503   5.491 -0.0221 -0.2400  0.9868
   48MOL   H28539859   5.248   1.583   5.424 -0.0869 -1.2006  0.7000
   48MOL   H28639860   5.312   1.430   5.402 -1.6440  0.1744 -0.3949
   48MOL   H28739861   5.484   1.530   5.225 -0.8541 -1.0993 -0.8220
   48MOL   H28839862   5.407   1.684   5.254  0.6012  0.4381  1.3337
   48MOL   H28939863   5.349   1.562   5.045 -0.4596  2.8648  0.4396
   48MOL   H29039864   5.276   1.427   5.131 -2.7006 -0.1542  0.6992
   48MOL   H29139865   5.108   1.550   5.237  0.5603 -0.7137  0.4543
   48MOL   H29239866   5.163   1.707   5.200  0.2936  0.1625 -1.1417
   48MOL   H29339867   5.076   1.522   4.971 -0.5922 -1.0567  2.1444
   48MOL   H29439868   5.118   1.693   4.974  0.2065  1.2492  1.9820
   48MOL   H29539869   4.969   1.649   5.031 -1.2849 -3.2137 -3.0073
   48MOL   C29639870   5.315   1.718   6.414  0.2868 -0.3568  0.1990
   48MOL   C29739871   5.261   1.651   6.541 -0.1683 -0.0869 -0.2732
   48MOL   C29839872   5.250   1.499   6.531  0.2912  0.6367 -0.0068
   48MOL   C29939873   5.372   1.425   6.486 -0.0926 -0.4550 -0.6838
   48MOL   C30039874   5.352   1.272   6.476  0.6951 -0.1973 -0.3487
   48MOL   C30139875   5.367   1.200   6.610  0.3958 -0.2447 -0.3208
   48MOL   C30239876   5.327   1.058   6.605 -0.2440  0.6092  0.7371
   48MOL   C30339877   5.332   0.980   6.741  0.6861 -0.2019  0.4257
   48MOL   C30439878   5.262   0.840   6.740  0.4912 -0.2909 -0.3932
   48MOL   C30539879   5.267   0.785   6.879 -0.0492  0.3671 -0.3081
   48MOL   C30639880   5.186   0.650   6.881  0.5089  0.0583  0.0056
   48MOL   C30739881   5.261   0.536   6.819  0.0029 -0.5351  0.1660
   48MOL   C30839882   5.204   0.393   6.837 -0.0353 -0.2887 -0.4785
   48MOL   C30939883   5.266   0.286   6.748 -0.7859 -0.0404  0.3924
   48MOL   H31039884   5.326   1.826   6.430 -2.1264  0.1772 -1.4492
   48MOL   H31139885   5.419   1.688   6.417  0.9304  1.7076 -0.6400
   48MOL   H31239886   5.157   1.675   6.564 -0.8837  0.1852 -3.5272
   48MOL   H31339887   5.167   1.477   6.464  0.3756 -0.9748  0.3988
   48MOL   H31439888   5.218   1.463   6.628  0.7984 -1.1782 -0.4907
   48MOL   H31539889   5.453   1.446   6.555 -0.7278  0.4311 -0.1898
   48MOL   H31639890   5.408   1.469   6.393 -0.4106  0.7875 -0.2406
   48MOL   H31739891   5.251   1.248   6.444 -0.2448  0.8429  1.7563
   48MOL   H31839892   5.406   1.228   6.392 -0.1359 -1.6710 -0.1307
   48MOL   H31939893   5.314   1.252   6.690  1.1788  0.3918 -0.2014
   48MOL   H32039894   5.470   1.205   6.647  0.2238  0.4809  0.0715
   48MOL   H32139895   5.227   1.047   6.563 -0.4716  3.0835  0.5570
   48MOL   H32239896   5.395   1.016   6.531 -0.9724 -0.4648  0.6795
   48MOL   H32339897   5.295   1.050   6.817 -1.7742  0.7548 -1.5522
   48MOL   H32439898   5.436   0.962   6.767  1.3560  0.9374 -1.3630
   48MOL   H32539899   5.160   0.855   6.704  0.4084  1.2610  0.4307
   48MOL   H32639900   5.313   0.771   6.674  2.0364  1.1911 -0.7993
   48MOL   H32739901   5.230   0.859   6.950 -0.2246 -0.5755  0.6034
   48MOL   H32839902   5.371   0.761   6.900  0.1426 -0.9635 -2.6613
   48MOL   H32939903   5.085   0.661   6.843  1.1830  0.3668 -1.7335
   48MOL   H33039904   5.168   0.617   6.983  0.2873 -0.0598 -0.0711
   48MOL   H33139905   5.368   0.536   6.841 -0.0101 -1.7524  0.2273
   48MOL   H33239906   5.261   0.560   6.712 -0.9473 -0.1906  0.2457
   48MOL   H33339907   5.098   0.408   6.815 -0.0129  0.2121 -0.2487
   48MOL   H33439908   5.207   0.364   6.942  2.4432  1.5461  0.0182
   48MOL   H33539909   5.281   0.331   6.649  1.0812  1.1621  1.1820
   48MOL   H33639910   5.365   0.261   6.787 -1.2298 -1.3300  0.6875
   48MOL   H33739911   5.216   0.190   6.753  0.0338 -0.4546  0.7871
   48MOL   C33839912   5.341   1.695   6.664  0.1543 -0.2458  0.1398
   48MOL   C33939913   5.346   1.847   6.697 -0.2479  0.1254 -0.4792
   48MOL   C34039914   5.204   1.914   6.682 -0.3132 -0.4918  0.3054
   48MOL   C34139915   5.083   1.868   6.771 -0.3087  0.3115  0.3419
   48MOL   C34239916   4.948   1.913   6.709  0.1286  0.2404  0.1100
   48MOL   C34339917   4.830   1.829   6.770 -0.7181 -0.5875 -0.0648
   48MOL   C34439918   4.688   1.848   6.697 -0.2387  0.6244 -0.6904
   48MOL   C34539919   4.571   1.770   6.750 -0.1940 -0.2494  0.7591
   48MOL   C34639920   4.594   1.617   6.740 -0.0144 -0.3983  0.2651
   48MOL   C34739921   4.498   1.527   6.821 -0.3246 -0.3187 -0.2752
   48MOL   C34839922   4.521   1.542   6.972  0.3784  0.1667 -0.4610
   48MOL   C34939923   4.433   1.457   7.065 -0.2855  0.1711 -0.1684
   48MOL   C35039924   4.458   1.306   7.051  0.7863 -0.2946 -0.7236
   48MOL   C35139925   4.394   1.223   7.172 -0.2879 -0.1358  0.5020
   48MOL   H35239926   5.314   1.639   6.754 -1.1158 -1.2598 -0.8546
   48MOL   H35339927   5.442   1.662   6.641  0.9364  2.3597 -0.3032
   48MOL   H35439928   5.422   1.878   6.625 -0.6141  0.7698 -0.5870
   48MOL   H35539929   5.228   2.019   6.701  0.7215 -0.4192 -1.3254
   48MOL   H35639930   5.173   1.897   6.579 -1.2957  1.1225  0.3238
   48MOL   H35739931   5.087   1.909   6.872 -1.0245  0.8392  0.1574
   48MOL   H35839932   5.078   1.760   6.786  1.5414  0.5457  3.1078
   48MOL   H35939933   4.949   1.877   6.606  1.2454 -2.0342  0.8617
   48MOL   H36039934   4.924   2.019   6.710 -0.1936  0.1588  1.7526
   48MOL   H36139935   4.855   1.723   6.777 -0.0518 -0.4187  0.1918
   48MOL   H36239936   4.828   1.861   6.875  1.7890 -1.7606  0.3908
   48MOL   H36339937   4.664   1.954   6.707  0.1465  0.6098  0.3890
   48MOL   H36439938   4.705   1.823   6.592  1.4560 -0.5277 -0.1566
   48MOL   H36539939   4.551   1.803   6.852 -0.4370  1.0698  0.2954
   48MOL   H36639940   4.481   1.787   6.692 -0.2076 -0.5301  0.6980
   48MOL   H36739941   4.582   1.578   6.639  1.4501 -1.0525  0.3335
   48MOL   H36839942   4.692   1.588   6.777  0.6302 -1.1136 -1.9137
   48MOL   H36939943   4.394   1.556   6.803 -0.2035  2.4905  2.9543
   48MOL   H37039944   4.506   1.423   6.789 -0.9672 -0.9112  1.4355
   48MOL   H37139945   4.530   1.644   7.010  0.8333  0.1736 -0.5832
   48MOL   H37239946   4.624   1.514   6.995  0.9223  0.0965 -2.8522
   48MOL   H37339947   4.325   1.469   7.059 -0.3252 -0.1145  0.0139
   48MOL   H37439948   4.457   1.488   7.167 -2.3837  0.6434  0.1902
   48MOL   H37539949   4.425   1.255   6.960  0.8118 -0.0691 -0.8604
   48MOL   H37639950   4.565   1.296   7.066  0.9954  0.8632 -1.3664
   48MOL   H37739951   4.422   1.120   7.151  1.3170  0.3733  0.0746
   48MOL   H37839952   4.434   1.259   7.266  1.1677  0.2254 -0.2498
   48MOL   H37939953   4.285   1.226   7.165 -0.1279  3.1664 -1.5601
   48MOL   C38039954   5.399   1.870   6.840  0.3572  0.1033 -0.9124
   48MOL   C38139955   5.461   2.003   6.868  0.2899 -0.0627 -0.0233
   48MOL   C38239956   5.422   2.053   7.008  0.0186 -0.1928 -0.1348
   48MOL   C38339957   5.455   1.963   7.129 -0.4663 -0.1239 -0.0116
   48MOL   C38439958   5.396   2.006   7.263  0.1736  0.3181  0.3923
   48MOL   C38539959   5.392   2.157   7.298  0.2792  0.2754  0.2109
   48MOL   C38639960   5.538   2.219   7.329 -0.0740  0.2610  0.1823
   48MOL   C38739961   5.546   2.372   7.299 -0.0324  0.6131 -0.2081
   48MOL   C38839962   5.677   2.448   7.349  0.6317  0.3833 -0.4168
   48MOL   C38939963   5.661   2.603   7.344 -0.2370  0.5932  0.5832
   48MOL   C39039964   5.773   2.676   7.423 -0.1988 -1.1359 -0.7042
   48MOL   C39139965   5.741   2.825   7.426 -0.3575 -0.0937  0.3563
   48MOL   C39239966   5.838   2.908   7.516  0.1508 -0.5420  0.3706
   48MOL   C39339967   5.831   3.062   7.501  0.2243  0.3224 -0.4798
   48MOL   H39439968   5.472   1.798   6.877  0.6825  0.2451 -1.2692
   48MOL   H39539969   5.309   1.861   6.901 -0.5247  1.4923 -1.9561
   48MOL   H39639970   5.429   2.076   6.795  1.0304 -0.5202 -0.8151
   48MOL   H39739971   5.318   2.083   7.002  0.3030  0.6075 -1.1672
   48MOL   H39839972   5.479   2.146   7.021  2.8291 -1.6640 -1.4267
   48MOL   H39939973   5.563   1.965   7.138 -0.4399 -0.4599 -0.2408
   48MOL   H40039974   5.436   1.857   7.110  0.3338 -0.0788 -1.1416
   48MOL   H40139975   5.432   1.949   7.349 -0.8525  1.3300  1.5123
   48MOL   H40239976   5.290   1.979   7.256  0.5448 -1.0975  0.0723
   48MOL   H40339977   5.321   2.165   7.380 -1.4267 -1.4331 -1.0536
   48MOL   H40439978   5.339   2.211   7.220 -1.4165  0.3836  1.4171
   48MOL   H40539979   5.554   2.206   7.436 -1.0256 -3.1975 -0.0498
   48MOL   H40639980   5.618   2.168   7.275 -0.1538  0.7265 -0.3835
   48MOL   H40739981   5.543   2.377   7.190 -0.9046 -2.8378 -0.3942
   48MOL   H40839982   5.454   2.420   7.333  0.3184  0.6025  0.7823
   48MOL   H40939983   5.712   2.430   7.451 -3.5902  2.7408  1.6027
   48MOL   H41039984   5.756   2.418   7.282 -0.9975 -2.8352 -0.9951
   48MOL   H41139985   5.570   2.620   7.401  0.4263  2.7668  1.0559
   48MOL   H41239986   5.643   2.645   7.245  0.7027  3.4514  1.5657
   48MOL   H41339987   5.791   2.638   7.524  0.0303  2.3448  0.6286
   48MOL   H41439988   5.862   2.670   7.360 -1.2583  0.0069 -2.3533
   48MOL   H41539989   5.642   2.844   7.470  0.3257  0.2753  1.7757
   48MOL   H41639990   5.746   2.858   7.323  1.9250  0.6135  0.6783
   48MOL   H41739991   5.816   2.883   7.620 -0.9144  0.2544  0.3491
   48MOL   H41839992   5.942   2.877   7.506  0.7908  1.7120 -0.3049
   48MOL   H41939993   5.863   3.113   7.592 -0.9110  1.1978 -0.5609
   48MOL   H42039994   5.733   3.108   7.488 -0.5792 -1.2103 -0.0831
   48MOL   H42139995   5.910   3.099   7.436  0.0007  0.7009 -0.5378
   48MOL   C42239996   5.610   2.009   6.856  0.9111 -0.0951 -0.7033
   48MOL   C42339997   5.680   1.969   6.719 -0.5802 -0.1210  0.6794
   48MOL   C42439998   5.640   2.062   6.606  0.9202  0.2776  0.5757
   48MOL   C42539999   5.717   2.044   6.474 -0.2062 -1.0309  0.2283
   48MOL   C42640000   5.636   2.100   6.356 -0.7762 -1.3835 -0.0216
   48MOL   C42740001   5.702   2.097   6.214  1.0855  0.0071  0.2347
   48MOL   C42840002   5.688   1.959   6.151 -0.2266 -0.0358 -0.1067
   48MOL   C42940003   5.767   1.939   6.019 -0.8705 -0.2375 -0.5064
   48MOL   C43040004   5.687   2.007   5.900 -0.2199  0.7392 -0.0503
   48MOL   C43140005   5.745   1.966   5.762 -0.1279  0.1323  0.1228
   48MOL   C43240006   5.648   1.991   5.640  0.1427 -0.3387  0.3280
   48MOL   C43340007   5.728   1.972   5.509 -0.6227  0.1624 -0.1081
   48MOL   C43440008   5.652   2.033   5.384 -0.6754 -0.2721 -0.0153
   48MOL   C43540009   5.554   1.932   5.337 -0.7871 -0.1483  0.0650
   48MOL   H43640010   5.642   1.943   6.936  2.1724  0.6262 -0.5823
   48MOL   H43740011   5.638   2.111   6.885  0.2057  0.0040 -0.3656
   48MOL   H43840012   5.643   1.868   6.699 -0.9478 -0.3807  2.5126
   48MOL   H43940013   5.664   2.160   6.647 -0.0960  0.2596  1.2418
   48MOL   H44040014   5.532   2.062   6.586  0.9584 -1.5704  0.3095
   48MOL   H44140015   5.817   2.086   6.463 -0.9906  0.2314 -2.2496
   48MOL   H44240016   5.719   1.937   6.452  1.1221 -0.7645 -1.0596
   48MOL   H44340017   5.619   2.206   6.374  4.2596 -0.0513 -2.3008
   48MOL   H44440018   5.537   2.055   6.348  0.1254 -3.3862 -0.2017
   48MOL   H44540019   5.806   2.129   6.225  1.5620 -1.5525  0.4742
   48MOL   H44640020   5.658   2.171   6.147 -1.8053 -1.1071  0.8144
   48MOL   H44740021   5.722   1.880   6.219  0.9460  0.7108  0.1913
   48MOL   H44840022   5.581   1.943   6.140 -0.5642  2.0726 -0.0810
   48MOL   H44940023   5.870   1.972   6.029 -0.1265 -2.1186 -1.6510
   48MOL   H45040024   5.782   1.831   6.021 -0.5755 -0.2609 -3.1209
   48MOL   H45140025   5.581   1.980   5.899 -0.3066  1.1258 -1.4629
   48MOL   H45240026   5.689   2.116   5.907  1.6481  0.6433  1.3496
   48MOL   H45340027   5.837   2.024   5.759  0.9340 -1.5108  0.2047
   48MOL   H45440028   5.780   1.863   5.769  1.2163  0.5625 -0.1147
   48MOL   H45540029   5.554   1.935   5.640  0.6047 -1.1197 -0.0853
   48MOL   H45640030   5.611   2.094   5.643 -3.7098 -1.6370  0.0895
   48MOL   H45740031   5.754   1.867   5.495 -2.9535 -0.5504  0.5553
   48MOL   H45840032   5.824   2.022   5.521  1.0015 -3.2202  1.8658
   48MOL   H45940033   5.616   2.134   5.402 -2.4080 -0.6487 -1.2790
   48MOL   H46040034   5.723   2.039   5.301  0.7242  1.3283  1.2818
   48MOL   H46140035   5.526   1.956   5.235  1.4185 -0.6802 -0.6828
   48MOL   H46240036   5.464   1.938   5.398 -0.8492  1.7030 -0.1840
   48MOL   H46340037   5.595   1.831   5.323 -0.8735 -0.0575 -0.8457
   48MOL   C46440038   5.834   1.950   6.739 -0.2768  0.2707 -0.0687
   48MOL   C46540039   5.870   1.829   6.830 -0.2235  0.1351  0.1234
   48MOL   C46640040   5.915   1.704   6.748 -1.0211  0.1453 -0.6343
   48MOL   C46740041   5.807   1.636   6.658  0.1915  0.1732  0.6966
   48MOL   C46840042   5.862   1.506   6.591 -0.0357 -0.0874 -0.6165
   48MOL   C46940043   5.905   1.400   6.692  0.3092 -0.1144  0.1344
   48MOL   C47040044   5.908   1.259   6.632 -0.3658  0.0634 -0.1006
   48MOL   C47140045   5.784   1.177   6.660  0.2152  0.4683 -0.2720
   48MOL   C47240046   5.804   1.023   6.614  0.1642 -0.1196 -0.3286
   48MOL   C47340047   5.812   0.984   6.463  0.5660  0.1921 -0.4839
   48MOL   C47440048   5.810   0.830   6.440 -0.3657  0.3159 -0.8529
   48MOL   C47540049   5.846   0.789   6.295 -0.5900  0.3185 -0.2245
   48MOL   C47640050   5.847   0.635   6.281  0.5584 -0.0616 -0.7175
   48MOL   C47740051   5.890   0.599   6.138  0.4762  0.5928 -0.4483
   48MOL   H47840052   5.870   2.044   6.780 -1.0989  1.3091 -1.6690
   48MOL   H47940053   5.880   1.946   6.641  1.8597  0.0086  0.9210
   48MOL   H48040054   5.788   1.781   6.885  0.1492 -1.7958 -0.9420
   48MOL   H48140055   5.997   1.737   6.684  0.3860 -1.1634  0.4826
   48MOL   H48240056   5.963   1.641   6.822 -5.6794 -1.4777  1.1620
   48MOL   H48340057   5.778   1.696   6.572  1.2752  1.2028  1.0249
   48MOL   H48440058   5.718   1.610   6.715 -1.4343  0.2026 -1.7836
   48MOL   H48540059   5.947   1.526   6.525  0.4520 -1.3055 -0.3636
   48MOL   H48640060   5.786   1.452   6.534  1.7337  0.0470 -3.2169
   48MOL   H48740061   6.008   1.416   6.721 -0.0677  0.8968  0.9357
   48MOL   H48840062   5.832   1.399   6.773 -1.0080 -1.8084 -1.0167
   48MOL   H48940063   5.930   1.257   6.525  1.7013  3.6575  0.1671
   48MOL   H49040064   5.991   1.207   6.681  0.0168 -1.0741 -1.8980
   48MOL   H49140065   5.768   1.184   6.767 -0.4000 -0.5186 -0.2941
   48MOL   H49240066   5.694   1.228   6.625 -0.4363  0.0621  0.7950
   48MOL   H49340067   5.887   0.977   6.669 -1.8867 -3.0250  0.4404
   48MOL   H49440068   5.723   0.959   6.647  0.9452  0.2217  2.3952
   48MOL   H49540069   5.727   1.027   6.410 -0.4719 -1.5156 -0.2454
   48MOL   H49640070   5.902   1.019   6.414  1.1817 -1.3070 -0.4414
   48MOL   H49740071   5.863   0.766   6.511 -0.7712  1.8873  0.9191
   48MOL   H49840072   5.706   0.797   6.448 -0.6638  1.0461 -1.7389
   48MOL   H49940073   5.952   0.814   6.291 -0.5447  0.1807  0.0574
   48MOL   H50040074   5.792   0.842   6.216 -1.4463  0.6195  0.5620
   48MOL   H50140075   5.887   0.569   6.359  1.0675 -0.8185 -1.6006
   48MOL   H50240076   5.740   0.614   6.286  0.2302  1.0181 -2.6350
   48MOL   H50340077   5.999   0.596   6.128  0.6148 -1.9037  1.1950
   48MOL   H50440078   5.854   0.498   6.116 -1.9109  1.4862 -0.7981
   48MOL   H50540079   5.845   0.665   6.065 -0.8080 -0.4393 -0.6077
   48MOL   C50640080   5.984   1.872   6.922  0.3942 -0.4779  0.3512
   48MOL   C50740081   5.948   1.953   7.044  0.0023  0.4569  0.2598
   48MOL   C50840082   5.865   1.874   7.150 -0.1740 -0.4670  0.4634
   48MOL   C50940083   5.843   1.926   7.288 -0.6584  0.1817 -0.4384
   48MOL   C51040084   5.735   1.851   7.366  0.3637  0.3192 -0.0366
   48MOL   C51140085   5.737   1.901   7.512  0.0129 -0.1093 -0.0203
   48MOL   C51240086   5.643   1.813   7.595  0.6138 -0.5547 -0.6409
   48MOL   C51340087   5.650   1.855   0.046 -0.2212  0.1393  0.6202
   48MOL   C51440088   5.532   1.806   0.129  0.5827 -0.0676  0.1621
   48MOL   C51540089   5.566   1.835   0.278 -0.0620  0.2049  0.0357
   48MOL   C51640090   5.454   1.805   0.378  0.5271 -0.0407  0.8069
   48MOL   C51740091   5.497   1.803   0.526  0.2115 -0.8322  0.1179
   48MOL   C51840092   5.578   1.928   0.580 -0.3659  0.2424  0.2655
   48MOL   C51940093   5.621   1.923   0.728 -0.2603 -0.2025  0.3728
   48MOL   H52040094   6.058   1.922   6.860 -0.5443 -1.6007 -1.7238
   48MOL   H52140095   6.038   1.788   6.965  1.9403 -0.5676 -1.6908
   48MOL   H52240096   5.880   2.035   7.023 -0.8127 -0.0932  0.6956
   48MOL   H52340097   5.772   1.863   7.094  0.0210 -0.5145  0.1459
   48MOL   H52440098   5.907   1.774   7.148  1.8790  0.3510  0.7995
   48MOL   H52540099   5.931   1.914   7.352 -0.7603 -0.1536 -0.3599
   48MOL   H52640100   5.824   2.033   7.292  0.6351  0.3753  0.6757
   48MOL   H52740101   5.762   1.745   7.360  1.3500  0.6981 -2.6962
   48MOL   H52840102   5.632   1.860   7.331 -0.0569  1.4588  1.4500
   48MOL   H52940103   5.704   2.004   7.502  2.1757  0.4893 -1.3920
   48MOL   H53040104   5.836   1.891   7.557 -0.3974 -3.1003  0.3065
   48MOL   H53140105   5.541   1.822   7.556 -0.9275 -1.5301  2.9551
   48MOL   H53240106   5.670   1.707   7.595 -1.3904 -1.1279  2.0693
   48MOL   H53340107   5.658   1.963   0.040 -0.6365  0.1035 -0.5249
   48MOL   H53440108   5.747   1.821   0.085 -0.0820 -1.9162 -1.3663
   48MOL   H53540109   5.500   1.701   0.124  0.4192  0.0603 -1.8735
   48MOL   H53640110   5.449   1.865   0.091  1.2978  0.0974 -1.1928
   48MOL   H53740111   5.659   1.785   0.306 -0.5594  0.2777  1.8350
   48MOL   H53840112   5.584   1.939   0.304 -0.7154  0.3516 -0.0920
   48MOL   H53940113   5.368   1.871   0.370  0.6502 -0.1613 -1.9490
   48MOL   H54040114   5.408   1.707   0.366 -1.5547  1.0713 -0.4483
   48MOL   H54140115   5.558   1.714   0.540 -0.0513 -1.0869 -0.3434
   48MOL   H54240116   5.415   1.804   0.598  0.8519  1.8521  0.9026
   48MOL   H54340117   5.522   2.021   0.570  0.9614  0.8217 -2.3195
   48MOL   H54440118   5.668   1.927   0.519 -1.5028 -0.0689 -1.4561
   48MOL   H54540119   5.662   2.021   0.752  0.3560 -0.2949 -0.2564
   48MOL   H54640120   5.539   1.906   0.798 -0.6005 -1.0618 -0.2277
   48MOL   H54740121   5.707   1.857   0.739 -0.6256 -1.0907 -1.8456
   48MOL   C54840122   6.070   2.027   7.101  0.1734 -0.3408  0.9558
   48MOL   C54940123   6.075   2.176   7.085  0.2211  0.2654 -0.2401
   48MOL   C55040124   6.179   2.241   7.191 -0.1142  0.3571 -0.5766
   48MOL   C55140125   6.167   2.388   7.233 -0.6513  0.1625  0.6286
   48MOL   C55240126   6.277   2.436   7.323  0.3125  0.8167 -0.2459
   48MOL   C55340127   6.282   2.592   7.345  0.2040  0.5973  0.3650
   48MOL   C55440128   6.389   2.646   7.442  0.1114 -0.2087  0.7902
   48MOL   C55540129   6.382   2.798   7.456  0.0594 -0.5544  0.0257
   48MOL   C55640130   6.488   2.839   7.558  0.1597  0.3172  0.6835
   48MOL   C55740131   6.484   2.992   7.583 -0.4509  1.0049 -0.2904
   48MOL   C55840132   6.582   3.053   7.684 -0.8176  0.4001  0.0615
   48MOL   C55940133   6.527   3.074   0.132 -0.3280 -0.6559  0.2080
   48MOL   C56040134   6.636   3.132   0.229 -0.3988  0.2525 -0.2853
   48MOL   C56140135   6.581   3.134   0.379  0.7992 -0.0758  0.2408
   48MOL   H56240136   6.072   2.009   7.208  0.5368  0.2536  1.0522
   48MOL   H56340137   6.166   1.982   7.076  0.6171  0.1030  1.8430
   48MOL   H56440138   5.975   2.215   7.102  0.3889  0.9705 -0.8567
   48MOL   H56540139   6.143   2.210   7.289  0.7323 -1.8239 -0.9316
   48MOL   H56640140   6.281   2.209   7.171  0.7028  1.6144  1.4297
   48MOL   H56740141   6.071   2.412   7.279 -2.7373 -0.8763 -3.0341
   48MOL   H56840142   6.179   2.447   7.143  2.2997  0.5732  1.2203
   48MOL   H56940143   6.265   2.384   7.418  2.5200  1.7730  0.5906
   48MOL   H57040144   6.374   2.405   7.283  0.5836 -0.5918  1.4457
   48MOL   H57140145   6.192   2.641   7.380  0.6608  1.3236  0.5233
   48MOL   H57240146   6.302   2.643   7.251 -0.4332  1.6612  0.8058
   48MOL   H57340147   6.364   2.598   7.537 -1.6772 -1.2056 -0.1755
   48MOL   H57440148   6.489   2.611   7.414 -0.8707 -1.3762 -1.3348
   48MOL   H57540149   6.286   2.841   7.486 -1.4235 -3.3716 -0.4274
   48MOL   H57640150   6.408   2.845   7.362  1.6201 -0.0878  0.6721
   48MOL   H57740151   6.592   2.813   7.534  0.6822  2.3143  0.6850
   48MOL   H57840152   6.461   2.794   7.653 -1.2694 -2.5157 -0.9846
   48MOL   H57940153   6.505   3.042   7.488 -2.1382  0.4372 -0.9905
   48MOL   H58040154   6.383   3.028   7.606 -1.1423 -2.1966  2.0528
   48MOL   H58140155   6.610   3.147   7.636  1.3096 -0.3242 -0.1624
   48MOL   H58240156   6.672   2.993   7.676  0.5655  2.5960 -1.4162
   48MOL   H58340157   6.452   3.152   0.119 -0.0830 -0.2399  1.3052
   48MOL   H58440158   6.492   2.975   0.159 -1.5389 -1.5256 -4.1008
   48MOL   H58540159   6.722   3.066   0.227 -0.8678 -0.3334 -1.5469
   48MOL   H58640160   6.673   3.231   0.201 -1.2160  0.1913 -1.6225
   48MOL   H58740161   6.523   3.226   0.378 -0.0853 -0.6117 -1.8177
   48MOL   H58840162   6.525   3.044   0.404  3.2478 -1.5689  0.4007
   48MOL   H58940163   6.665   3.143   0.447  0.1307 -2.0547  1.3752
   48MOL   C59040164   6.091   2.216   6.932 -0.5835  0.4607 -0.1517
   48MOL   C59140165   6.049   2.358   6.878 -0.6059  0.0058  0.9529
   48MOL   C59240166   6.126   2.370   6.744 -1.3171 -0.0793 -0.6872
   48MOL   C59340167   6.107   2.257   6.646 -1.1154 -0.0627 -0.5074
   48MOL   C59440168   6.181   2.284   6.515  0.0570  0.3616  0.1286
   48MOL   C59540169   6.222   2.160   6.432  0.1139 -0.5954  0.5779
   48MOL   C59640170   6.104   2.068   6.409 -0.5206  0.1149 -0.7365
   48MOL   C59740171   6.134   1.933   6.338  0.0397  0.1365  0.1442
   48MOL   C59840172   6.013   1.842   6.324  0.1247  0.0027 -0.1398
   48MOL   C59940173   6.047   1.702   6.296 -0.1405  0.1026  0.1063
   48MOL   C60040174   5.925   1.625   6.242  0.2650 -0.2859  0.7871
   48MOL   C60140175   5.961   1.483   6.195 -0.1847  0.1436  0.2074
   48MOL   C60240176   5.846   1.427   6.118  0.0636 -0.4746  0.5932
   48MOL   C60340177   5.721   1.379   6.196  0.1268 -0.3954 -0.0350
   48MOL   H60440178   6.035   2.141   6.876  0.5979 -0.2702 -0.3711
   48MOL   H60540179   6.199   2.199   6.927 -0.7940 -1.1746  0.4751
   48MOL   H60640180   6.097   2.432   6.943  0.5526 -0.7330  0.9617
   48MOL   H60740181   6.231   2.380   6.772 -1.7706 -0.7758  1.3778
   48MOL   H60840182   6.103   2.463   6.694 -1.4568 -1.5291 -3.4225
   48MOL   H60940183   5.999   2.249   6.633 -1.4412  1.2372  1.1980
   48MOL   H61040184   6.147   2.163   6.682  0.0294  1.1600  1.4973
   48MOL   H61140185   6.273   2.342   6.529  1.9089 -1.8449 -2.2138
   48MOL   H61240186   6.111   2.352   6.467  1.4673  2.9783  1.6479
   48MOL   H61340187   6.296   2.098   6.483  0.7245 -1.6788 -1.5485
   48MOL   H61440188   6.262   2.183   6.333 -1.2368 -3.7207 -0.7826
   48MOL   H61540189   6.064   2.040   6.506 -1.0511 -0.2261 -1.0480
   48MOL   H61640190   6.019   2.106   6.352 -0.0712  1.2889 -0.6254
   48MOL   H61740191   6.193   1.938   6.247  0.3144 -0.6347  0.2744
   48MOL   H61840192   6.193   1.887   6.417 -2.2519 -2.5626  0.3559
   48MOL   H61940193   5.952   1.828   6.413  1.4692  1.5026  1.0557
   48MOL   H62040194   5.956   1.897   6.249 -1.9611 -1.1309  0.5771
   48MOL   H62140195   6.116   1.707   6.212 -0.2207  0.9038  0.0896
   48MOL   H62240196   6.096   1.653   6.381 -1.1324  0.4733  0.9076
   48MOL   H62340197   5.888   1.696   6.167 -0.5124  0.6959  2.0799
   48MOL   H62440198   5.843   1.615   6.313  0.7716 -0.5288  1.3349
   48MOL   H62540199   5.986   1.413   6.274 -0.3657  0.0200  0.1557
   48MOL   H62640200   6.042   1.491   6.123 -0.2387 -1.2951 -0.0262
   48MOL   H62740201   5.817   1.494   6.037  0.8261  1.0158  1.5332
   48MOL   H62840202   5.881   1.339   6.064 -0.0569 -0.4299  0.4437
   48MOL   H62940203   5.687   1.444   6.276  2.0576 -0.0801  0.5509
   48MOL   H63040204   5.750   1.295   6.259 -4.0607 -0.3133  2.1940
   48MOL   H63140205   5.638   1.346   6.133 -0.4928 -0.4039  0.7741
   48MOL   C63240206   5.896   2.373   6.859 -0.2221  0.2777  0.3819
   48MOL   C63340207   5.856   2.520   6.829 -0.0883  0.5493  0.1191
   48MOL   C63440208   5.713   2.512   6.760 -0.0202 -0.1606  0.1628
   48MOL   C63540209   5.609   2.445   6.850  0.1281  0.4385 -0.6651
   48MOL   C63640210   5.488   2.407   6.764  0.0138 -0.2497 -0.0036
   48MOL   C63740211   5.417   2.530   6.712  0.5169  0.0654  1.1583
   48MOL   C63840212   5.277   2.502   6.650 -0.5755 -0.7292  0.4565
   48MOL   C63940213   5.168   2.457   6.746 -0.2129 -0.2000 -0.1248
   48MOL   C64040214   5.048   2.369   6.685 -0.2349 -0.4932 -0.2621
   48MOL   C64140215   4.925   2.364   6.771 -0.3020 -0.1012  0.6067
   48MOL   C64240216   4.945   2.280   6.893 -0.0949  0.1286 -0.9646
   48MOL   C64340217   4.828   2.241   6.986  0.4389  0.0288 -0.4320
   48MOL   C64440218   4.871   2.132   7.090  0.0919 -0.0630 -0.0397
   48MOL   C64540219   4.758   2.093   7.188  0.2921 -0.3950 -0.1550
   48MOL   H64640220   5.848   2.345   6.952 -1.7534  0.2564 -0.4007
   48MOL   H64740221   5.852   2.303   6.788  0.6251 -1.3868  1.4778
   48MOL   H64840222   5.929   2.560   6.759  2.7746  0.9333  3.1835
   48MOL   H64940223   5.686   2.617   6.747  0.1094 -0.0632  0.6516
   48MOL   H65040224   5.714   2.474   6.658  4.2962 -1.4949  0.5773
   48MOL   H65140225   5.566   2.519   6.917 -0.7613  1.6153 -2.4964
   48MOL   H65240226   5.642   2.367   6.918 -1.6957  1.5326  1.5716
   48MOL   H65340227   5.428   2.350   6.834  0.0092  1.2714  1.2615
   48MOL   H65440228   5.522   2.336   6.689  1.6686 -0.2157  0.6656
   48MOL   H65540229   5.415   2.608   6.789 -0.3545 -0.8933  2.1255
   48MOL   H65640230   5.467   2.584   6.632 -0.3340 -0.2279  0.4225
   48MOL   H65740231   5.253   2.600   6.609  1.6062  0.4615  1.9032
   48MOL   H65840232   5.284   2.431   6.568 -1.8728  0.4361 -0.6824
   48MOL   H65940233   5.127   2.540   6.803  0.9564  0.2284  0.1005
   48MOL   H66040234   5.216   2.396   6.823 -0.3107 -0.7112 -0.4611
   48MOL   H66140235   5.094   2.275   6.656 -0.3040  0.0915 -2.3376
   48MOL   H66240236   5.016   2.423   6.596  1.1695  0.2051 -0.3670
   48MOL   H66340237   4.898   2.465   6.803 -0.0058  0.0291  0.4465
   48MOL   H66440238   4.839   2.337   6.709  1.7618 -1.6195 -1.6890
   48MOL   H66540239   4.996   2.190   6.857 -0.5283 -0.7835  0.6885
   48MOL   H66640240   5.025   2.327   6.951 -0.3539 -1.4403  0.7121
   48MOL   H66740241   4.752   2.203   6.918  2.6402 -1.1470 -2.3412
   48MOL   H66840242   4.797   2.333   7.035  0.1819 -0.3008  0.0205
   48MOL   H66940243   4.947   2.179   7.152  0.3388  1.7823 -1.6970
   48MOL   H67040244   4.914   2.044   7.042 -1.1633 -1.0984  0.6945
   48MOL   H67140245   4.702   2.021   7.128 -0.4716  0.4400 -0.4597
   48MOL   H67240246   4.782   2.046   7.284 -0.8754 -0.3415  0.1690
   48MOL   H67340247   4.695   2.178   7.212 -0.0816 -1.1347  1.5337
   48MOL   C67440248   5.875   2.619   6.951 -0.3654  0.2549  0.2331
   48MOL   C67540249   5.857   2.767   6.924  0.2194  0.0826  0.2681
   48MOL   C67640250   5.744   2.824   7.019 -0.0395  0.1320 -0.5204
   48MOL   C67740251   5.702   2.973   7.002  0.2016  0.4161  0.0494
   48MOL   C67840252   5.661   3.013   6.861 -0.4959 -0.0949 -0.2817
   48MOL   C67940253   5.628   3.160   6.855  0.6129  0.3473  0.6736
   48MOL   C68040254   5.625   3.194   6.699 -0.2177  0.4834 -0.7298
   48MOL   C68140255   5.663   3.336   6.672 -0.1651  0.6035  0.2701
   48MOL   C68240256   5.683   3.373   6.530  0.2691 -0.1792  0.3045
   48MOL   C68340257   5.822   3.358   6.472  0.6818 -0.2033 -0.0938
   48MOL   C68440258   5.809   3.431   6.334 -0.3136 -0.0438 -0.5257
   48MOL   C68540259   5.901   3.368   6.230 -0.1812  0.5161 -0.1930
   48MOL   C68640260   5.906   3.451   6.101  0.0713 -0.0612 -0.5350
   48MOL   C68740261   5.997   3.388   5.998 -0.3309  0.7422 -0.0827
   48MOL   H68840262   5.970   2.604   7.002 -0.4319  0.6116  0.4625
   48MOL   H68940263   5.802   2.589   7.026 -1.3033 -2.4151 -1.6836
   48MOL   H69040264   5.815   2.782   6.825  1.4305  1.1534 -0.1069
   48MOL   H69140265   5.657   2.762   6.996  1.6564 -1.8665 -1.7495
   48MOL   H69240266   5.781   2.812   7.121  0.7405  1.3898 -0.6453
   48MOL   H69340267   5.617   2.990   7.069 -1.4917 -0.7120 -1.7545
   48MOL   H69440268   5.786   3.033   7.038  0.6954 -0.4709  0.3852
   48MOL   H69540269   5.746   2.982   6.799  1.3965  0.9803  1.7020
   48MOL   H69640270   5.570   2.960   6.833 -0.6314  0.2448 -0.4838
   48MOL   H69740271   5.528   3.169   6.896  0.6331  0.7187  0.6397
   48MOL   H69840272   5.693   3.224   6.914 -2.0691  2.1024  1.8022
   48MOL   H69940273   5.695   3.126   6.650 -1.7926 -0.9363 -1.0461
   48MOL   H70040274   5.527   3.169   6.660  1.2193 -0.1940 -4.1287
   48MOL   H70140275   5.593   3.406   6.718 -0.5842  0.8226 -0.6815
   48MOL   H70240276   5.759   3.341   6.724 -0.5603  2.5434  0.8344
   48MOL   H70340277   5.607   3.314   6.479  0.2712 -1.3378  1.6112
   48MOL   H70440278   5.650   3.476   6.524  2.4726  0.4047 -2.7314
   48MOL   H70540279   5.836   3.252   6.449  0.1169 -0.2964 -0.0054
   48MOL   H70640280   5.899   3.383   6.545 -0.3337 -3.7867  2.3489
   48MOL   H70740281   5.838   3.534   6.353 -4.0139  0.9984 -0.3395
   48MOL   H70840282   5.708   3.428   6.294 -0.1388 -1.9926 -0.8643
   48MOL   H70940283   5.862   3.271   6.201  1.0537  0.9529 -3.6937
   48MOL   H71040284   6.003   3.367   6.270 -0.2331 -2.1785 -0.0839
   48MOL   H71140285   5.813   3.476   6.050  0.8938  1.1960 -1.4667
   48MOL   H71240286   5.937   3.555   6.116 -1.0329  0.5711 -2.4466
   48MOL   H71340287   6.098   3.377   6.037 -0.6168  0.2246  0.5210
   48MOL   H71440288   5.981   3.289   5.954  1.0510  0.9600 -1.0984
   48MOL   H71540289   5.998   3.449   5.909 -0.8890  0.9157  0.0273
   48MOL   C71640290   5.987   2.850   6.920  0.0388 -0.8216  0.3224
   48MOL   C71740291   6.089   2.832   6.802 -0.4823  0.3171 -0.0905
   48MOL   C71840292   6.033   2.899   6.680 -0.3333  0.1058  0.2848
   48MOL   C71940293   6.077   2.825   6.547 -0.4159  0.4259  0.0627
   48MOL   C72040294   6.036   2.906   6.425  0.0339  0.2619  0.6781
   48MOL   C72140295   6.094   2.836   6.293 -0.6246  0.2749 -0.4720
   48MOL   C72240296   6.046   2.891   6.170  0.2900  0.8564  0.1373
   48MOL   C72340297   6.104   2.832   6.041 -0.2863  0.2211 -0.2320
   48MOL   C72440298   6.020   2.872   5.923  0.3133  0.7113 -0.0664
   48MOL   C72540299   6.091   2.841   5.788 -0.3113  0.5682 -0.1518
   48MOL   C72640300   6.004   2.869   5.670 -0.0949  0.4070  0.6852
   48MOL   C72740301   6.070   2.837   5.534  0.1952  0.0890  0.0581
   48MOL   C72840302   5.965   2.859   5.420 -0.2887  0.1392  0.2981
   48MOL   C72940303   5.952   3.007   5.365 -0.1952  0.1866  0.2672
   48MOL   H73040304   5.960   2.955   6.910  1.2650 -0.4544  0.7612
   48MOL   H73140305   6.043   2.835   7.012 -0.1896 -0.2047  0.5646
   48MOL   H73240306   6.092   2.725   6.780 -1.0022  0.0857  0.9505
   48MOL   H73340307   6.055   3.006   6.676  0.1682  0.0206  0.7317
   48MOL   H73440308   5.924   2.893   6.679 -0.3498  0.2686  0.8732
   48MOL   H73540309   6.186   2.817   6.547 -0.3719  0.8046 -2.0578
   48MOL   H73640310   6.034   2.725   6.546 -0.9443  0.6578 -2.7604
   48MOL   H73740311   5.929   2.918   6.411  0.0447 -0.4688 -0.0533
   48MOL   H73840312   6.085   3.001   6.446 -2.6520  1.7708  0.3427
   48MOL   H73940313   6.202   2.850   6.285 -0.6272 -0.6290 -2.4561
   48MOL   H74040314   6.074   2.729   6.300 -1.4618  0.4595  0.0792
   48MOL   H74140315   5.939   2.870   6.166  0.1803  1.0584  1.8128
   48MOL   H74240316   6.045   3.000   6.172  0.3414  0.8908 -1.0836
   48MOL   H74340317   6.113   2.723   6.038 -0.9658  0.0992  1.7057
   48MOL   H74440318   6.197   2.886   6.023 -0.9749  1.7518  0.7421
   48MOL   H74540319   5.938   2.801   5.921  1.1361 -0.2361 -0.3500
   48MOL   H74640320   5.989   2.976   5.931 -0.9417  0.2654  1.0217
   48MOL   H74740321   6.176   2.909   5.790 -1.0546  1.4839  1.1166
   48MOL   H74840322   6.130   2.740   5.781  1.5203  1.1482  1.2553
   48MOL   H74940323   5.912   2.811   5.673  0.5487 -0.7402 -0.8865
   48MOL   H75040324   5.966   2.971   5.670 -0.5306  0.2524 -0.4786
   48MOL   H75140325   6.160   2.897   5.517 -0.2150  0.7532  0.2412
   48MOL   H75240326   6.097   2.731   5.535  0.8653  0.2584  1.1326
   48MOL   H75340327   5.869   2.812   5.441 -1.0951  1.4527 -0.3649
   48MOL   H75440328   5.988   2.800   5.331 -1.7100  1.4725 -1.0007
   48MOL   H75540329   5.904   3.006   5.267  0.8493  1.1561 -0.2779
   48MOL   H75640330   6.052   3.040   5.338  0.4300 -1.4685  0.5427
   48MOL   H75740331   5.893   3.081   5.420 -1.7879 -0.0425 -1.1055
   48MOL   C75840332   6.227   2.899   6.838 -0.4518 -0.2048 -0.1085
   48MOL   C75940333   6.324   2.819   6.934 -0.1642 -0.0202  0.3904
   48MOL   C76040334   6.412   2.710   6.854  0.5529  0.2103  0.1844
   48MOL   C76140335   6.483   2.608   6.946 -0.0300 -0.6339  0.2270
   48MOL   C76240336   6.533   2.495   6.856  0.2618 -0.0837  1.1648
   48MOL   C76340337   6.604   2.381   6.926 -0.8037 -0.1642  0.3468
   48MOL   C76440338   6.627   2.253   6.841  0.0505 -0.2990  0.3186
   48MOL   C76540339   6.497   2.168   6.819  1.1274 -0.0070  0.3736
   48MOL   C76640340   6.516   2.022   6.791 -0.2702  0.1152  0.1164
   48MOL   C76740341   6.387   1.940   6.756  1.3137  0.1310 -0.0624
   48MOL   C76840342   6.412   1.790   6.723 -0.8898  0.0201 -0.8656
   48MOL   C76940343   6.289   1.713   6.680  0.7291  0.3385  0.2455
   48MOL   C77040344   6.311   1.566   6.665  0.1726 -0.3003  0.5456
   48MOL   C77140345   6.376   1.496   6.785 -0.0254 -0.8323 -0.2078
   48MOL   H77240346   6.279   2.909   6.743 -1.1501  0.9373 -0.3779
   48MOL   H77340347   6.214   3.001   6.874 -0.7239  0.2843 -1.5620
   48MOL   H77440348   6.262   2.766   7.006 -2.6266 -0.4517 -1.9874
   48MOL   H77540349   6.343   2.670   6.779  0.3997  0.7076  0.0551
   48MOL   H77640350   6.489   2.755   6.792  1.4160 -0.6120  0.6519
   48MOL   H77740351   6.568   2.647   7.000  0.3444 -1.1150 -0.0081
   48MOL   H77840352   6.406   2.570   7.014  0.4834  0.4820  1.4475
   48MOL   H77940353   6.598   2.542   6.781 -2.1391 -1.5719 -1.9532
   48MOL   H78040354   6.453   2.455   6.793  0.5343 -0.8707  1.3134
   48MOL   H78140355   6.555   2.361   7.021  0.0509 -3.1627  0.1981
   48MOL   H78240356   6.705   2.409   6.956 -0.9129 -0.0507  0.6024
   48MOL   H78340357   6.663   2.268   6.739  0.7442  0.1078  0.6214
   48MOL   H78440358   6.709   2.197   6.887 -0.7731 -1.3939  0.4757
   48MOL   H78540359   6.439   2.216   6.740 -1.6972  0.2358  2.5409
   48MOL   H78640360   6.424   2.164   6.900 -0.6519 -1.0619 -1.2262
   48MOL   H78740361   6.570   1.977   6.874 -0.4154  0.9032  0.6404
   48MOL   H78840362   6.592   2.013   6.713  0.8133  2.4379  0.8736
   48MOL   H78940363   6.341   1.987   6.669  0.9862 -0.6485 -0.3227
   48MOL   H79040364   6.314   1.953   6.835  0.4357 -0.0032 -0.8449
   48MOL   H79140365   6.485   1.795   6.641  0.1036  0.2111  0.0258
   48MOL   H79240366   6.460   1.742   6.808 -1.0626  0.7504 -0.3499
   48MOL   H79340367   6.214   1.727   6.758  0.9506  0.3227  0.4634
   48MOL   H79440368   6.247   1.752   6.588  2.2680  1.6982  0.0834
   48MOL   H79540369   6.213   1.521   6.647 -0.2565 -0.2141  2.5153
   48MOL   H79640370   6.370   1.544   6.576  0.0255  0.1746  0.3304
   48MOL   H79740371   6.353   1.390   6.788  2.0572 -1.2725  0.9700
   48MOL   H79840372   6.485   1.505   6.783 -0.2998  3.7661 -0.8511
   48MOL   H79940373   6.340   1.539   6.879 -2.2659 -0.0191 -1.3967
   48MOL   C80040374   6.421   2.909   7.012 -0.2553 -0.4175  0.8395
   48MOL   C80140375   6.519   2.992   6.929  0.4122  0.1405  0.1920
   48MOL   C80240376   6.616   3.076   7.023  0.4138  0.0718  0.5853
   48MOL   C80340377   6.549   3.205   7.080 -0.3959 -0.9438 -0.0191
   48MOL   C80440378   6.633   3.251   7.201  0.0897 -0.3545 -0.3939
   48MOL   C80540379   6.574   3.369   7.286  0.2242 -0.1849 -0.3856
   48MOL   C80640380   6.658   3.391   7.411 -0.1061  0.8153 -0.5022
   48MOL   C80740381   6.611   3.502   7.506  0.4143  0.0368 -0.1043
   48MOL   C80840382   6.497   3.466   7.591 -0.2818 -0.2088 -1.1200
   48MOL   C80940383   6.466   3.572   0.002 -0.7824 -0.3684 -0.2306
   48MOL   C81040384   6.568   3.551   0.123 -0.1049 -0.3416 -0.4432
   48MOL   C81140385   6.570   3.678   0.207  0.2307 -0.1425  0.2698
   48MOL   C81240386   6.673   3.666   0.321 -0.6820 -0.1488  0.0564
   48MOL   C81340387   6.692   3.788   0.409 -0.3943  0.2577 -0.2838
   48MOL   H81440388   6.464   2.851   7.093 -0.6641  0.6568  1.8508
   48MOL   H81540389   6.353   2.970   7.072 -0.0984  0.4417  0.1707
   48MOL   H81640390   6.479   3.052   6.848  0.4105 -1.2620 -0.8699
   48MOL   H81740391   6.705   3.106   6.968  0.5938 -2.0558 -0.3510
   48MOL   H81840392   6.663   3.019   7.103  0.0631 -0.0784  0.6850
   48MOL   H81940393   6.460   3.176   7.135  0.1824  0.1854  1.5529
   48MOL   H82040394   6.533   3.287   7.010  2.2591 -0.8782 -0.6250
   48MOL   H82140395   6.647   3.163   7.264 -2.2243 -0.1441  0.4772
   48MOL   H82240396   6.726   3.292   7.160  0.9918 -0.4980  1.4288
   48MOL   H82340397   6.475   3.330   7.310  0.4354 -0.2779  0.3744
   48MOL   H82440398   6.562   3.456   7.222 -2.0617  0.4972  0.9025
   48MOL   H82540399   6.652   3.295   7.461  0.1143  0.4173 -1.2242
   48MOL   H82640400   6.764   3.402   7.386  0.4159 -0.2784  1.1229
   48MOL   H82740401   6.703   3.529   7.558  0.5147 -0.8630  0.1966
   48MOL   H82840402   6.580   3.591   7.450 -1.2149 -1.5691 -1.8424
   48MOL   H82940403   6.408   3.461   7.529 -1.1456 -0.0699  0.0867
   48MOL   H83040404   6.514   3.367   7.634  0.4043  0.3424 -0.1085
   48MOL   H83140405   6.364   3.571   0.038 -0.4582  1.7574  0.8195
   48MOL   H83240406   6.474   3.672   7.657  2.4064 -0.6418 -0.4319
   48MOL   H83340407   6.546   3.459   0.177 -1.3074  0.2663  0.1427
   48MOL   H83440408   6.666   3.549   0.075  0.0532  1.1229 -0.2207
   48MOL   H83540409   6.466   3.705   0.227 -0.0571 -1.0198 -0.0199
   48MOL   H83640410   6.604   3.755   0.137 -0.8325 -0.7038 -0.8696
   48MOL   H83740411   6.636   3.591   0.391 -0.7678  0.5029  0.7127
   48MOL   H83840412   6.767   3.636   0.274 -0.8790 -0.7935  0.0733
   48MOL   H83940413   6.705   3.876   0.347  1.3124  1.6303  1.9460
   48MOL   H84040414   6.598   3.811   0.460  0.4022  1.7926  0.5287
   48MOL   H84140415   6.772   3.778   0.483 -0.1688  0.5722 -0.4824
   48MOL   H84240416   6.583   2.926   6.870 -0.6628 -1.9948  1.3538
   49MOL     C140417   4.462   5.245   1.982 -0.0429 -0.4509 -0.3509
   49MOL     C240418   4.373   5.183   2.095 -0.3331  0.5005 -0.6590
   49MOL     C340419   4.313   5.049   2.044 -0.2333  0.1896  0.3322
   49MOL     C440420   4.226   4.981   2.144 -0.3640 -0.1821  0.0711
   49MOL     C540421   4.119   4.892   2.064  0.3772 -0.2490 -0.4104
   49MOL     C640422   4.028   4.818   2.168 -0.2847 -0.1247  0.2627
   49MOL     C740423   3.962   4.696   2.104 -0.8684  0.7646 -0.2300
   49MOL     C840424   3.885   4.606   2.207 -0.0470 -0.9674  0.5855
   49MOL     C940425   3.852   4.463   2.168  0.0028 -0.5224 -0.0154
   49MOL    C1040426   3.755   4.405   2.273  0.1021  0.1251  0.1968
   49MOL    C1140427   3.723   4.260   2.233  0.3880 -0.1166  0.1774
   49MOL    C1240428   3.634   4.194   2.345 -0.4176  1.0032 -0.4900
   49MOL    C1340429   3.602   4.048   2.331 -0.5601 -0.2457  0.3479
   49MOL    C1440430   3.544   4.009   2.189 -0.2645 -0.5013 -0.1772
   49MOL    H1540431   4.540   5.170   1.969 -0.0157 -0.8427  1.9479
   49MOL    H1640432   4.506   5.340   2.012 -0.5914 -0.2135 -0.2853
   49MOL    H1740433   4.293   5.251   2.122  0.3729  1.0917 -0.0384
   49MOL    H1840434   4.257   5.065   1.952 -1.7542  2.2532  1.5480
   49MOL    H1940435   4.385   4.970   2.025 -1.7623 -1.8817  2.7776
   49MOL    H2040436   4.173   5.053   2.206 -0.9357 -0.2917 -0.2856
   49MOL    H2140437   4.280   4.920   2.216  1.2137 -0.1520 -1.0737
   49MOL    H2240438   4.171   4.813   2.011  1.2763  2.0133 -3.0001
   49MOL    H2340439   4.064   4.949   1.989 -2.3214 -0.8130  1.0796
   49MOL    H2440440   3.950   4.884   2.208 -0.3502 -2.2343  3.8001
   49MOL    H2540441   4.087   4.790   2.255 -2.9520  1.1191  2.5496
   49MOL    H2640442   3.901   4.730   2.021 -2.8844 -1.4679  0.2692
   49MOL    H2740443   4.042   4.626   2.077  0.8119  2.0715  1.2336
   49MOL    H2840444   3.793   4.657   2.234  0.9771  1.3165 -0.0437
   49MOL    H2940445   3.941   4.607   2.300  1.8936  3.5265 -0.4871
   49MOL    H3040446   3.809   4.484   2.070  1.0405 -0.2515 -0.4236
   49MOL    H3140447   3.936   4.398   2.145 -1.9310 -2.7132 -1.0711
   49MOL    H3240448   3.793   4.414   2.375 -0.6028  0.6185  0.4181
   49MOL    H3340449   3.661   4.458   2.290 -0.2558  0.0896 -1.5803
   49MOL    H3440450   3.653   4.271   2.151 -0.2268 -2.0368  0.4112
   49MOL    H3540451   3.816   4.205   2.217  0.7935  0.5844  0.0844
   49MOL    H3640452   3.539   4.246   2.349 -1.0902  0.3194 -5.0100
   49MOL    H3740453   3.678   4.210   2.443  2.7903 -2.6347 -1.1829
   49MOL    H3840454   3.693   3.992   2.352  0.9930  1.5279 -1.5036
   49MOL    H3940455   3.535   4.008   2.407  0.7224 -0.1973  1.5136
   49MOL    H4040456   3.627   4.029   2.122 -0.5858 -1.2837 -0.8242
   49MOL    H4140457   3.504   3.907   2.189  0.8904 -0.9726  0.1101
   49MOL    H4240458   3.467   4.078   2.158  0.6038  0.8393  0.5995
   49MOL    H4340459   4.419   5.279   1.887  1.0003  0.7478 -0.4113
   49MOL    C4440460   4.470   5.161   2.212 -0.4302 -0.1368  0.1794
   49MOL    C4540461   4.464   5.279   2.319  0.6092 -0.1014 -0.2737
   49MOL    C4640462   4.589   5.282   2.409 -0.8500 -0.2212 -0.6215
   49MOL    C4740463   4.610   5.163   2.504  0.2704  0.3873  0.3208
   49MOL    C4840464   4.751   5.144   2.570  0.2122  0.1395  0.8750
   49MOL    C4940465   4.751   5.038   2.677 -0.0006 -0.5696  0.3211
   49MOL    C5040466   4.722   5.097   2.818  0.1130  0.0762 -0.0795
   49MOL    C5140467   4.835   5.171   2.902  0.2392  0.0582 -0.5395
   49MOL    C5240468   4.803   5.170   3.049 -0.6060 -0.0475 -0.5502
   49MOL    C5340469   4.903   5.251   3.129 -0.1299 -0.9803 -0.0313
   49MOL    C5440470   4.851   5.313   3.260 -0.7219  0.3227 -0.9559
   49MOL    C5540471   4.961   5.319   3.364 -0.3657 -0.6579 -0.1261
   49MOL    C5640472   4.958   5.215   3.466 -0.2126  0.1111  0.2586
   49MOL    C5740473   5.035   5.084   3.428  0.3754 -1.0229 -0.2036
   49MOL    H5840474   4.464   5.064   2.260  0.0712 -0.0060  0.5083
   49MOL    H5940475   4.571   5.160   2.171 -0.2562  2.1332  0.4511
   49MOL    H6040476   4.458   5.378   2.274 -0.5720 -0.1303 -0.1861
   49MOL    H6140477   4.671   5.279   2.337  1.8489 -0.7337  2.3314
   49MOL    H6240478   4.594   5.372   2.471  0.8903 -0.6843 -0.0510
   49MOL    H6340479   4.606   5.069   2.450  0.9581  0.8818 -0.6149
   49MOL    H6440480   4.537   5.153   2.584  0.2203 -1.2588  0.0734
   49MOL    H6540481   4.794   5.237   2.605 -0.2776  0.2141  1.2761
   49MOL    H6640482   4.816   5.101   2.494  0.8482  0.7520  1.0786
   49MOL    H6740483   4.689   4.953   2.653 -1.5340  0.9498 -1.2358
   49MOL    H6840484   4.852   4.997   2.669  0.1703 -0.1937  0.4969
   49MOL    H6940485   4.634   5.162   2.813  1.4532  1.9017 -0.5010
   49MOL    H7040486   4.703   5.003   2.869  3.0335 -0.0318  0.8858
   49MOL    H7140487   4.835   5.274   2.868  0.3990  0.3357  0.2777
   49MOL    H7240488   4.934   5.126   2.900  1.4454  2.5767  0.7025
   49MOL    H7340489   4.704   5.213   3.064  0.0783  1.2001  0.4973
   49MOL    H7440490   4.803   5.069   3.090  0.6077  1.5229  3.5877
   49MOL    H7540491   4.962   5.324   3.075 -1.4066 -0.7708 -1.1818
   49MOL    H7640492   4.973   5.170   3.152  2.6292  0.3201 -3.4513
   49MOL    H7740493   4.771   5.244   3.290 -0.3912 -0.3536 -1.6255
   49MOL    H7840494   4.811   5.413   3.242 -0.1679  1.1892  2.3334
   49MOL    H7940495   5.064   5.340   3.333 -0.5253 -2.3598 -1.9571
   49MOL    H8040496   4.940   5.404   3.428 -1.6633 -1.9347  1.1639
   49MOL    H8140497   4.860   5.196   3.509 -0.9369  1.6512 -0.6911
   49MOL    H8240498   5.016   5.249   3.552  0.4653  0.6789 -0.4172
   49MOL    H8340499   5.140   5.102   3.408 -0.3694  1.6260 -1.9709
   49MOL    H8440500   4.991   5.020   3.352 -1.2983  0.2689 -0.3625
   49MOL    H8540501   5.034   5.013   3.511 -2.7988 -1.5603 -0.6361
   49MOL    C8640502   4.332   5.270   2.394 -0.3013 -0.0401 -0.4958
   49MOL    C8740503   4.280   5.391   2.474 -0.3727 -0.3128  0.1050
   49MOL    C8840504   4.178   5.342   2.572 -1.0005  0.3908  0.1889
   49MOL    C8940505   4.232   5.347   2.722 -0.3044  0.1284  0.0523
   49MOL    C9040506   4.135   5.302   2.830  0.8697 -0.3515  0.4846
   49MOL    C9140507   3.994   5.362   2.812 -0.1704  0.7346  0.2934
   49MOL    C9240508   3.896   5.311   2.923  0.5905  0.7751 -0.2856
   49MOL    C9340509   3.918   5.385   3.062 -0.2953 -0.4874 -0.4438
   49MOL    C9440510   3.824   5.336   3.176  0.6582 -0.2803 -0.8298
   49MOL    C9540511   3.758   5.443   3.259  0.1031  0.3081  0.1012
   49MOL    C9640512   3.640   5.395   3.357  0.1081 -0.1828  0.2803
   49MOL    C9740513   3.693   5.327   3.479 -0.3958 -0.3179  0.1573
   49MOL    C9840514   3.585   5.261   3.558  0.4943 -0.3454 -0.7407
   49MOL    C9940515   3.645   5.182   3.673  0.1250 -0.3965 -0.3876
   49MOL   H10040516   4.254   5.245   2.322 -0.5349 -0.4381 -0.1018
   49MOL   H10140517   4.338   5.173   2.443  0.4644 -1.1245 -2.6594
   49MOL   H10240518   4.361   5.433   2.534 -0.1635  0.0778 -0.4510
   49MOL   H10340519   4.096   5.411   2.553 -1.2434  0.0211 -0.1237
   49MOL   H10440520   4.130   5.245   2.553  0.2956 -0.3207  0.4801
   49MOL   H10540521   4.333   5.313   2.742 -0.1986  1.3308  1.6599
   49MOL   H10640522   4.246   5.453   2.746  0.9438 -0.0905  0.2947
   49MOL   H10740523   4.170   5.317   2.932  0.8885 -1.8409  0.7094
   49MOL   H10840524   4.121   5.194   2.823 -1.5500  0.0601 -1.6341
   49MOL   H10940525   3.952   5.337   2.715 -1.8615  0.6765  1.0143
   49MOL   H11040526   4.010   5.469   2.804  2.2915  0.3533 -0.2664
   49MOL   H11140527   3.792   5.325   2.895 -0.0228  0.4426  1.7466
   49MOL   H11240528   3.907   5.204   2.943  0.6365  0.3654 -2.4031
   49MOL   H11340529   3.901   5.491   3.041  0.4081 -0.2385  0.2346
   49MOL   H11440530   4.021   5.369   3.092 -0.8611 -2.1704  0.6866
   49MOL   H11540531   3.745   5.277   3.128  0.8469 -0.0706 -1.4080
   49MOL   H11640532   3.880   5.263   3.235  0.8753  0.6109  0.0624
   49MOL   H11740533   3.706   5.504   3.185  1.2733  0.8998 -0.2428
   49MOL   H11840534   3.828   5.511   3.307  0.6022  1.5880 -2.3537
   49MOL   H11940535   3.573   5.479   3.373 -2.4387 -2.2081  0.4981
   49MOL   H12040536   3.580   5.326   3.298  1.5681 -1.2634  0.0188
   49MOL   H12140537   3.771   5.258   3.447 -1.4324 -0.4731 -2.0949
   49MOL   H12240538   3.751   5.397   3.539 -1.2748  0.7417 -0.2244
   49MOL   H12340539   3.533   5.195   3.488 -0.7364  1.1830 -1.3113
   49MOL   H12440540   3.500   5.322   3.590 -0.0433 -1.0175 -0.8778
   49MOL   H12540541   3.561   5.172   3.741  1.1583  1.3736  1.1756
   49MOL   H12640542   3.708   5.095   3.653  1.0768  0.8470 -3.2184
   49MOL   H12740543   3.715   5.239   3.734 -1.3398  0.4813  0.4789
   49MOL   C12840544   4.226   5.502   2.381  0.1033 -0.5630  0.0476
   49MOL   C12940545   4.171   5.627   2.436  0.4650 -0.0543  0.2837
   49MOL   C13040546   4.280   5.710   2.506  0.1801  0.3644  0.6773
   49MOL   C13140547   4.377   5.774   2.411 -0.4715 -0.0450  0.1337
   49MOL   C13240548   4.482   5.867   2.483  0.2368  0.0077  0.3130
   49MOL   C13340549   4.585   5.930   2.383  0.4295 -0.5641  0.1391
   49MOL   C13440550   4.524   6.027   2.276  0.4045  0.1814 -0.4180
   49MOL   C13540551   4.628   6.095   2.189 -0.1584  0.7043 -0.5433
   49MOL   C13640552   4.581   6.220   2.108  0.3221  0.4501  0.1039
   49MOL   C13740553   4.464   6.193   2.005  0.4436 -0.1486  0.1818
   49MOL   C13840554   4.449   6.302   1.895 -0.4258  0.1608 -0.8062
   49MOL   C13940555   4.340   6.278   1.787 -0.4757 -0.0292  0.6210
   49MOL   C14040556   4.375   6.169   1.681 -0.5973 -0.2341 -0.2812
   49MOL   C14140557   4.280   6.164   1.566  0.6329 -0.2117  0.2308
   49MOL   H14240558   4.300   5.527   2.304 -1.7796  0.0170 -1.6117
   49MOL   H14340559   4.158   5.450   2.313 -0.4704 -0.6562  0.6976
   49MOL   H14440560   4.099   5.609   2.515 -0.9607  1.8991 -0.5310
   49MOL   H14540561   4.232   5.794   2.557 -0.3583  0.5290 -0.1053
   49MOL   H14640562   4.331   5.645   2.577 -0.7693 -0.8341  0.2638
   49MOL   H14740563   4.418   5.690   2.356  0.5178  0.3215  0.3045
   49MOL   H14840564   4.322   5.827   2.332 -0.5590  0.9177  0.8240
   49MOL   H14940565   4.425   5.944   2.535 -0.7411 -0.8022  0.4351
   49MOL   H15040566   4.539   5.816   2.562 -0.3942  1.6679  1.8895
   49MOL   H15140567   4.660   5.987   2.439  1.1466  0.1744 -1.5245
   49MOL   H15240568   4.644   5.854   2.331  1.9209 -1.3767  2.9367
   49MOL   H15340569   4.453   5.972   2.215 -0.2030  0.0040  0.4405
   49MOL   H15440570   4.455   6.098   2.322 -0.7885  0.6850 -2.8805
   49MOL   H15540571   4.710   6.124   2.255  0.2580 -0.4968 -0.5251
   49MOL   H15640572   4.663   6.024   2.114  0.6269  1.9380 -1.3688
   49MOL   H15740573   4.562   6.305   2.173  2.4734  3.5396 -3.0947
   49MOL   H15840574   4.673   6.260   2.064 -0.2508  1.4269 -0.2114
   49MOL   H15940575   4.368   6.191   2.055  0.1381 -0.0088 -0.3946
   49MOL   H16040576   4.473   6.096   1.955  0.5064  0.8113 -1.7003
   49MOL   H16140577   4.435   6.395   1.950  1.9102  0.2280 -0.2506
   49MOL   H16240578   4.544   6.339   1.856  0.1689 -1.1148 -0.5980
   49MOL   H16340579   4.242   6.260   1.830 -0.7557 -1.0976 -0.4377
   49MOL   H16440580   4.341   6.374   1.736 -1.9063  0.5760  1.6970
   49MOL   H16540581   4.478   6.185   1.649 -0.6005  2.9296  1.1735
   49MOL   H16640582   4.386   6.070   1.726  2.5463  0.1094 -0.1748
   49MOL   H16740583   4.174   6.140   1.574  0.9452 -1.2284  1.4766
   49MOL   H16840584   4.278   6.268   1.531  0.3188 -0.5663 -0.8159
   49MOL   H16940585   4.329   6.106   1.488  0.1649 -1.0217  0.5456
   49MOL   C17040586   4.091   5.710   2.330  0.1623 -0.4624  0.0949
   49MOL   C17140587   3.951   5.661   2.292  0.4443  0.0439  0.5951
   49MOL   C17240588   3.855   5.694   2.415 -0.6054  0.0476  0.2896
   49MOL   C17340589   3.733   5.607   2.426  0.7062 -0.0927  0.4124
   49MOL   C17440590   3.740   5.483   2.512  0.0959 -0.2611  0.2785
   49MOL   C17540591   3.597   5.420   2.533  0.4722  0.2267  1.0085
   49MOL   C17640592   3.609   5.293   2.619 -1.0002  0.3757  0.1044
   49MOL   C17740593   3.488   5.203   2.610 -0.4103  0.4186  0.3569
   49MOL   C17840594   3.508   5.084   2.706  0.6554  0.5562  0.4435
   49MOL   C17940595   3.397   4.978   2.710 -0.5198  0.0842  0.2040
   49MOL   C18040596   3.393   4.890   2.580  0.6886  0.0621 -0.4760
   49MOL   C18140597   3.270   4.800   2.581 -0.0222  0.1171  0.4579
   49MOL   C18240598   3.311   4.652   2.619 -0.0227 -0.3454 -0.1146
   49MOL   C18340599   3.191   4.559   2.588 -0.0447 -0.6088 -0.0198
   49MOL   H18440600   4.155   5.705   2.242  0.2977  2.0833  0.0133
   49MOL   H18540601   4.090   5.815   2.360  0.6689 -0.4280 -0.0066
   49MOL   H18640602   3.964   5.553   2.283 -0.5493 -0.1626  1.5707
   49MOL   H18740603   3.913   5.689   2.507  0.5631  2.8222 -0.2423
   49MOL   H18840604   3.840   5.801   2.401  0.8009 -0.0845 -2.7184
   49MOL   H18940605   3.655   5.673   2.465 -1.3284 -1.7762 -0.7490
   49MOL   H19040606   3.695   5.583   2.327  0.3951  0.3569  0.4212
   49MOL   H19140607   3.811   5.411   2.470 -0.1549 -0.0502 -0.5180
   49MOL   H19240608   3.790   5.507   2.606 -1.4471 -1.5986  1.4792
   49MOL   H19340609   3.533   5.400   2.448  3.2855  2.7027 -1.8401
   49MOL   H19440610   3.535   5.488   2.591 -1.4415  1.4294 -2.2883
   49MOL   H19540611   3.641   5.331   2.716 -1.1141  0.4614  0.1089
   49MOL   H19640612   3.693   5.236   2.579 -0.9977  0.7086 -0.3662
   49MOL   H19740613   3.475   5.168   2.508  0.8647  0.4513  0.1662
   49MOL   H19840614   3.402   5.263   2.641 -0.2419  1.0421 -0.3619
   49MOL   H19940615   3.508   5.137   2.801 -1.9900 -0.5779  1.1164
   49MOL   H20040616   3.608   5.039   2.708  0.4515  0.1400  3.0091
   49MOL   H20140617   3.306   5.038   2.707 -0.8890 -0.4836  0.0277
   49MOL   H20240618   3.405   4.913   2.797 -1.8922 -0.0101  0.2749
   49MOL   H20340619   3.488   4.839   2.562  0.2637 -0.9924  0.2354
   49MOL   H20440620   3.403   4.956   2.494  1.3156 -0.6832 -0.9849
   49MOL   H20540621   3.187   4.834   2.643  1.3165  0.9131  1.8186
   49MOL   H20640622   3.231   4.812   2.480 -2.3691 -0.1620  1.2969
   49MOL   H20740623   3.398   4.639   2.556  0.3095 -0.2684  0.3250
   49MOL   H20840624   3.352   4.644   2.720  0.7073 -0.2164 -0.3990
   49MOL   H20940625   3.210   4.455   2.613 -2.9684 -1.2543 -0.2389
   49MOL   H21040626   3.171   4.552   2.482 -1.1377 -0.8309  0.1916
   49MOL   H21140627   3.100   4.598   2.635 -0.2868  0.1385 -1.1021
   49MOL   C21240628   3.902   5.716   2.159 -0.2421  0.3825  0.2524
   49MOL   C21340629   3.954   5.655   2.027 -0.2594  0.7513  0.8548
   49MOL   C21440630   3.882   5.516   2.003  0.2956 -0.0787 -0.7518
   49MOL   C21540631   3.962   5.410   1.931 -0.2642 -0.7797  0.1881
   49MOL   C21640632   3.879   5.300   1.871 -0.0535  0.4003 -0.9485
   49MOL   C21740633   3.967   5.180   1.837 -0.0505  0.7877 -0.6002
   49MOL   C21840634   3.903   5.060   1.776 -0.4639  0.2782  0.3148
   49MOL   C21940635   3.800   4.989   1.869  0.6054 -0.5322 -0.1196
   49MOL   C22040636   3.756   4.858   1.804 -0.2808  0.2854 -0.5918
   49MOL   C22140637   3.635   4.864   1.707  0.3783  0.3411 -0.4523
   49MOL   C22240638   3.593   4.715   1.674  0.0090 -0.4397 -0.2849
   49MOL   C22340639   3.467   4.705   1.580 -0.1809 -0.2238  0.2091
   49MOL   C22440640   3.424   4.559   1.560 -0.2255 -0.9930 -0.7734
   49MOL   C22540641   3.306   4.536   1.470  0.0332  0.2807  1.3346
   49MOL   H22640642   3.913   5.825   2.162  2.2601  0.1693 -0.0526
   49MOL   H22740643   3.796   5.694   2.157 -0.5645  1.1471  4.9307
   49MOL   H22840644   4.061   5.636   2.029  0.0043  2.1360  0.0871
   49MOL   H22940645   3.854   5.471   2.098  1.7419 -2.4367 -1.4005
   49MOL   H23040646   3.785   5.535   1.957  0.3137  1.1195 -0.3246
   49MOL   H23140647   4.017   5.352   2.005  0.7606 -1.6558 -1.2389
   49MOL   H23240648   4.027   5.447   1.852 -0.2327 -1.6283 -0.1879
   49MOL   H23340649   3.835   5.325   1.775 -0.9604 -1.8481 -1.1594
   49MOL   H23440650   3.793   5.273   1.931 -0.1031 -0.5468 -1.4256
   49MOL   H23540651   4.020   5.147   1.927  0.9231  1.3544 -0.9615
   49MOL   H23640652   4.045   5.211   1.768 -0.2508 -1.1547 -1.7342
   49MOL   H23740653   3.865   5.079   1.676  0.2329 -0.3953 -0.0847
   49MOL   H23840654   3.991   4.996   1.776 -0.3814  0.3857 -0.2257
   49MOL   H23940655   3.842   4.962   1.966  1.8846  0.7955 -0.2905
   49MOL   H24040656   3.715   5.048   1.904 -0.0932  0.1879 -2.8835
   49MOL   H24140657   3.718   4.783   1.873 -0.5943  0.9279 -0.0610
   49MOL   H24240658   3.835   4.796   1.761  1.3490  2.0693 -0.2524
   49MOL   H24340659   3.551   4.914   1.754  0.4207  0.5291 -0.5762
   49MOL   H24440660   3.672   4.914   1.618 -1.3154  0.3351 -1.1703
   49MOL   H24540661   3.574   4.676   1.774  0.3114 -0.4568 -0.2363
   49MOL   H24640662   3.679   4.668   1.627 -0.3914 -0.3014 -1.1560
   49MOL   H24740663   3.497   4.756   1.488 -0.7587 -0.4220 -0.0877
   49MOL   H24840664   3.388   4.767   1.621  0.4444  2.2235 -2.1148
   49MOL   H24940665   3.404   4.523   1.661  1.4166 -0.4167 -0.2174
   49MOL   H25040666   3.507   4.499   1.524 -0.1065 -1.5408  0.4038
   49MOL   H25140667   3.225   4.592   1.516  1.4984  1.6165  2.3624
   49MOL   H25240668   3.313   4.580   1.371  1.2370  0.9048  1.6789
   49MOL   H25340669   3.288   4.429   1.458  0.2807  0.4060 -0.2777
   49MOL   C25440670   3.931   5.743   1.901 -0.7028 -0.6384 -0.5853
   49MOL   C25540671   3.979   5.890   1.894 -0.5798 -0.3720 -0.0694
   49MOL   C25640672   4.132   5.903   1.936  0.2369  0.3212 -0.1363
   49MOL   C25740673   4.158   5.979   2.064 -0.9366 -0.0793  0.0219
   49MOL   C25840674   4.090   6.116   2.077 -0.1857 -0.2117 -0.5924
   49MOL   C25940675   4.114   6.182   2.210 -0.1390 -0.1777 -0.2249
   49MOL   C26040676   4.102   6.328   2.205  0.3456  0.6309 -0.2434
   49MOL   C26140677   4.167   6.401   2.324  0.5133  0.1378  0.5950
   49MOL   C26240678   4.295   6.483   2.282 -0.2204  0.2387  0.4006
   49MOL   C26340679   4.377   6.523   2.408  0.6807 -0.6473 -0.1066
   49MOL   C26440680   4.480   6.428   2.465  0.5183  0.5373 -0.2951
   49MOL   C26540681   4.527   6.492   2.595  0.0054  1.2284 -0.3751
   49MOL   C26640682   4.645   6.423   2.662 -0.4568 -0.3860 -0.3704
   49MOL   C26740683   4.692   6.498   2.788 -0.1260  0.2661  0.6214
   49MOL   H26840684   3.824   5.747   1.881 -0.5483  1.4654 -1.1124
   49MOL   H26940685   3.982   5.687   1.824 -0.2111 -1.8044  0.5688
   49MOL   H27040686   3.924   5.953   1.964  1.8350 -0.3843  1.9052
   49MOL   H27140687   4.180   5.968   1.862  0.4939 -2.7021 -2.7151
   49MOL   H27240688   4.196   5.815   1.939 -0.9341 -0.5096  5.0829
   49MOL   H27340689   4.263   5.998   2.083 -0.5410 -1.2873 -0.8953
   49MOL   H27440690   4.127   5.913   2.145  2.1980  0.9952  2.1764
   49MOL   H27540691   3.985   6.123   2.047 -0.7246  0.3350  1.3886
   49MOL   H27640692   4.145   6.176   2.004  1.2594 -1.7941 -0.8362
   49MOL   H27740693   4.210   6.147   2.248 -0.3915 -1.4395 -0.6946
   49MOL   H27840694   4.043   6.147   2.285 -0.1944  0.0007 -0.1944
   49MOL   H27940695   4.152   6.367   2.116  2.5345 -2.6962 -0.5728
   49MOL   H28040696   3.998   6.355   2.221 -0.2168 -0.6208 -1.7364
   49MOL   H28140697   4.199   6.326   2.396 -0.1869 -0.7721 -0.0246
   49MOL   H28240698   4.099   6.469   2.375 -1.3540 -0.8602 -0.5426
   49MOL   H28340699   4.347   6.423   2.209 -0.7859  1.1588 -0.7760
   49MOL   H28440700   4.270   6.570   2.221 -0.0262  0.8939  1.2327
   49MOL   H28540701   4.303   6.559   2.480  0.3514 -1.0696 -0.2283
   49MOL   H28640702   4.429   6.611   2.372  1.1008 -0.6821  0.4230
   49MOL   H28740703   4.559   6.405   2.394  0.8870  2.7151 -0.6187
   49MOL   H28840704   4.436   6.335   2.502  2.4762 -0.6775 -0.9737
   49MOL   H28940705   4.559   6.591   2.562 -0.1055  1.8821  1.4180
   49MOL   H29040706   4.444   6.514   2.663  1.4185  2.9654  0.8518
   49MOL   H29140707   4.621   6.318   2.674 -2.2903 -0.1056 -1.5011
   49MOL   H29240708   4.732   6.420   2.596 -0.3405  0.6552 -0.2764
   49MOL   H29340709   4.780   6.459   2.840  0.6318  1.2571  0.0906
   49MOL   H29440710   4.612   6.498   2.862  0.5098 -0.6730  1.3339
   49MOL   H29540711   4.707   6.602   2.760  0.8020  0.2475  1.0125
   49MOL   C29640712   3.959   5.961   1.757  0.7454 -0.5098  0.6425
   49MOL   C29740713   3.818   5.990   1.707  0.1289 -0.0350  0.5002
   49MOL   C29840714   3.721   6.069   1.809 -0.7882 -0.1521  0.5010
   49MOL   C29940715   3.751   6.212   1.828  0.5920 -0.2232  0.3523
   49MOL   C30040716   3.677   6.268   1.950  0.0645 -0.0461 -0.1000
   49MOL   C30140717   3.757   6.373   2.032  0.3316  0.1197  0.6271
   49MOL   C30240718   3.680   6.432   2.155 -0.8694 -0.1590  0.2140
   49MOL   C30340719   3.618   6.327   2.252 -0.0380 -0.3913  0.4339
   49MOL   C30440720   3.567   6.392   2.381 -0.3791 -0.0309  0.5667
   49MOL   C30540721   3.682   6.441   2.467 -0.7162 -0.0873 -0.1789
   49MOL   C30640722   3.724   6.328   2.568 -0.1633  1.1028 -0.3455
   49MOL   C30740723   3.828   6.230   2.516  0.4813 -0.3706  0.2143
   49MOL   C30840724   3.875   6.122   2.619  0.1044 -0.1895  0.0608
   49MOL   C30940725   4.001   6.050   2.564 -0.5752  0.2336  0.5829
   49MOL   H31040726   4.002   5.900   1.678  1.2152  0.7988 -0.1288
   49MOL   H31140727   3.993   6.064   1.754 -0.0532 -0.2727 -1.0652
   49MOL   H31240728   3.774   5.891   1.698 -1.6591  0.8231 -0.5301
   49MOL   H31340729   3.727   6.025   1.909  0.9365  0.9420  0.9015
   49MOL   H31440730   3.619   6.048   1.778 -1.1550  0.5468  1.2177
   49MOL   H31540731   3.734   6.272   1.739 -1.2874  1.1933  1.6385
   49MOL   H31640732   3.856   6.220   1.858  1.2632 -1.4492 -1.5644
   49MOL   H31740733   3.585   6.318   1.919 -0.8781 -0.4395  1.9533
   49MOL   H31840734   3.639   6.189   2.015 -2.7228  1.4685  0.1732
   49MOL   H31940735   3.787   6.456   1.968  1.6590 -1.2662 -0.5662
   49MOL   H32040736   3.855   6.344   2.069  0.4294  0.9428  1.0181
   49MOL   H32140737   3.758   6.485   2.208 -1.3249 -1.3470  2.1221
   49MOL   H32240738   3.605   6.499   2.114  0.2397  1.0201  0.0903
   49MOL   H32340739   3.693   6.249   2.264  1.4275  0.8364 -0.4594
   49MOL   H32440740   3.532   6.280   2.204  0.0717  0.3959 -0.5634
   49MOL   H32540741   3.515   6.477   2.339 -1.3023 -0.6684  0.3949
   49MOL   H32640742   3.486   6.341   2.433  0.0573  1.2136  2.5243
   49MOL   H32740743   3.643   6.526   2.523 -1.9961  0.4549 -1.8677
   49MOL   H32840744   3.771   6.486   2.425 -1.3965  0.5247 -0.9630
   49MOL   H32940745   3.644   6.277   2.622  1.7628  0.2137  1.7471
   49MOL   H33040746   3.767   6.378   2.655  0.3162  0.3441 -0.1399
   49MOL   H33140747   3.912   6.288   2.478  1.5234 -0.9650  1.5921
   49MOL   H33240748   3.786   6.174   2.432 -1.3816 -0.0550  0.9133
   49MOL   H33340749   3.788   6.059   2.637  0.5372 -1.2469 -1.4294
   49MOL   H33440750   3.906   6.178   2.707 -0.2330 -2.6139  1.7429
   49MOL   H33540751   4.090   6.110   2.546 -0.8161  0.5264  0.3632
   49MOL   H33640752   4.031   5.970   2.632  0.0313  1.2110  1.4754
   49MOL   H33740753   3.980   6.003   2.468  0.7563  1.3802 -0.2782
   49MOL   C33840754   3.832   6.054   1.563  0.2812  0.0846  0.0488
   49MOL   C33940755   3.696   6.071   1.487  0.0131 -0.0081  0.0096
   49MOL   C34040756   3.708   6.177   1.373 -0.6750 -0.7676  0.0685
   49MOL   C34140757   3.691   6.324   1.428 -0.4309 -0.3176 -0.6521
   49MOL   C34240758   3.661   6.439   1.326  0.5067 -0.0095 -0.0996
   49MOL   C34340759   3.787   6.493   1.256 -0.5854  0.2641  0.0516
   49MOL   C34440760   3.761   6.614   1.162  0.0162  0.2759  0.1754
   49MOL   C34540761   3.713   6.740   1.230 -0.8661 -0.3582  0.7271
   49MOL   C34640762   3.696   6.865   1.148  0.3079  0.7414  0.6498
   49MOL   C34740763   3.663   6.986   1.233 -0.1417 -0.0148  1.1184
   49MOL   C34840764   3.628   7.115   1.150 -0.2128 -0.1246  0.3744
   49MOL   C34940765   3.582   7.237   1.243 -0.1583  0.0668  0.3370
   49MOL   C35040766   3.544   7.351   1.151  0.4405  0.5084  0.2128
   49MOL   C35140767   3.413   7.333   1.071 -0.0844 -0.1774 -0.4851
   49MOL   H35240768   3.873   6.154   1.579 -1.3139  0.1532  4.4350
   49MOL   H35340769   3.903   5.997   1.502 -0.6761 -1.5206  0.3954
   49MOL   H35440770   3.626   6.104   1.563  0.7508  1.8782 -0.0916
   49MOL   H35540771   3.806   6.166   1.328 -0.8807 -0.4443 -0.4682
   49MOL   H35640772   3.627   6.161   1.302 -0.6299 -1.1359  0.0960
   49MOL   H35740773   3.774   6.340   1.496 -0.6989 -0.9304 -0.1740
   49MOL   H35840774   3.604   6.322   1.492 -0.0049 -0.3344 -0.0731
   49MOL   H35940775   3.624   6.531   1.370  0.3506  0.4226 -1.1085
   49MOL   H36040776   3.579   6.430   1.254 -0.8268 -0.8999  1.5057
   49MOL   H36140777   3.867   6.511   1.328 -0.9659  0.5114  0.4149
   49MOL   H36240778   3.841   6.419   1.198 -1.1079 -0.7002  0.7896
   49MOL   H36340779   3.858   6.632   1.117 -0.2260  5.1370  1.3486
   49MOL   H36440780   3.702   6.579   1.077 -1.9014  1.6055  0.9107
   49MOL   H36540781   3.618   6.721   1.279 -0.1743 -4.1890  0.7520
   49MOL   H36640782   3.776   6.771   1.313 -1.4745  1.4969  0.5025
   49MOL   H36740783   3.792   6.888   1.101  0.9237 -1.6565  0.6458
   49MOL   H36840784   3.624   6.852   1.067  0.3613  0.7098  0.6077
   49MOL   H36940785   3.579   6.959   1.296 -0.7453  1.2892  0.8909
   49MOL   H37040786   3.745   7.010   1.301  0.9761  1.5424 -0.7082
   49MOL   H37140787   3.544   7.093   1.084 -0.2387 -0.6468  0.5796
   49MOL   H37240788   3.712   7.144   1.088 -0.2537 -1.5569 -0.3888
   49MOL   H37340789   3.667   7.275   1.300  0.4210 -0.6437 -0.0475
   49MOL   H37440790   3.506   7.209   1.315 -0.6837 -3.1364 -1.3755
   49MOL   H37540791   3.539   7.442   1.209 -2.1079  1.9611 -2.1692
   49MOL   H37640792   3.624   7.354   1.077  0.5638  0.6734  0.3546
   49MOL   H37740793   3.334   7.292   1.134 -1.2582  2.4873 -0.1884
   49MOL   H37840794   3.370   7.427   1.037  0.7902 -0.4437 -2.3715
   49MOL   H37940795   3.434   7.278   0.980 -0.7432  1.6341 -1.7482
   49MOL   C38040796   3.648   5.931   1.441 -0.7728 -0.3331  0.2735
   49MOL   C38140797   3.493   5.910   1.471 -0.5132  0.2020  0.1288
   49MOL   C38240798   3.404   5.999   1.379 -0.1934 -0.9116  0.2425
   49MOL   C38340799   3.254   5.986   1.376 -0.5573 -0.4953  0.3392
   49MOL   C38440800   3.182   6.098   1.298  0.2529  0.1947 -0.3369
   49MOL   C38540801   3.031   6.072   1.274  0.0707  0.4418  0.8332
   49MOL   C38640802   2.949   6.198   1.265 -0.5887 -0.3563  0.3016
   49MOL   C38740803   2.806   6.185   1.240  0.1964  0.1560 -0.1939
   49MOL   C38840804   2.735   6.323   1.237 -0.0273 -0.5571 -0.0739
   49MOL   C38940805   2.596   6.303   1.176  0.1253  0.6179  0.1873
   49MOL   C39040806   2.488   6.251   1.274  0.2219 -0.1610 -0.5286
   49MOL   C39140807   2.437   6.357   1.366 -0.2064  0.0361 -0.5689
   49MOL   C39240808   2.373   6.311   1.496  0.2489  0.5414  0.6247
   49MOL   C39340809   2.242   6.244   1.477 -0.0620 -0.1774  0.3532
   49MOL   H39440810   3.705   5.851   1.489  0.8290  0.9354  0.5478
   49MOL   H39540811   3.654   5.923   1.333  0.2609  1.7219  0.1494
   49MOL   H39640812   3.480   5.948   1.572  1.8448  0.8803  0.1871
   49MOL   H39740813   3.436   5.979   1.277  1.2505 -0.0996  0.5230
   49MOL   H39840814   3.435   6.102   1.390  0.0244 -1.0472  1.0009
   49MOL   H39940815   3.206   5.982   1.474  1.7904  0.2328  1.5572
   49MOL   H40040816   3.225   5.892   1.328  0.5964 -0.0588 -1.2571
   49MOL   H40140817   3.232   6.108   1.202  2.4055  0.2704  0.7723
   49MOL   H40240818   3.189   6.196   1.345 -1.0431 -0.4295  1.1917
   49MOL   H40340819   2.997   6.002   1.350 -0.1507 -2.1411 -1.5650
   49MOL   H40440820   3.037   6.010   1.184 -1.0066 -0.5046  1.4069
   49MOL   H40540821   2.961   6.239   1.366  1.9778 -0.1971 -0.0272
   49MOL   H40640822   3.002   6.265   1.198 -1.3348  1.4862  1.4929
   49MOL   H40740823   2.810   6.130   1.146  0.6058  1.2080 -0.7970
   49MOL   H40840824   2.750   6.130   1.316 -0.4018  0.1909 -0.6073
   49MOL   H40940825   2.738   6.379   1.331 -1.3070  1.4863 -1.2228
   49MOL   H41040826   2.792   6.394   1.177  1.8134 -2.0652 -0.1627
   49MOL   H41140827   2.603   6.230   1.095  1.8914 -0.3573  1.1906
   49MOL   H41240828   2.565   6.383   1.109  1.9017 -1.4597 -3.2799
   49MOL   H41340829   2.400   6.211   1.224  0.3251  1.8267 -2.3883
   49MOL   H41440830   2.536   6.169   1.327 -0.1312 -0.3168 -0.4490
   49MOL   H41540831   2.366   6.422   1.315  0.1984  2.4713  1.8481
   49MOL   H41640832   2.514   6.430   1.392  0.9493 -1.4457  0.2566
   49MOL   H41740833   2.437   6.241   1.549 -1.4887 -1.0152  0.7305
   49MOL   H41840834   2.366   6.395   1.566 -1.9758  0.6642  0.2918
   49MOL   H41940835   2.254   6.142   1.440 -2.6731 -0.7029  0.8821
   49MOL   H42040836   2.186   6.298   1.401  0.2511 -0.7469 -0.2825
   49MOL   H42140837   2.179   6.249   1.566 -0.1348 -1.1665  0.3634
   49MOL   C42240838   3.453   5.754   1.462  0.2424 -0.4172 -0.2660
   49MOL   C42340839   3.514   5.663   1.574 -0.1171 -0.4240  0.0122
   49MOL   C42440840   3.424   5.650   1.699 -0.3704  0.0111  0.9700
   49MOL   C42540841   3.464   5.761   1.796  0.1591  0.1206 -0.9789
   49MOL   C42640842   3.390   5.747   1.930  0.1582  0.4730  0.3943
   49MOL   C42740843   3.428   5.862   2.025 -0.6614  0.1276 -0.4617
   49MOL   C42840844   3.565   5.835   2.095  0.4794 -0.1082 -0.0627
   49MOL   C42940845   3.583   5.936   2.210  0.5065 -0.2247  0.3825
   49MOL   C43040846   3.486   5.918   2.328  0.0563  0.3177 -0.1781
   49MOL   C43140847   3.406   6.046   2.368 -0.2526  0.4696 -0.0746
   49MOL   C43240848   3.283   6.032   2.463 -0.1756 -0.1406  0.3051
   49MOL   C43340849   3.218   6.156   2.500 -0.4372  0.1372  0.2168
   49MOL   C43440850   3.083   6.137   2.573 -0.5827  0.1821 -0.0618
   49MOL   C43540851   3.010   6.264   2.595  0.3973 -0.0877  0.2637
   49MOL   H43640852   3.485   5.723   1.363  0.7658 -1.8073  0.3207
   49MOL   H43740853   3.344   5.748   1.465  0.3112 -1.3356  0.8384
   49MOL   H43840854   3.612   5.690   1.611  0.4451 -1.3849 -0.7645
   49MOL   H43940855   3.433   5.553   1.748 -0.8189  0.7634  2.5876
   49MOL   H44040856   3.322   5.660   1.660  0.9599 -0.2305 -2.8144
   49MOL   H44140857   3.568   5.782   1.821  0.6407 -1.7620 -1.3755
   49MOL   H44240858   3.432   5.856   1.753 -1.0801  0.2636  0.2246
   49MOL   H44340859   3.403   5.649   1.976  1.4285  0.2597 -0.3697
   49MOL   H44440860   3.286   5.758   1.901  0.9934 -1.1468 -3.5777
   49MOL   H44540861   3.344   5.867   2.094 -1.8016  1.3956 -1.9006
   49MOL   H44640862   3.433   5.958   1.973 -0.3269  0.0886 -0.5009
   49MOL   H44740863   3.584   5.735   2.134 -0.4956 -0.0966  0.4622
   49MOL   H44840864   3.654   5.847   2.034  1.2358  0.5969  1.1380
   49MOL   H44940865   3.685   5.930   2.246  0.1705 -2.3861  0.9963
   49MOL   H45040866   3.563   6.032   2.161  1.8017 -0.4372 -0.5866
   49MOL   H45140867   3.424   5.835   2.292 -2.4503  1.7197  0.7924
   49MOL   H45240868   3.537   5.880   2.416 -2.8840  1.1403  1.9506
   49MOL   H45340869   3.482   6.099   2.425  0.8772  0.7924 -1.8266
   49MOL   H45440870   3.379   6.106   2.281 -1.5017  2.9277  1.9407
   49MOL   H45540871   3.206   5.968   2.419 -0.5142  1.0100 -0.8149
   49MOL   H45640872   3.313   5.986   2.557 -2.0174  0.2717  1.1098
   49MOL   H45740873   3.197   6.218   2.413 -2.6737 -0.9438 -0.0428
   49MOL   H45840874   3.280   6.222   2.561  1.8423 -1.3791 -0.4060
   49MOL   H45940875   3.010   6.071   2.526 -1.1243 -1.2275  2.6503
   49MOL   H46040876   3.115   6.097   2.669 -1.9824  1.9133  1.1584
   49MOL   H46140877   3.070   6.345   2.637 -1.5012  0.6976  1.5344
   49MOL   H46240878   2.925   6.243   2.659 -0.3056  0.0070 -0.6233
   49MOL   H46340879   2.977   6.305   2.499  0.0706 -1.6485 -0.3023
   49MOL   C46440880   3.541   5.514   1.515 -0.6476  0.0910 -0.4753
   49MOL   C46540881   3.666   5.511   1.418  0.1983  0.1234 -0.5020
   49MOL   C46640882   3.789   5.487   1.501 -0.1558 -0.5458 -0.3534
   49MOL   C46740883   3.903   5.578   1.445  0.2287 -0.3980 -0.3286
   49MOL   C46840884   4.034   5.529   1.506  0.4720  0.3383  0.8655
   49MOL   C46940885   4.146   5.624   1.464 -0.1234  0.0647 -0.0127
   49MOL   C47040886   4.287   5.605   1.529 -0.1029  0.7591  0.1615
   49MOL   C47140887   4.412   5.676   1.473 -0.9952  0.8943  0.1257
   49MOL   C47240888   4.503   5.602   1.372  0.5527 -0.0519  0.2449
   49MOL   C47340889   4.632   5.684   1.339 -0.1515  0.7659 -0.2261
   49MOL   C47440890   4.749   5.611   1.271  0.0499 -0.3919 -0.5253
   49MOL   C47540891   4.724   5.571   1.122 -0.1103 -0.2720  0.8342
   49MOL   C47640892   4.696   5.700   1.036 -0.0353  0.1705 -0.7060
   49MOL   C47740893   4.823   5.787   1.009  0.1377  0.5502 -0.1669
   49MOL   H47840894   3.450   5.478   1.467 -0.4597 -0.9434 -0.0531
   49MOL   H47940895   3.555   5.453   1.604  3.4076  1.4057 -0.1067
   49MOL   H48040896   3.675   5.608   1.369  3.0452 -0.0564 -0.4197
   49MOL   H48140897   3.772   5.523   1.602  0.5795 -0.5443 -0.2254
   49MOL   H48240898   3.822   5.383   1.502 -2.2003 -1.2111  2.6695
   49MOL   H48340899   3.885   5.684   1.463  0.0453 -0.5764  0.6122
   49MOL   H48440900   3.921   5.565   1.339  2.0036 -0.8376  0.0122
   49MOL   H48540901   4.059   5.428   1.477  1.1852  0.3659  1.3868
   49MOL   H48640902   4.025   5.524   1.615 -0.0120  0.7425  0.8484
   49MOL   H48740903   4.161   5.609   1.357  1.1391 -1.8579  0.3945
   49MOL   H48840904   4.102   5.723   1.461  0.2349  0.1876 -2.1958
   49MOL   H48940905   4.264   5.647   1.627 -1.6449  0.0797  0.1074
   49MOL   H49040906   4.316   5.500   1.539  0.2481  0.7078 -1.2570
   49MOL   H49140907   4.372   5.769   1.431 -0.1896  0.9363 -0.5538
   49MOL   H49240908   4.470   5.717   1.555 -1.7224 -0.2420  1.2268
   49MOL   H49340909   4.516   5.502   1.415 -0.8912  0.9746  3.1919
   49MOL   H49440910   4.457   5.595   1.273 -1.2465  0.3437  1.0422
   49MOL   H49540911   4.597   5.778   1.297  1.5976  1.0439 -1.1010
   49MOL   H49640912   4.672   5.713   1.436  5.4118 -0.5078 -1.9921
   49MOL   H49740913   4.834   5.679   1.270 -0.3526  0.1563  1.0212
   49MOL   H49840914   4.767   5.524   1.334  1.6125  1.1344  1.1968
   49MOL   H49940915   4.643   5.499   1.115 -0.8160  0.3902  2.0970
   49MOL   H50040916   4.816   5.525   1.087  0.2445  0.3606  0.9211
   49MOL   H50140917   4.666   5.666   0.937  0.3912 -1.1905 -0.3807
   49MOL   H50240918   4.610   5.753   1.076  0.7703 -1.1354  2.8919
   49MOL   H50340919   4.859   5.831   1.102 -2.6874  1.3773  0.5809
   49MOL   H50440920   4.904   5.734   0.960 -1.6272 -3.4878  1.0622
   49MOL   H50540921   4.791   5.873   0.950 -0.5239  0.5165  0.1339
   49MOL   C50640922   3.649   5.401   1.296 -0.6133  0.0334 -0.4167
   49MOL   C50740923   3.578   5.449   1.166 -0.1308  0.2603  0.2393
   49MOL   C50840924   3.660   5.533   1.067  0.8129  0.3719  0.0853
   49MOL   C50940925   3.725   5.661   1.129  0.0041 -0.9337 -0.8446
   49MOL   C51040926   3.778   5.750   1.015  0.8549 -0.2903  0.5155
   49MOL   C51140927   3.827   5.883   1.071 -0.3799  0.0653 -0.0121
   49MOL   C51240928   3.866   5.992   0.973 -0.2763  0.5666  0.0415
   49MOL   C51340929   3.922   6.111   1.045 -0.6477 -0.3096 -0.4663
   49MOL   C51440930   4.023   6.200   0.966 -0.4745 -0.0021  0.3667
   49MOL   C51540931   4.082   6.325   1.039 -0.1260  0.2314  0.0211
   49MOL   C51640932   4.174   6.290   1.163  0.0487  0.2555  0.7226
   49MOL   C51740933   4.251   6.411   1.224  0.7595 -0.0062 -0.2975
   49MOL   C51840934   4.360   6.463   1.139  0.1643  0.6916 -0.0431
   49MOL   C51940935   4.438   6.576   1.214 -0.2742 -0.1892 -0.2673
   49MOL   H52040936   3.599   5.312   1.332  0.4071 -1.2604 -2.1194
   49MOL   H52140937   3.747   5.361   1.268 -2.7151 -5.0036 -0.9570
   49MOL   H52240938   3.498   5.514   1.200 -0.4002  0.8376 -1.4605
   49MOL   H52340939   3.742   5.478   1.022 -0.5411  0.2438 -2.2720
   49MOL   H52440940   3.596   5.558   0.983  2.0920  0.5935 -0.8351
   49MOL   H52540941   3.661   5.717   1.197  1.2394 -2.3172  1.4978
   49MOL   H52640942   3.813   5.645   1.191  0.1884  2.0771 -0.2475
   49MOL   H52740943   3.701   5.782   0.944  1.1581  2.8568  1.5611
   49MOL   H52840944   3.857   5.700   0.960  1.2161  1.4621 -0.5988
   49MOL   H52940945   3.905   5.862   1.144 -0.9680  1.1088  0.9250
   49MOL   H53040946   3.742   5.925   1.123  0.5408  1.2672  0.5406
   49MOL   H53140947   3.941   5.954   0.902 -0.2068 -0.2231  0.5329
   49MOL   H53240948   3.788   6.007   0.899  1.1203  1.2700 -1.3168
   49MOL   H53340949   3.968   6.080   1.139  1.7093  1.0641 -1.1172
   49MOL   H53440950   3.841   6.170   1.089  0.8529  1.9973 -0.6682
   49MOL   H53540951   3.979   6.242   0.876  2.0094  1.9876  0.0368
   49MOL   H53640952   4.099   6.130   0.931 -0.9061  0.3940 -1.4234
   49MOL   H53740953   4.145   6.373   0.963 -0.1414  2.0539  1.1226
   49MOL   H53840954   4.010   6.400   1.072 -1.1330 -1.4754  1.7997
   49MOL   H53940955   4.092   6.268   1.232 -2.9201 -0.4340 -2.8527
   49MOL   H54040956   4.238   6.204   1.143 -0.0298  0.4751 -0.5055
   49MOL   H54140957   4.284   6.381   1.323 -2.9884 -0.7991  0.7776
   49MOL   H54240958   4.195   6.503   1.239  0.9012  0.1786 -0.8978
   49MOL   H54340959   4.310   6.495   1.047 -0.3267  2.2482  0.7656
   49MOL   H54440960   4.423   6.378   1.110 -0.4724 -1.1752  3.7308
   49MOL   H54540961   4.497   6.541   1.298 -1.6237 -0.2405  0.6716
   49MOL   H54640962   4.506   6.619   1.140  1.6309 -2.9268 -0.1327
   49MOL   H54740963   4.381   6.662   1.250  2.8291  1.6625  0.4666
   49MOL   C54840964   3.501   5.333   1.097 -0.1354  0.1689 -0.0924
   49MOL   C54940965   3.396   5.373   0.989 -0.0473  0.1141 -0.1747
   49MOL   C55040966   3.365   5.249   0.884  0.6786  0.0273  0.2794
   49MOL   C55140967   3.291   5.309   0.765 -0.0767 -0.6379  0.1628
   49MOL   C55240968   3.204   5.209   0.693  0.6074 -0.3421 -0.0797
   49MOL   C55340969   3.163   5.256   0.553  0.2975  0.8456 -0.3128
   49MOL   C55440970   3.100   5.399   0.547 -0.2296 -0.7524 -0.6940
   49MOL   C55540971   3.049   5.418   0.397  0.2926  0.1592 -0.1927
   49MOL   C55640972   2.980   5.559   0.370 -0.2518  0.6437 -0.4495
   49MOL   C55740973   3.079   5.672   0.378 -0.5739  0.1512  0.6316
   49MOL   C55840974   3.012   5.807   0.353 -0.1237  0.4096  0.0919
   49MOL   C55940975   3.115   5.923   0.355 -0.5043 -0.0037 -0.5195
   49MOL   C56040976   3.059   6.065   0.318  0.3871  0.2120  0.3184
   49MOL   C56140977   3.165   6.171   0.310  0.9420  0.1680  0.1272
   49MOL   H56240978   3.576   5.272   1.045  2.7286  2.9911  0.5468
   49MOL   H56340979   3.464   5.265   1.173 -0.4401 -1.0740 -1.3109
   49MOL   H56440980   3.423   5.461   0.930  0.0553 -0.0386 -0.3589
   49MOL   H56540981   3.455   5.200   0.847  0.4534 -1.1316  1.2653
   49MOL   H56640982   3.302   5.177   0.935 -0.3546  1.5664  1.2210
   49MOL   H56740983   3.363   5.345   0.692 -1.2508  0.7002 -0.3436
   49MOL   H56840984   3.233   5.399   0.783  1.6023  1.1179 -2.9110
   49MOL   H56940985   3.248   5.109   0.686 -0.0537 -0.4929 -2.3509
   49MOL   H57040986   3.108   5.203   0.744 -0.8390  2.6531 -2.3099
   49MOL   H57140987   3.090   5.185   0.513 -0.2074  0.7145  0.8093
   49MOL   H57240988   3.251   5.248   0.489  0.1498  1.1010 -0.5471
   49MOL   H57340989   3.020   5.393   0.621  0.2611  2.6367  0.1979
   49MOL   H57440990   3.170   5.476   0.579 -1.3763 -1.0285  2.6606
   49MOL   H57540991   2.981   5.336   0.373 -1.1899  1.2131  0.3619
   49MOL   H57640992   3.123   5.417   0.318  0.8886  2.1968  0.3074
   49MOL   H57740993   2.906   5.575   0.449  2.3578  2.2094  1.7687
   49MOL   H57840994   2.930   5.546   0.274  0.5543  0.5670 -0.8585
   49MOL   H57940995   3.125   5.670   0.476 -2.9453  2.6558  1.8564
   49MOL   H58040996   3.149   5.656   0.295 -0.9030 -1.2595  0.6096
   49MOL   H58140997   2.938   5.832   0.430  0.8649 -0.3769  1.3287
   49MOL   H58240998   2.976   5.798   0.251 -1.3805 -0.8305  0.6329
   49MOL   H58340999   3.165   5.914   0.451 -3.5085  0.6671  1.1490
   49MOL   H58441000   3.193   5.896   0.283  0.6399  0.9379  0.3556
   49MOL   H58541001   3.021   6.064   0.216 -1.3986 -0.1019  0.9709
   49MOL   H58641002   2.977   6.094   0.384 -0.6924  0.9638 -1.3229
   49MOL   H58741003   3.209   6.189   0.408  0.4087  0.0771  0.3827
   49MOL   H58841004   3.251   6.145   0.248  1.8998  0.4964  1.2939
   49MOL   H58941005   3.129   6.269   0.280  0.0535  0.0045  0.6540
   49MOL   C59041006   3.267   5.423   1.051  0.1895  0.2101 -0.1852
   49MOL   C59141007   3.191   5.316   1.134 -0.0533  0.1818  0.3339
   49MOL   C59241008   3.192   5.345   1.294  0.7427  0.1884 -0.5477
   49MOL   C59341009   3.092   5.453   1.339  0.1375  0.6293 -0.7938
   49MOL   C59441010   3.104   5.497   1.483  0.1858 -0.4948 -0.0570
   49MOL   C59541011   3.040   5.409   1.591 -0.0720 -0.0319 -0.0411
   49MOL   C59641012   3.022   5.487   1.726 -0.2370 -0.4369 -0.4499
   49MOL   C59741013   2.943   5.402   1.823  0.0250 -0.5801 -0.6411
   49MOL   C59841014   2.943   5.471   1.961 -0.5780  0.2513 -0.5279
   49MOL   C59941015   2.836   5.569   1.981  0.0927  0.8910 -0.9604
   49MOL   C60041016   2.819   5.629   2.124 -0.2243 -0.2212  0.4959
   49MOL   C60141017   2.713   5.737   2.136  0.5641  0.0350  0.1037
   49MOL   C60241018   2.566   5.682   2.114  0.1538  0.2995 -0.3991
   49MOL   C60341019   2.474   5.807   2.125  0.1440 -0.8895 -0.0742
   49MOL   H60441020   3.197   5.460   0.976  0.0830  1.4114  0.4993
   49MOL   H60541021   3.300   5.504   1.117 -0.5054  0.0062  0.4236
   49MOL   H60641022   3.243   5.221   1.131 -1.2132 -0.6314  3.8586
   49MOL   H60741023   3.288   5.387   1.324  0.8448 -0.0815 -0.4929
   49MOL   H60841024   3.196   5.253   1.353  0.2117  2.4315  3.1632
   49MOL   H60941025   2.990   5.421   1.324 -0.2039  1.2514  0.0977
   49MOL   H61041026   3.114   5.539   1.275  1.9271  1.6958  1.1499
   49MOL   H61141027   3.064   5.598   1.495  0.1782 -0.5786  0.6297
   49MOL   H61241028   3.209   5.508   1.509 -0.0797 -0.4955  1.0121
   49MOL   H61341029   3.107   5.324   1.608 -1.3454 -0.9593  0.4933
   49MOL   H61441030   2.939   5.373   1.568  0.7163 -1.4163 -1.3624
   49MOL   H61541031   3.116   5.511   1.775  0.1773 -0.2481 -1.3278
   49MOL   H61641032   2.971   5.582   1.708 -0.2520  0.1654  2.6170
   49MOL   H61741033   2.846   5.396   1.773 -1.2436 -0.8106  1.7525
   49MOL   H61841034   2.987   5.302   1.831  1.0398 -0.0190  0.8565
   49MOL   H61941035   2.932   5.390   2.033 -3.6218  0.4491 -0.7050
   49MOL   H62041036   3.042   5.512   1.981  0.1445 -2.3554  1.5287
   49MOL   H62141037   2.872   5.638   1.904 -0.0859  1.1414 -0.8190
   49MOL   H62241038   2.737   5.538   1.949  0.9593 -2.2969 -0.6661
   49MOL   H62341039   2.906   5.687   2.153 -1.1647  2.0077 -0.9915
   49MOL   H62441040   2.809   5.544   2.191 -0.9266  0.4133  1.2031
   49MOL   H62541041   2.732   5.822   2.070 -0.5157  0.5147  0.4088
   49MOL   H62641042   2.730   5.768   2.239 -0.1820  1.6522 -0.2450
   49MOL   H62741043   2.561   5.638   2.014  1.2459 -0.6540 -0.0417
   49MOL   H62841044   2.547   5.603   2.187  1.2634  1.1513  0.8365
   49MOL   H62941045   2.503   5.871   2.041 -1.3469 -0.1240 -0.0255
   49MOL   H63041046   2.493   5.862   2.217  0.5335  0.2340 -0.8164
   49MOL   H63141047   2.366   5.790   2.115 -0.0321  0.8097 -1.2097
   49MOL   C63241048   3.054   5.284   1.070 -0.6971 -0.0323  0.0888
   49MOL   C63341049   2.980   5.166   1.140  0.1153 -0.7743  0.0597
   49MOL   C63441050   2.826   5.191   1.117 -0.4789  0.4297 -0.6855
   49MOL   C63541051   2.758   5.292   1.215  0.2195  0.1252  0.2460
   49MOL   C63641052   2.612   5.316   1.165 -0.3793  0.4209 -0.5924
   49MOL   C63741053   2.528   5.400   1.268  0.7562 -0.0744 -0.3643
   49MOL   C63841054   2.395   5.453   1.227 -0.0979 -0.3750 -0.0510
   49MOL   C63941055   2.333   5.544   1.333 -0.0134  0.2384 -0.2171
   49MOL   C64041056   2.198   5.588   1.298 -0.1759  0.5178 -0.3512
   49MOL   C64141057   2.133   5.675   1.402 -0.2325 -0.6941 -0.0506
   49MOL   C64241058   1.979   5.702   1.368 -1.4121  0.4802  0.1054
   49MOL   C64341059   1.913   5.814   1.452  0.4019 -0.0970 -0.0021
   49MOL   C64441060   1.973   5.949   1.424 -0.0537  1.1815 -0.0472
   49MOL   C64541061   1.905   6.057   1.507  0.0602 -0.2922  0.6781
   49MOL   H64641062   3.063   5.255   0.966  1.3060  0.9340 -0.0224
   49MOL   H64741063   2.988   5.371   1.078 -2.2010 -0.8153 -3.0059
   49MOL   H64841064   3.006   5.168   1.246  1.0328 -0.3240 -0.1708
   49MOL   H64941065   2.807   5.213   1.012 -1.2909  0.6509 -0.4930
   49MOL   H65041066   2.771   5.099   1.134  2.0382 -0.6487  2.1342
   49MOL   H65141067   2.804   5.390   1.224  0.3196  0.1905 -0.9544
   49MOL   H65241068   2.751   5.243   1.313 -1.5470  0.2379  0.1966
   49MOL   H65341069   2.557   5.225   1.141  0.8439  0.0567 -2.1746
   49MOL   H65441070   2.618   5.358   1.064  0.7709  0.4378 -0.5283
   49MOL   H65541071   2.511   5.351   1.363  0.3832  0.0194 -0.3844
   49MOL   H65641072   2.587   5.484   1.305  4.8418 -3.1732  0.5282
   49MOL   H65741073   2.406   5.516   1.138 -0.3358 -0.8913 -0.4523
   49MOL   H65841074   2.336   5.367   1.196  1.0937 -1.2943  0.1995
   49MOL   H65941075   2.404   5.625   1.354  3.3745 -2.0379 -2.3599
   49MOL   H66041076   2.338   5.486   1.425  0.4946  0.5864 -0.0200
   49MOL   H66141077   2.138   5.498   1.284  1.0677 -0.1947 -1.1507
   49MOL   H66241078   2.201   5.641   1.203 -0.6278 -1.2726 -1.3737
   49MOL   H66341079   2.143   5.629   1.500  1.1305 -2.3207 -0.9430
   49MOL   H66441080   2.184   5.771   1.411  0.1984 -0.8683 -0.6087
   49MOL   H66541081   1.980   5.735   1.265  0.5829  1.3272  0.3663
   49MOL   H66641082   1.923   5.608   1.372  0.4763 -0.6453  1.0984
   49MOL   H66741083   1.932   5.791   1.557  0.0956 -0.1835  0.0340
   49MOL   H66841084   1.805   5.812   1.441  0.2717  1.4226  0.9014
   49MOL   H66941085   1.972   5.974   1.318  1.1977 -0.4667 -0.4688
   49MOL   H67041086   2.080   5.941   1.445  0.2066 -3.6751 -2.3898
   49MOL   H67141087   1.962   6.149   1.501  0.8888 -0.9092 -1.3562
   49MOL   H67241088   1.803   6.075   1.472  0.9822 -1.7966 -3.0194
   49MOL   H67341089   1.887   6.025   1.609  3.0043 -0.0637  1.2901
   49MOL   C67441090   3.028   5.032   1.093 -0.3726 -0.6357  0.2874
   49MOL   C67541091   3.037   4.920   1.198 -0.6003 -0.8811  0.1291
   49MOL   C67641092   2.912   4.915   1.280  0.2411 -0.3297  0.4762
   49MOL   C67741093   2.918   4.837   1.405  0.1520 -0.3357  0.2031
   49MOL   C67841094   2.782   4.816   1.478  0.3322 -0.5210  0.2983
   49MOL   C67941095   2.798   4.746   1.617 -0.0885 -0.3677  0.4507
   49MOL   C68041096   2.703   4.792   1.721 -0.1744  0.7908 -0.0334
   49MOL   C68141097   2.747   4.920   1.797  0.2605  0.5780 -0.1234
   49MOL   C68241098   2.690   4.928   1.932 -0.3827 -0.1004 -0.1913
   49MOL   C68341099   2.676   5.067   2.000  0.7860 -0.9785 -0.0397
   49MOL   C68441100   2.540   5.129   1.968 -0.4712  0.5876  0.3985
   49MOL   C68541101   2.518   5.262   2.039  1.1822 -0.2629  0.1012
   49MOL   C68641102   2.377   5.314   2.030  0.0214 -0.0471  0.2152
   49MOL   C68741103   2.336   5.373   1.895 -0.0576 -0.0570 -0.1704
   49MOL   H68841104   3.126   5.047   1.048 -1.1047  1.8112 -0.5742
   49MOL   H68941105   2.965   4.997   1.011  0.5162  0.4526 -0.8972
   49MOL   H69041106   3.110   4.956   1.271 -0.1528  0.0744 -0.7723
   49MOL   H69141107   2.881   5.013   1.317 -0.7309 -0.1965 -0.6716
   49MOL   H69241108   2.838   4.873   1.212  1.8104 -0.6207 -1.1055
   49MOL   H69341109   2.958   4.736   1.398 -0.8452 -0.7491  0.4307
   49MOL   H69441110   2.984   4.890   1.474 -1.3240  0.6938  0.8346
   49MOL   H69541111   2.738   4.915   1.487  0.2681 -0.5501  0.3014
   49MOL   H69641112   2.720   4.760   1.408 -1.0858 -0.1575  1.2276
   49MOL   H69741113   2.783   4.638   1.604 -1.0581 -0.0819 -0.9250
   49MOL   H69841114   2.900   4.741   1.654 -0.3732 -2.8071  1.0182
   49MOL   H69941115   2.604   4.803   1.678 -0.5360 -1.4900  0.1581
   49MOL   H70041116   2.699   4.709   1.791 -0.8496 -1.2971 -2.4683
   49MOL   H70141117   2.855   4.932   1.798  0.0987  2.2811 -1.0816
   49MOL   H70241118   2.712   5.002   1.735  1.2789  1.0797 -0.0466
   49MOL   H70341119   2.591   4.885   1.929  0.1162 -1.2208 -0.9767
   49MOL   H70441120   2.753   4.869   1.998  0.0315  0.7440  0.1728
   49MOL   H70541121   2.753   5.133   1.959 -0.4580 -0.5301 -1.7222
   49MOL   H70641122   2.694   5.062   2.108  0.5331  1.2809  0.1286
   49MOL   H70741123   2.466   5.064   2.013 -1.5900  1.4184 -0.2207
   49MOL   H70841124   2.525   5.135   1.860 -2.4013  0.8581  0.6598
   49MOL   H70941125   2.590   5.335   2.004 -0.6448  2.9419  2.7267
   49MOL   H71041126   2.536   5.263   2.146 -2.7967  0.0749  0.8643
   49MOL   H71141127   2.309   5.230   2.041  0.8266 -0.8584 -0.9089
   49MOL   H71241128   2.347   5.384   2.108 -1.5353  0.8413 -1.1430
   49MOL   H71341129   2.329   5.299   1.815 -1.0209  0.0885 -0.2228
   49MOL   H71441130   2.241   5.425   1.897  0.0893  0.2225 -0.3313
   49MOL   H71541131   2.402   5.455   1.866  1.0489 -0.2201  1.8183
   49MOL   C71641132   3.095   4.787   1.152 -0.3485  0.0697  0.0040
   49MOL   C71741133   3.225   4.788   1.062 -0.1939  0.0651 -0.1520
   49MOL   C71841134   3.348   4.831   1.148  0.5343  0.6604 -0.0184
   49MOL   C71941135   3.467   4.881   1.066 -0.2234 -0.0466 -0.0878
   49MOL   C72041136   3.570   4.952   1.159 -0.3166 -0.1973 -0.0870
   49MOL   C72141137   3.706   5.001   1.105  0.3641 -0.8150  0.3650
   49MOL   C72241138   3.811   5.053   1.200 -0.7941 -0.7878  0.0913
   49MOL   C72341139   3.867   4.941   1.293 -0.0880 -0.2230  0.0101
   49MOL   C72441140   3.934   4.989   1.418 -0.4194  0.0949 -0.1014
   49MOL   C72541141   4.080   5.035   1.388 -0.0303 -0.2530  0.7281
   49MOL   C72641142   4.163   5.056   1.511  0.5093 -0.1113  0.1197
   49MOL   C72741143   4.290   5.143   1.496  1.1274 -0.1685  0.1503
   49MOL   C72841144   4.373   5.146   1.626 -0.7824  0.5228 -0.0704
   49MOL   C72941145   4.460   5.022   1.642  0.1167  0.3803 -0.1922
   49MOL   H73041146   3.119   4.728   1.241  0.6956 -0.3401 -0.5413
   49MOL   H73141147   3.017   4.738   1.094 -1.9566  3.3505 -0.7056
   49MOL   H73241148   3.198   4.860   0.984 -2.5394  1.1464  1.5901
   49MOL   H73341149   3.365   4.743   1.211 -1.2908  1.5349  1.7785
   49MOL   H73441150   3.314   4.916   1.207  1.3691 -0.1612  1.7019
   49MOL   H73541151   3.522   4.801   1.017  1.7141  1.0695  0.2201
   49MOL   H73641152   3.438   4.949   0.986 -0.6205 -1.6848 -1.3392
   49MOL   H73741153   3.533   5.043   1.206  0.0061  0.2709 -0.7251
   49MOL   H73841154   3.594   4.881   1.238 -0.2621  1.5970  1.5219
   49MOL   H73941155   3.745   4.920   1.044  1.2082  0.5734 -0.9888
   49MOL   H74041156   3.685   5.065   1.019  2.8031 -0.3455  0.1040
   49MOL   H74141157   3.895   5.095   1.144 -2.9003  1.0647 -1.8082
   49MOL   H74241158   3.778   5.137   1.262 -2.5042 -0.3271 -1.3789
   49MOL   H74341159   3.939   4.881   1.237  0.8632  0.4410  0.5035
   49MOL   H74441160   3.786   4.875   1.325 -0.6585  1.3982  2.0326
   49MOL   H74541161   3.894   5.069   1.480 -0.5368 -0.5143  0.6144
   49MOL   H74641162   3.929   4.910   1.493  1.3728 -1.5445 -1.6774
   49MOL   H74741163   4.147   4.963   1.340  0.4622  0.3279  0.5390
   49MOL   H74841164   4.071   5.124   1.327 -0.0860 -0.7425  0.0161
   49MOL   H74941165   4.101   5.101   1.589 -1.2470 -1.8875 -0.1848
   49MOL   H75041166   4.186   4.960   1.557  2.2626 -0.0918 -0.7124
   49MOL   H75141167   4.335   5.098   1.407 -2.0762 -1.4267 -0.9153
   49MOL   H75241168   4.258   5.245   1.472 -1.6323 -0.9104  0.4722
   49MOL   H75341169   4.311   5.160   1.715  0.0460  0.3408  0.5513
   49MOL   H75441170   4.453   5.219   1.610 -0.7582  0.8099  1.2828
   49MOL   H75541171   4.530   5.017   1.557  0.0037 -0.6908 -0.2340
   49MOL   H75641172   4.399   4.932   1.648  1.1052 -0.2887 -0.0113
   49MOL   H75741173   4.535   5.036   1.720  1.1485 -0.3386 -1.0284
   49MOL   C75841174   3.260   4.661   0.990 -0.3450  0.1727  0.5287
   49MOL   C75941175   3.156   4.633   0.876 -0.1854 -0.0288 -0.3904
   49MOL   C76041176   3.183   4.723   0.749 -0.0654  0.3922  0.1281
   49MOL   C76141177   3.066   4.773   0.667 -0.2426  0.1034  0.3677
   49MOL   C76241178   2.979   4.874   0.751  1.0010  0.5153 -0.0936
   49MOL   C76341179   2.888   4.958   0.660  0.1156 -0.5149 -0.2380
   49MOL   C76441180   2.805   5.059   0.735  0.5886  0.0341  0.0867
   49MOL   C76541181   2.740   5.167   0.639 -0.2936  0.1073  0.8693
   49MOL   C76641182   2.640   5.278   0.694  0.1138  0.0352 -0.6238
   49MOL   C76741183   2.546   5.339   0.587 -0.3764  0.6062 -0.4160
   49MOL   C76841184   2.623   5.408   0.478  0.6515  0.0887 -0.6955
   49MOL   C76941185   2.529   5.483   0.373 -0.7575 -0.3215 -0.0082
   49MOL   C77041186   2.612   5.567   0.280 -0.4146 -0.4195 -0.3176
   49MOL   C77141187   2.518   5.674   0.226  0.2300 -0.8782  0.2681
   49MOL   H77241188   3.358   4.647   0.944  0.0807  0.1617  1.4203
   49MOL   H77341189   3.252   4.582   1.065  1.1125 -0.3747  0.1306
   49MOL   H77441190   3.053   4.656   0.905  0.1917 -0.3743  1.2420
   49MOL   H77541191   3.238   4.812   0.779 -0.4828 -0.0316  2.2695
   49MOL   H77641192   3.242   4.662   0.680 -3.4982 -1.6075 -1.1641
   49MOL   H77741193   3.115   4.824   0.583  0.3919  1.1553  1.3575
   49MOL   H77841194   3.003   4.699   0.618  0.7162 -0.5079  0.0335
   49MOL   H77941195   3.045   4.947   0.798 -0.9540  1.6533  0.9577
   49MOL   H78041196   2.933   4.817   0.832  2.6825 -0.9655 -0.1568
   49MOL   H78141197   2.818   4.887   0.615  0.2666 -1.7180  1.3879
   49MOL   H78241198   2.953   5.013   0.592 -1.5904  0.0266 -1.4814
   49MOL   H78341199   2.725   4.999   0.777  0.8313 -1.3858 -1.3895
   49MOL   H78441200   2.869   5.105   0.810  0.9651  1.2640 -0.9687
   49MOL   H78541201   2.683   5.108   0.568 -1.1771  0.3603  1.3646
   49MOL   H78641202   2.806   5.225   0.575 -0.4864 -0.6202  0.0016
   49MOL   H78741203   2.689   5.366   0.736 -1.0517  1.3096 -1.8803
   49MOL   H78841204   2.590   5.239   0.782  1.8517  3.1467  1.8650
   49MOL   H78941205   2.477   5.411   0.632 -0.9619  0.4688 -1.0938
   49MOL   H79041206   2.473   5.265   0.557 -2.8759  1.8289  2.3891
   49MOL   H79141207   2.681   5.486   0.526 -1.8923  0.4834  1.8754
   49MOL   H79241208   2.675   5.325   0.430 -0.2852 -0.1572 -1.2941
   49MOL   H79341209   2.469   5.418   0.309 -0.2880 -2.5699  1.7886
   49MOL   H79441210   2.462   5.549   0.429  0.4092  1.3055 -0.4980
   49MOL   H79541211   2.694   5.609   0.338  0.7030 -0.8550 -1.5411
   49MOL   H79641212   2.663   5.508   0.203 -1.1677 -1.7576  0.1823
   49MOL   H79741213   2.473   5.734   0.306 -1.6444 -1.3183 -0.4171
   49MOL   H79841214   2.579   5.729   0.155  0.1550 -2.0671 -0.7298
   49MOL   H79941215   2.440   5.620   0.171  0.3553 -1.9846  1.1445
   49MOL   C80041216   3.140   4.482   0.840  0.1006 -0.3775 -0.2827
   49MOL   C80141217   3.081   4.401   0.958 -0.4542  0.0975 -0.1091
   49MOL   C80241218   3.013   4.272   0.909 -0.0803  0.4074  0.9464
   49MOL   C80341219   2.967   4.158   0.999 -0.8739 -0.1549 -0.2931
   49MOL   C80441220   2.894   4.048   0.932 -0.5068 -0.1788 -0.6298
   49MOL   C80541221   2.873   3.931   1.022 -0.2394  0.1610  0.1279
   49MOL   C80641222   2.797   3.820   0.947 -0.9507  0.5338 -0.1964
   49MOL   C80741223   2.762   3.712   1.045 -0.6202  0.2318 -0.1716
   49MOL   C80841224   2.711   3.589   0.972 -0.3091 -0.4606  0.0940
   49MOL   C80941225   2.684   3.483   1.076  0.1072 -0.4215 -0.5730
   49MOL   C81041226   2.655   3.347   1.007 -0.7385  0.6046 -0.0748
   49MOL   C81141227   2.545   3.261   1.083  0.6025 -0.6762 -0.7941
   49MOL   C81241228   2.523   3.114   1.041 -0.3206 -0.0652  0.0690
   49MOL   C81341229   2.412   3.048   1.115  0.2343  0.0781 -0.8018
   49MOL   H81441230   3.234   4.433   0.814  0.0656 -0.3234 -0.5116
   49MOL   H81541231   3.073   4.483   0.754 -3.2519  1.3272  2.2234
   49MOL   H81641232   3.010   4.462   1.013 -0.0474  2.3038 -1.9491
   49MOL   H81741233   3.082   4.228   0.837  1.5698 -0.8801  3.2279
   49MOL   H81841234   2.921   4.301   0.858  0.2556  0.2308  0.2447
   49MOL   H81941235   2.894   4.198   1.068  2.0530 -1.1603  3.5353
   49MOL   H82041236   3.049   4.113   1.055 -2.1165 -1.0172  0.8376
   49MOL   H82141237   2.797   4.072   0.888  0.2401 -0.6040 -2.5358
   49MOL   H82241238   2.953   4.008   0.849  0.1796 -0.0522 -0.2032
   49MOL   H82341239   2.812   3.958   1.107  0.7701  0.9424  0.6155
   49MOL   H82441240   2.969   3.896   1.061  0.7558  1.0792 -1.4030
   49MOL   H82541241   2.704   3.855   0.901 -1.6540  0.6840  1.3189
   49MOL   H82641242   2.867   3.771   0.879 -0.6080 -1.3069  1.4178
   49MOL   H82741243   2.853   3.685   1.098  0.4367  0.1224 -2.0298
   49MOL   H82841244   2.691   3.756   1.116  0.1240  0.0712  0.6889
   49MOL   H82941245   2.617   3.611   0.920  1.4038  1.6682 -2.1976
   49MOL   H83041246   2.790   3.549   0.909  0.0108 -0.5329  0.5370
   49MOL   H83141247   2.602   3.519   1.139 -2.5500 -2.5948 -2.6808
   49MOL   H83241248   2.773   3.468   1.137 -0.4123 -0.5149  0.1764
   49MOL   H83341249   2.614   3.372   0.909  0.2428  2.6163  0.0219
   49MOL   H83441250   2.746   3.286   1.004 -0.9766  0.2877 -2.6441
   49MOL   H83541251   2.448   3.311   1.092  0.2261 -1.5989  0.5352
   49MOL   H83641252   2.549   3.249   1.191 -2.0129 -1.3834 -0.7382
   49MOL   H83741253   2.504   3.109   0.934  0.3126 -0.8819 -0.0009
   49MOL   H83841254   2.614   3.059   1.061 -1.6551 -2.0345  0.8343
   49MOL   H83941255   2.410   2.945   1.079 -0.3341  0.1624 -1.0199
   49MOL   H84041256   2.429   3.028   1.221  0.1387 -0.1500 -0.8285
   49MOL   H84141257   2.312   3.091   1.113 -0.1039 -0.6520  0.0199
   49MOL   H84241258   3.156   4.368   1.030 -1.3105  0.3060  0.8989
   50MOL     C141259   5.149   5.869   7.578 -0.3276 -0.7151  0.3486
   50MOL     C241260   5.287   5.951   7.568 -0.3973  0.2040  0.7483
   50MOL     C341261   5.363   5.908   7.439 -0.7125 -0.0171  0.2343
   50MOL     C441262   5.421   5.774   7.444  0.3261  0.5351  0.0029
   50MOL     C541263   5.435   5.700   7.310 -0.0256 -0.4331  0.4712
   50MOL     C641264   5.509   5.558   7.327  0.2213 -0.3517  0.2677
   50MOL     C741265   5.478   5.479   7.198 -0.8035 -0.6293  0.0052
   50MOL     C841266   5.527   5.339   7.213 -0.5183 -0.9030 -0.3389
   50MOL     C941267   5.522   5.252   7.087 -0.5421 -0.4238 -0.3972
   50MOL    C1041268   5.372   5.237   7.044 -0.8634  0.2322  0.1738
   50MOL    C1141269   5.339   5.118   6.952 -0.6017 -0.2419 -0.0276
   50MOL    C1241270   5.203   5.126   6.882 -0.1546  0.7558  0.5524
   50MOL    C1341271   5.073   5.126   6.966  0.2576  0.5310  0.5166
   50MOL    C1441272   4.951   5.184   6.892  0.6372 -0.0688 -0.2790
   50MOL    H1541273   5.119   5.877   7.682  3.4291 -0.3096  1.4777
   50MOL    H1641274   5.156   5.763   7.553  0.9143 -0.9993  1.8037
   50MOL    H1741275   5.346   5.918   7.653  0.3982 -0.7215 -0.1499
   50MOL    H1841276   5.293   5.909   7.356  0.8501 -0.1535 -1.1169
   50MOL    H1941277   5.447   5.974   7.417 -1.3901  0.6193 -0.5007
   50MOL    H2041278   5.356   5.712   7.507  0.7296 -1.2465 -1.2942
   50MOL    H2141279   5.517   5.778   7.494 -0.6698 -0.1993  2.0244
   50MOL    H2241280   5.499   5.756   7.241  0.7806  1.9056  2.9980
   50MOL    H2341281   5.341   5.676   7.259  1.0217  3.6360 -3.7359
   50MOL    H2441282   5.475   5.492   7.407 -1.7319  1.9132  1.3739
   50MOL    H2541283   5.617   5.565   7.339  0.4180 -0.9840 -1.1437
   50MOL    H2641284   5.370   5.470   7.194 -0.7199 -1.6538 -0.0470
   50MOL    H2741285   5.510   5.540   7.114  0.1210 -0.1762  0.6676
   50MOL    H2841286   5.472   5.293   7.296 -0.2885  1.8167  1.3769
   50MOL    H2941287   5.626   5.328   7.257  0.1275  1.1295 -1.2499
   50MOL    H3041288   5.579   5.297   7.005 -0.1282 -0.0497  0.0993
   50MOL    H3141289   5.563   5.152   7.100  3.5227  1.2466  0.4694
   50MOL    H3241290   5.310   5.225   7.132 -1.6021 -0.0607 -0.3803
   50MOL    H3341291   5.366   5.329   6.985 -0.5889 -0.6560 -1.2645
   50MOL    H3441292   5.416   5.119   6.875 -1.5192 -0.2371 -0.9724
   50MOL    H3541293   5.347   5.022   7.004  0.9303 -0.7753 -1.1999
   50MOL    H3641294   5.207   5.043   6.812 -3.8954  1.4487 -0.5940
   50MOL    H3741295   5.207   5.217   6.822 -0.3203  1.5291  1.6744
   50MOL    H3841296   5.043   5.029   7.006 -0.5045  0.8924  0.8434
   50MOL    H3941297   5.088   5.187   7.055 -1.1650  1.4025  0.1758
   50MOL    H4041298   4.856   5.162   6.940  1.3981 -1.1834  0.7327
   50MOL    H4141299   4.962   5.293   6.887 -1.9915  0.2341 -0.1199
   50MOL    H4241300   4.956   5.142   6.792  0.2496  0.9432 -0.7303
   50MOL    H4341301   5.070   5.918   7.521  0.6474  1.9244  1.2010
   50MOL    C4441302   5.261   6.103   7.576 -0.1758  0.2248 -0.7165
   50MOL    C4541303   5.202   6.152   0.021 -0.3088 -1.0431  0.5754
   50MOL    C4641304   5.111   6.274   7.688  0.4802  0.1492  0.6942
   50MOL    C4741305   5.171   6.374   7.599  0.0282  0.0722  0.6469
   50MOL    C4841306   5.088   6.509   7.600  0.3925  0.4854 -0.1646
   50MOL    C4941307   5.147   6.607   7.507  0.4585 -0.3835  0.9598
   50MOL    C5041308   5.065   6.735   7.505 -0.2783  0.4383  0.0284
   50MOL    C5141309   5.122   6.850   7.426 -0.9450 -1.1665  0.4712
   50MOL    C5241310   5.027   6.964   7.409 -0.1745  0.6719  0.6945
   50MOL    C5341311   5.100   7.084   7.344 -0.3480 -1.2099 -0.5979
   50MOL    C5441312   5.012   7.167   7.246 -0.6506  0.1975 -0.2352
   50MOL    C5541313   5.093   7.272   7.170 -0.0745 -0.2070  0.4525
   50MOL    C5641314   5.001   7.368   7.090 -0.0723 -0.2967  0.6085
   50MOL    C5741315   5.066   7.449   6.970 -0.6560  0.1280  0.1049
   50MOL    H5841316   5.350   6.161   7.553 -0.6719  0.7595 -1.2980
   50MOL    H5941317   5.192   6.121   7.494 -3.1135  1.4859  1.8985
   50MOL    H6041318   5.133   6.076   0.057 -1.8738 -1.1319 -2.5374
   50MOL    H6141319   5.012   6.246   7.651  0.7927 -0.3599  0.2391
   50MOL    H6241320   5.085   6.309   0.093 -0.9213  0.1728  0.3408
   50MOL    H6341321   5.181   6.350   7.493 -0.1760  1.8505  0.2112
   50MOL    H6441322   5.276   6.382   7.625  0.9830 -0.8969 -2.6417
   50MOL    H6541323   5.088   6.551   0.005  2.1588  0.6655 -0.2271
   50MOL    H6641324   4.987   6.491   7.563  0.1056 -0.4293  1.0006
   50MOL    H6741325   5.252   6.628   7.529  0.3759  1.6299 -0.4899
   50MOL    H6841326   5.143   6.567   7.405 -0.7294  0.2851  0.7318
   50MOL    H6941327   4.960   6.714   7.484  0.6205 -2.7514 -1.6763
   50MOL    H7041328   5.068   6.771   7.608  0.0164 -1.3668  0.6675
   50MOL    H7141329   5.147   6.823   7.324  3.1926 -0.2180  1.1647
   50MOL    H7241330   5.215   6.886   7.471 -0.3319 -0.6609 -1.1811
   50MOL    H7341331   4.946   6.931   7.343 -0.1633  2.6122 -0.3232
   50MOL    H7441332   4.976   6.997   7.499  1.2870  1.6385  1.1773
   50MOL    H7541333   5.188   7.053   7.287 -0.0861  0.5685 -1.1934
   50MOL    H7641334   5.139   7.160   7.412 -3.7424  0.0161  0.0538
   50MOL    H7741335   4.939   7.220   7.307 -0.2510  0.6410 -0.1471
   50MOL    H7841336   4.947   7.110   7.180 -1.6931  2.8948 -1.6263
   50MOL    H7941337   5.161   7.323   7.238 -0.2087 -0.9666  1.1571
   50MOL    H8041338   5.169   7.227   7.105  2.0618  1.2588  1.8441
   50MOL    H8141339   4.977   7.441   7.167  0.7032  0.8869 -0.2543
   50MOL    H8241340   4.912   7.319   7.051 -1.1206 -0.4516  3.0995
   50MOL    H8341341   5.162   7.481   7.011 -0.2037 -3.1040  1.8138
   50MOL    H8441342   5.001   7.531   6.942 -2.3154 -0.1366  2.9795
   50MOL    H8541343   5.090   7.386   6.884 -0.4894  0.3100  0.0191
   50MOL    C8641344   5.312   6.168   0.134  0.2128  0.3496  0.7018
   50MOL    C8741345   5.279   6.112   0.278  0.3260  0.6513 -0.3454
   50MOL    C8841346   5.253   5.958   0.274  0.0303  0.1373  0.8534
   50MOL    C8941347   5.363   5.858   0.244 -0.0996  0.2669  0.2796
   50MOL    C9041348   5.417   5.799   0.375  0.0834 -0.3105  0.5700
   50MOL    C9141349   5.533   5.699   0.368  0.2481 -0.3968 -0.2210
   50MOL    C9241350   5.581   5.654   0.507 -0.0783  0.7348  0.8378
   50MOL    C9341351   5.670   5.535   0.505  1.1974  0.2386  0.2127
   50MOL    C9441352   5.811   5.569   0.475  0.0794  0.4824  0.3152
   50MOL    C9541353   5.905   5.450   0.486  0.3954  0.8142 -0.1676
   50MOL    C9641354   6.038   5.474   0.413  0.4070 -0.4733 -0.3111
   50MOL    C9741355   6.126   5.344   0.411  0.8404 -0.2672  0.1159
   50MOL    C9841356   6.279   5.352   0.375  0.0872  0.6993  0.3654
   50MOL    C9941357   6.331   5.209   0.377 -0.0046 -0.0651 -0.4143
   50MOL   H10041358   5.406   6.122   0.106 -0.6861  0.3848 -2.5074
   50MOL   H10141359   5.332   6.274   0.149 -2.5369  1.2022 -1.3241
   50MOL   H10241360   5.368   6.132   0.338 -0.6617  0.9748  1.0331
   50MOL   H10341361   5.197   5.927   0.362 -0.0609  1.2609  1.1948
   50MOL   H10441362   5.172   5.939   0.204  2.0829 -0.7017 -1.3407
   50MOL   H10541363   5.329   5.780   0.176 -0.2669 -0.2801  0.9844
   50MOL   H10641364   5.445   5.907   0.190 -0.0697  1.9005  1.7789
   50MOL   H10741365   5.342   5.743   0.431  1.5141 -3.0954 -0.1648
   50MOL   H10841366   5.444   5.880   0.442 -1.1959  0.1915  0.4877
   50MOL   H10941367   5.618   5.743   0.315  1.4556 -1.9004  0.4186
   50MOL   H11041368   5.507   5.609   0.311 -0.4970 -0.1788 -0.2293
   50MOL   H11141369   5.626   5.739   0.558 -1.1937  1.6098  0.3828
   50MOL   H11241370   5.501   5.624   0.574 -1.4421 -0.1482 -1.1685
   50MOL   H11341371   5.621   5.452   0.453 -1.7794  1.6670  0.6315
   50MOL   H11441372   5.670   5.491   0.605 -0.0217 -3.4099 -1.2669
   50MOL   H11541373   5.818   5.607   0.373 -0.6664 -0.1842  0.0128
   50MOL   H11641374   5.834   5.643   0.552 -0.5792 -0.3390  1.3157
   50MOL   H11741375   5.854   5.371   0.430  0.7145  0.0351  0.6330
   50MOL   H11841376   5.915   5.440   0.594 -2.6793  1.4829  0.2236
   50MOL   H11941377   6.005   5.499   0.312  1.9653 -0.5612 -0.8551
   50MOL   H12041378   6.086   5.558   0.462  0.9471 -1.0070  0.0773
   50MOL   H12141379   6.122   5.309   0.514  0.0310  3.6464  1.4857
   50MOL   H12241380   6.067   5.268   0.360 -2.3223  0.6109  2.3193
   50MOL   H12341381   6.345   5.413   0.436  0.9736 -0.0203  0.1387
   50MOL   H12441382   6.287   5.404   0.279 -2.1360  2.1991  0.9594
   50MOL   H12541383   6.313   5.159   0.282  0.0606 -1.2216  0.1648
   50MOL   H12641384   6.440   5.207   0.389 -0.2149  1.0358  1.8119
   50MOL   H12741385   6.286   5.149   0.456  0.2060 -0.8504 -0.8851
   50MOL   C12841386   5.168   6.182   0.350  0.0719 -0.4462 -0.0239
   50MOL   C12941387   5.172   6.167   0.509  0.2542 -0.1372 -0.0523
   50MOL   C13041388   5.278   6.266   0.566 -0.3044 -0.0711 -0.1097
   50MOL   C13141389   5.339   6.234   0.706 -0.5335 -0.4725  0.0178
   50MOL   C13241390   5.437   6.117   0.702 -0.1513 -0.5639 -0.6967
   50MOL   C13341391   5.476   6.049   0.830  0.8123 -0.2425 -0.8852
   50MOL   C13441392   5.552   5.924   0.800  0.0780  0.2099 -0.0976
   50MOL   C13541393   5.645   5.873   0.914 -0.1021 -0.2642  0.4898
   50MOL   C13641394   5.771   5.959   0.933 -0.2170 -0.1547  0.0244
   50MOL   C13741395   5.881   5.875   1.004 -0.3019 -0.5111 -0.5280
   50MOL   C13841396   5.935   5.773   0.904  0.3713 -0.2337  0.1774
   50MOL   C13941397   6.075   5.714   0.958  0.3655 -0.0019 -0.4920
   50MOL   C14041398   6.127   5.608   0.861  0.1951 -0.4173 -0.6285
   50MOL   C14141399   6.246   5.519   0.914 -0.3547  1.0275  0.3272
   50MOL   H14241400   5.171   6.290   0.333 -0.3729  0.0147  2.5593
   50MOL   H14341401   5.067   6.160   0.314 -0.4504 -0.2764  1.3121
   50MOL   H14441402   5.211   6.071   0.543 -0.4858 -0.5037 -0.2208
   50MOL   H14541403   5.363   6.276   0.497 -0.1797  0.0238  0.0577
   50MOL   H14641404   5.222   6.359   0.575  0.1771  0.2865 -0.7554
   50MOL   H14741405   5.391   6.318   0.753  0.5604  1.0099 -3.6689
   50MOL   H14841406   5.258   6.209   0.775 -1.0765 -1.6749 -1.0494
   50MOL   H14941407   5.396   6.037   0.640 -1.2456 -0.6342  0.1123
   50MOL   H15041408   5.527   6.150   0.651  0.9246 -2.4247 -0.0566
   50MOL   H15141409   5.536   6.116   0.891  0.1199  0.5741 -1.0835
   50MOL   H15241410   5.393   6.021   0.894  1.4624 -0.2455 -0.0419
   50MOL   H15341411   5.478   5.850   0.770 -2.0609  0.6846  3.6471
   50MOL   H15441412   5.602   5.938   0.705  0.1924 -1.1203 -0.2300
   50MOL   H15541413   5.572   5.852   0.993 -0.5984 -1.3854 -0.2441
   50MOL   H15641414   5.671   5.770   0.887 -2.0111 -0.3310 -1.2799
   50MOL   H15741415   5.803   6.006   0.840 -0.0687 -0.5108 -0.1057
   50MOL   H15841416   5.763   6.044   1.001  5.0483 -0.0994  0.7992
   50MOL   H15941417   5.840   5.824   1.091 -0.3883 -2.4182 -1.6696
   50MOL   H16041418   5.957   5.949   1.030 -0.9915  0.3396 -0.8750
   50MOL   H16141419   5.865   5.691   0.892 -1.4755  1.4807 -1.1026
   50MOL   H16241420   5.939   5.819   0.805  0.9647 -2.7100 -0.9947
   50MOL   H16341421   6.146   5.795   0.978 -0.2204  0.2716  0.5427
   50MOL   H16441422   6.050   5.663   1.051  1.3340  1.7917  0.7927
   50MOL   H16541423   6.048   5.545   0.821 -2.1822  0.4937  2.4624
   50MOL   H16641424   6.168   5.666   0.778  0.5355  1.4734  0.8426
   50MOL   H16741425   6.216   5.467   1.005 -0.2271 -0.4168 -0.4379
   50MOL   H16841426   6.263   5.442   0.839  0.8371  1.4547  0.1411
   50MOL   H16941427   6.346   5.557   0.934 -0.7333  1.1846  2.0134
   50MOL   C17041428   5.043   6.199   0.577 -0.4926  0.1227 -0.1983
   50MOL   C17141429   4.942   6.084   0.561 -0.0755  0.1073  0.1947
   50MOL   C17241430   4.972   5.966   0.664  0.1082  0.4258  0.1854
   50MOL   C17341431   4.913   5.831   0.623  0.2676 -1.3500 -0.2910
   50MOL   C17441432   4.972   5.768   0.502  0.6979  0.4043  0.2394
   50MOL   C17541433   4.936   5.618   0.485  0.2219 -0.1588 -0.5086
   50MOL   C17641434   4.945   5.561   0.344  0.0278  0.4536  0.0057
   50MOL   C17741435   5.092   5.548   0.299 -0.4407  0.8384  0.8941
   50MOL   C17841436   5.098   5.501   0.146  0.1713 -0.5975 -0.6522
   50MOL   C17941437   5.240   5.481   0.092  0.3042 -0.0938 -0.5370
   50MOL   C18041438   5.330   5.392   0.175 -0.1005  0.4782  0.3324
   50MOL   C18141439   5.421   5.294   0.101 -0.3106  0.3496 -0.2004
   50MOL   C18241440   5.546   5.364   0.046  0.3338 -0.6958  0.1679
   50MOL   C18341441   5.630   5.259   7.662  0.3464 -0.5138 -0.2330
   50MOL   H18441442   5.000   6.294   0.543 -0.7514 -0.7733 -2.4957
   50MOL   H18541443   5.053   6.205   0.685  0.2486  0.5247 -0.2826
   50MOL   H18641444   4.946   6.047   0.459 -1.7233  0.4863 -0.0279
   50MOL   H18741445   5.080   5.957   0.666  0.0738  0.0439  0.2564
   50MOL   H18841446   4.935   6.003   0.760  0.1534  0.2440  0.2714
   50MOL   H18941447   4.931   5.755   0.699 -0.6764 -0.6423  0.6605
   50MOL   H19041448   4.804   5.842   0.623  0.4520  1.3041  3.4330
   50MOL   H19141449   4.928   5.818   0.415 -1.0798  2.6242  2.3180
   50MOL   H19241450   5.080   5.776   0.500  0.5208  3.3983  0.3923
   50MOL   H19341451   4.834   5.596   0.517 -0.2583  1.9655 -0.5162
   50MOL   H19441452   5.001   5.563   0.553  0.8874 -0.7883 -1.6436
   50MOL   H19541453   4.881   5.629   0.287  1.9014  2.6031  0.3544
   50MOL   H19641454   4.892   5.467   0.335 -1.4836  1.3976 -1.1056
   50MOL   H19741455   5.146   5.480   0.364 -1.1240  0.6210  1.2341
   50MOL   H19841456   5.143   5.644   0.310  1.9242 -0.3856  0.9890
   50MOL   H19941457   5.045   5.576   0.088  1.0181  0.3605 -0.2004
   50MOL   H20041458   5.033   5.416   0.125 -0.1248 -0.4837 -0.2171
   50MOL   H20141459   5.311   5.563   0.080  0.5941 -0.2444  0.1027
   50MOL   H20241460   5.234   5.445   7.685  0.7962 -1.2563 -0.1638
   50MOL   H20341461   5.262   5.334   0.237  1.0480 -0.1455  1.0309
   50MOL   H20441462   5.382   5.448   0.254  1.1307  0.8174 -0.7027
   50MOL   H20541463   5.451   5.207   0.160  2.4674  0.5579 -1.2507
   50MOL   H20641464   5.358   5.255   0.022 -1.8335  1.5094  0.4231
   50MOL   H20741465   5.502   5.430   7.667  2.3572  1.3289  0.7452
   50MOL   H20841466   5.606   5.417   0.119 -0.1349 -0.9986  0.7795
   50MOL   H20941467   5.726   5.298   7.629 -0.4257  1.5231 -0.1757
   50MOL   H21041468   5.581   5.226   7.570 -2.6509 -2.4887  1.9475
   50MOL   H21141469   5.644   5.163   0.016 -2.7958 -0.8121  0.2045
   50MOL   C21241470   4.788   6.122   0.582 -0.1335  0.1494  0.0926
   50MOL   C21341471   4.681   6.069   0.479 -0.2105 -0.5601  0.3389
   50MOL   C21441472   4.534   6.064   0.526 -0.4629  0.0948  0.9032
   50MOL   C21541473   4.509   6.003   0.668  0.1418  0.3667  0.3920
   50MOL   C21641474   4.513   6.100   0.788 -0.1558  0.2747 -0.4907
   50MOL   C21741475   4.530   6.028   0.924  0.3913 -0.6681  0.1865
   50MOL   C21841476   4.579   6.123   1.032  0.1510 -1.0045  0.4140
   50MOL   C21941477   4.589   6.061   1.171 -0.0314 -0.4149 -0.0559
   50MOL   C22041478   4.623   6.165   1.280  0.1151  1.0568 -0.3454
   50MOL   C22141479   4.656   6.109   1.418  0.4815  0.3221 -0.0175
   50MOL   C22241480   4.799   6.036   1.425 -0.4381  0.3477 -0.3759
   50MOL   C22341481   4.863   6.028   1.568  0.1893 -0.7366  0.2503
   50MOL   C22441482   4.784   5.943   1.665 -0.3257  0.5749  0.4200
   50MOL   C22541483   4.829   5.962   1.812  0.2145  0.4820  0.2113
   50MOL   H22641484   4.779   6.230   0.585  1.1522  0.3335 -1.7899
   50MOL   H22741485   4.756   6.082   0.678 -0.0889 -1.3278 -0.4870
   50MOL   H22841486   4.726   5.972   0.459  0.7967 -0.2467  1.0354
   50MOL   H22941487   4.511   6.170   0.534  1.5992  0.8475 -2.3050
   50MOL   H23041488   4.478   6.008   0.451 -0.2749 -0.6206  1.2840
   50MOL   H23141489   4.591   5.934   0.688 -1.5048 -1.2433  1.8045
   50MOL   H23241490   4.414   5.951   0.670 -0.9453  2.2650 -0.4075
   50MOL   H23341491   4.423   6.161   0.797  1.7890  2.9431  1.4607
   50MOL   H23441492   4.589   6.177   0.773  1.6451 -1.5598 -1.1333
   50MOL   H23541493   4.597   5.942   0.925  0.4396 -0.6312  1.8910
   50MOL   H23641494   4.433   5.996   0.962 -1.3154  2.4440 -1.2759
   50MOL   H23741495   4.670   6.168   0.994 -1.2588  0.8917 -0.8283
   50MOL   H23841496   4.513   6.209   1.046  0.4331 -0.8241  0.6543
   50MOL   H23941497   4.497   6.010   1.198  0.6346 -1.2590  0.6605
   50MOL   H24041498   4.667   5.986   1.160 -0.1356 -0.9462  2.5205
   50MOL   H24141499   4.543   6.237   1.293 -1.1981 -0.6109  1.0291
   50MOL   H24241500   4.711   6.216   1.241 -0.0693  1.1732 -0.6015
   50MOL   H24341501   4.651   6.193   1.487 -2.5718  0.7382 -0.6788
   50MOL   H24441502   4.585   6.034   1.452 -1.0196  2.2676  1.2612
   50MOL   H24541503   4.864   6.100   1.365  0.1428 -0.3187 -0.4665
   50MOL   H24641504   4.809   5.939   1.377  1.9975  0.1839  0.3742
   50MOL   H24741505   4.876   6.127   1.612  0.3615 -0.1510 -1.1079
   50MOL   H24841506   4.969   6.004   1.561 -0.5816 -4.6093  0.3804
   50MOL   H24941507   4.797   5.837   1.644 -1.1446  0.3548  1.0046
   50MOL   H25041508   4.678   5.965   1.670 -0.1416  1.5872  0.1089
   50MOL   H25141509   4.798   6.059   1.850  2.3781  0.3264  2.4494
   50MOL   H25241510   4.775   5.894   1.878  2.5584 -1.1798  0.4863
   50MOL   H25341511   4.937   5.950   1.824  0.5327  1.6374 -1.3359
   50MOL   C25441512   4.694   6.148   0.350  0.1701 -0.0992  0.2626
   50MOL   C25541513   4.638   6.091   0.221  0.1184  0.4594  0.2023
   50MOL   C25641514   4.647   6.198   0.109  0.4760  0.3301  0.4424
   50MOL   C25741515   4.562   6.171   7.677  0.3472  0.6871 -0.7239
   50MOL   C25841516   4.529   6.300   7.600 -0.7276  0.0960 -0.2865
   50MOL   C25941517   4.647   6.342   7.516 -0.0899  0.3962  0.0695
   50MOL   C26041518   4.624   6.457   7.420 -0.3004  0.3679 -0.2761
   50MOL   C26141519   4.743   6.506   7.345  0.2062 -0.4122 -0.5478
   50MOL   C26241520   4.718   6.624   7.252  0.9287 -0.4368  0.3574
   50MOL   C26341521   4.835   6.665   7.167  0.2405  0.5074  0.2400
   50MOL   C26441522   4.795   6.760   7.051 -0.0838 -0.3603  0.7008
   50MOL   C26541523   4.924   6.798   6.970 -0.0848 -0.3675 -0.1865
   50MOL   C26641524   4.912   6.924   6.890 -0.2089 -0.9681 -0.2671
   50MOL   C26741525   5.049   6.971   6.839 -1.0066  0.0054  0.4473
   50MOL   H26841526   4.802   6.146   0.334  0.3394  0.6930  1.2647
   50MOL   H26941527   4.683   6.256   0.363 -1.9002 -0.3982  1.1121
   50MOL   H27041528   4.530   6.092   0.239  0.0737  0.6690 -0.0611
   50MOL   H27141529   4.748   6.205   0.068  0.0970  0.3519 -0.5050
   50MOL   H27241530   4.613   6.290   0.155  0.5673  1.1345 -1.0556
   50MOL   H27341531   4.473   6.130   0.028  1.8661  1.1714  2.7238
   50MOL   H27441532   4.609   6.092   7.619  3.9463  2.4562 -0.4068
   50MOL   H27541533   4.488   6.378   7.663  0.6874 -0.2599  1.1202
   50MOL   H27641534   4.453   6.264   7.531  0.6537 -0.1529 -1.7198
   50MOL   H27741535   4.678   6.262   7.448 -0.7746  0.9097 -0.8623
   50MOL   H27841536   4.732   6.355   7.583 -0.4386 -0.9202  0.7800
   50MOL   H27941537   4.546   6.426   7.351  0.9483 -2.5276 -0.4578
   50MOL   H28041538   4.584   6.533   7.486 -0.3950 -0.7358  0.9663
   50MOL   H28141539   4.775   6.424   7.282  0.6368  0.1086 -1.0156
   50MOL   H28241540   4.819   6.540   7.416 -0.9238 -1.5545  1.2288
   50MOL   H28341541   4.631   6.615   7.186  2.3341  0.3274 -1.6379
   50MOL   H28441542   4.696   6.713   7.311  0.0626  0.5281 -1.3641
   50MOL   H28541543   4.888   6.574   7.136 -0.1581  0.0129  0.9796
   50MOL   H28641544   4.917   6.706   7.225  1.8546 -1.2730 -0.6997
   50MOL   H28741545   4.734   6.841   7.091 -0.2151 -0.9051  1.6020
   50MOL   H28841546   4.720   6.707   6.992  0.0472  0.1403  0.0705
   50MOL   H28941547   5.003   6.826   7.040 -0.6765  2.8571 -0.7185
   50MOL   H29041548   4.957   6.712   6.913  0.6942 -0.3877  0.2967
   50MOL   H29141549   4.853   6.896   6.802 -0.2350 -1.4645 -0.0904
   50MOL   H29241550   4.860   7.004   6.943  2.4443 -0.1820  1.2177
   50MOL   H29341551   5.023   7.036   6.755 -0.0878 -0.5065 -0.2502
   50MOL   H29441552   5.103   6.897   6.781 -0.9825  1.6768 -1.7374
   50MOL   H29541553   5.107   7.028   6.911 -0.6060  0.6913 -0.3975
   50MOL   C29641554   4.680   5.946   0.187  0.1050 -0.0785  0.1971
   50MOL   C29741555   4.587   5.860   0.095  0.0983 -0.5376 -0.5265
   50MOL   C29841556   4.669   5.734   0.039  0.6835 -0.0955  0.0776
   50MOL   C29941557   4.802   5.750   7.673 -0.2431 -0.2080 -0.0875
   50MOL   C30041558   4.822   5.665   7.536 -0.1181 -0.0765 -0.4400
   50MOL   C30141559   4.740   5.721   7.419 -0.0681  0.1956 -0.5534
   50MOL   C30241560   4.764   5.642   7.287 -0.6463 -0.8667  0.2755
   50MOL   C30341561   4.909   5.664   7.228 -0.0681 -0.4651 -0.3378
   50MOL   C30441562   4.929   5.605   7.086 -0.2412  0.0729 -0.2267
   50MOL   C30541563   5.077   5.624   7.042 -0.6623  0.4096  0.6507
   50MOL   C30641564   5.108   5.549   6.902 -0.1327  0.1252  0.3936
   50MOL   C30741565   5.258   5.567   6.864  0.0609 -0.1290  0.1745
   50MOL   C30841566   5.297   5.501   6.731 -0.0695 -0.1995 -0.6016
   50MOL   C30941567   5.443   5.492   6.710 -0.1745  0.5858 -0.2154
   50MOL   H31041568   4.694   5.882   0.274 -1.0376 -2.8468 -1.5869
   50MOL   H31141569   4.773   5.958   0.131 -0.4343 -1.0433 -0.9301
   50MOL   H31241570   4.553   5.919   0.010  2.9772  1.2622 -0.5155
   50MOL   H31341571   4.608   5.695   7.653 -1.1811 -2.4806  2.4912
   50MOL   H31441572   4.660   5.653   0.112  1.6720 -1.4746 -1.2989
   50MOL   H31541573   4.875   5.714   0.051 -1.4014 -3.6781 -0.5175
   50MOL   H31641574   4.827   5.854   7.655  0.6619 -0.1501  1.4739
   50MOL   H31741575   4.927   5.675   7.506 -0.7752  1.4610 -2.3370
   50MOL   H31841576   4.792   5.560   7.545  0.2147 -0.1761 -0.4672
   50MOL   H31941577   4.769   5.824   7.404 -0.8612  0.2302 -1.9355
   50MOL   H32041578   4.633   5.719   7.440  0.1767  3.3061  1.2412
   50MOL   H32141579   4.739   5.539   7.315 -2.4637 -0.8687 -1.3136
   50MOL   H32241580   4.689   5.674   7.216 -1.0219 -3.3812 -0.5074
   50MOL   H32341581   4.985   5.626   7.296 -0.5587 -1.0439 -0.1071
   50MOL   H32441582   4.927   5.771   7.216  1.0353 -0.5486  0.5468
   50MOL   H32541583   4.897   5.501   7.084 -1.6856  0.5094 -0.1279
   50MOL   H32641584   4.866   5.670   7.026 -0.6110 -0.7080 -0.6810
   50MOL   H32741585   5.146   5.574   7.111  1.0148  1.4039 -0.2517
   50MOL   H32841586   5.106   5.729   7.033 -0.1755  0.1995 -0.3721
   50MOL   H32941587   5.039   5.601   6.836  2.0849  4.0791  1.0145
   50MOL   H33041588   5.092   5.442   6.908  1.2458 -0.2534 -2.2145
   50MOL   H33141589   5.327   5.543   6.945 -0.4684  0.7450  0.9052
   50MOL   H33241590   5.274   5.675   6.854 -0.3125 -0.1174 -0.3076
   50MOL   H33341591   5.249   5.562   6.654 -2.5703  0.3469  1.2949
   50MOL   H33441592   5.256   5.401   6.719 -0.6448  0.3301 -3.4567
   50MOL   H33541593   5.484   5.441   6.797 -0.2968 -0.6072 -0.8398
   50MOL   H33641594   5.471   5.430   6.624  1.8473 -1.2380  1.6901
   50MOL   H33741595   5.489   5.590   6.702 -1.2634  1.1360  0.2062
   50MOL   C33841596   4.456   5.820   0.168  0.6072  0.2512 -0.1844
   50MOL   C33941597   4.343   5.725   0.097 -0.1527  0.3626  0.7307
   50MOL   C34041598   4.230   5.702   0.195  0.8639 -0.6670 -0.3137
   50MOL   C34141599   4.111   5.619   0.151 -0.6031 -0.2779 -0.0281
   50MOL   C34241600   4.048   5.556   0.275 -0.7498 -0.1110  0.3491
   50MOL   C34341601   3.927   5.464   0.239 -0.1239 -0.0008 -0.0753
   50MOL   C34441602   3.937   5.332   0.321  0.3378  0.2649 -0.2270
   50MOL   C34541603   4.022   5.223   0.248 -0.2912 -0.0346 -0.0853
   50MOL   C34641604   4.010   5.081   0.315 -0.6062  0.1775 -0.8845
   50MOL   C34741605   4.074   5.070   0.451 -0.4929 -0.5018 -0.3280
   50MOL   C34841606   4.086   4.920   0.507  0.1169 -0.6334  0.3158
   50MOL   C34941607   4.163   4.911   0.638 -0.8510  0.0232 -0.1314
   50MOL   C35041608   4.318   4.926   0.618 -0.4268  0.2737  0.3131
   50MOL   C35141609   4.394   4.941   0.748 -0.1271 -0.3541 -0.3279
   50MOL   H35241610   4.476   5.773   0.265 -1.6903 -0.6695 -0.1097
   50MOL   H35341611   4.405   5.914   0.191  1.5001  0.6973 -0.0141
   50MOL   H35441612   4.392   5.629   0.083  0.0552  0.7339 -1.2436
   50MOL   H35541613   4.268   5.664   0.290  0.5763 -1.6127 -0.5715
   50MOL   H35641614   4.180   5.796   0.218 -0.1301 -1.2259 -0.1375
   50MOL   H35741615   4.146   5.546   0.078 -2.5001 -1.7030  0.4192
   50MOL   H35841616   4.032   5.678   0.105  0.0555  0.3843 -0.3160
   50MOL   H35941617   4.027   5.637   0.346  2.8982  1.3020 -0.0358
   50MOL   H36041618   4.118   5.494   0.330  1.7361  0.6838 -1.7830
   50MOL   H36141619   3.835   5.519   0.259  1.5562  1.5178  3.9767
   50MOL   H36241620   3.929   5.442   0.132 -1.9853 -1.6895  0.2053
   50MOL   H36341621   3.975   5.341   0.423 -1.9596 -1.6762  0.8432
   50MOL   H36441622   3.834   5.297   0.331  0.0284  1.0010 -0.8252
   50MOL   H36541623   3.987   5.220   0.145  0.1600  3.1026 -0.3749
   50MOL   H36641624   4.128   5.247   0.237 -0.3819  0.1889 -0.4874
   50MOL   H36741625   3.903   5.061   0.331  0.2590 -3.5226  1.0354
   50MOL   H36841626   4.044   4.998   0.253 -0.0711 -0.3641  0.1133
   50MOL   H36941627   4.173   5.112   0.431  0.2836 -2.5089 -0.8431
   50MOL   H37041628   4.019   5.140   0.513  0.7206 -0.2901  0.5296
   50MOL   H37141629   4.143   4.867   0.431 -1.4777 -2.4015  0.3352
   50MOL   H37241630   3.994   4.866   0.526 -1.0946  0.8483 -1.2192
   50MOL   H37341631   4.140   4.814   0.681 -0.7955  0.2076  0.3208
   50MOL   H37441632   4.110   4.975   0.709 -1.3835 -2.9530  2.2586
   50MOL   H37541633   4.358   4.839   0.566 -2.5313 -0.9586  0.7026
   50MOL   H37641634   4.350   5.010   0.557 -0.2985 -0.3081 -0.4388
   50MOL   H37741635   4.356   4.897   0.840  2.6567  1.7423  1.9317
   50MOL   H37841636   4.487   4.887   0.728  0.2216  0.0457  0.1908
   50MOL   H37941637   4.412   5.047   0.765  1.2366 -0.6372  0.0906
   50MOL   C38041638   4.282   5.792   7.662 -0.1125  0.2523 -0.2359
   50MOL   C38141639   4.321   5.728   7.524  0.6743 -0.0844  0.8967
   50MOL   C38241640   4.268   5.582   7.513 -1.2388  0.1583 -0.2712
   50MOL   C38341641   4.321   5.502   7.392  0.4912 -1.0542 -0.3827
   50MOL   C38441642   4.456   5.441   7.417  0.0655  0.4563 -0.0721
   50MOL   C38541643   4.496   5.354   7.303  0.6204 -0.3488 -0.7022
   50MOL   C38641644   4.632   5.279   7.328  0.5659 -0.5612  0.5257
   50MOL   C38741645   4.660   5.181   7.207  0.4213 -0.2770  0.1574
   50MOL   C38841646   4.757   5.061   7.215 -0.5240  0.3056  0.0222
   50MOL   C38941647   4.718   4.960   7.320 -0.4027  0.2920 -0.0560
   50MOL   C39041648   4.811   4.840   7.302 -0.2974  0.3366 -0.2392
   50MOL   C39141649   4.784   4.711   7.391  0.0399  0.4402  0.3712
   50MOL   C39241650   4.835   4.738   7.534  0.2318  0.3062 -0.0468
   50MOL   C39341651   4.810   4.639   7.641 -0.0423 -0.4972 -0.1514
   50MOL   H39441652   4.311   5.897   7.664  3.2659 -0.6371  0.5027
   50MOL   H39541653   4.173   5.792   7.671 -0.1347  0.2661 -0.5120
   50MOL   H39641654   4.428   5.739   7.514  0.6947 -1.5494 -0.6409
   50MOL   H39741655   4.159   5.576   7.514 -1.2485  0.2571 -0.9220
   50MOL   H39841656   4.297   5.525   7.602 -0.5005  2.7450  1.2173
   50MOL   H39941657   4.322   5.558   7.298  0.0090 -0.6412 -0.1421
   50MOL   H40041658   4.248   5.425   7.367  0.9264 -1.3379 -0.7986
   50MOL   H40141659   4.458   5.375   7.504  2.0812 -2.6331 -2.3278
   50MOL   H40241660   4.525   5.522   7.439 -1.6557  1.3586  2.1219
   50MOL   H40341661   4.505   5.419   7.216  1.0681  1.9212  0.9999
   50MOL   H40441662   4.422   5.274   7.301  0.8458 -0.6068  0.7225
   50MOL   H40541663   4.717   5.343   7.353 -0.3230  0.9620 -0.2851
   50MOL   H40641664   4.611   5.227   7.422  1.0622 -0.3367  0.7668
   50MOL   H40741665   4.567   5.136   7.172 -0.1064 -1.2592  2.6657
   50MOL   H40841666   4.697   5.246   7.128 -2.4870 -1.7947 -2.5600
   50MOL   H40941667   4.773   5.005   7.123 -0.9603  1.3164 -0.6784
   50MOL   H41041668   4.857   5.084   7.252 -1.2618  0.7335  1.8374
   50MOL   H41141669   4.612   4.936   7.317  0.0090 -1.5986 -0.0001
   50MOL   H41241670   4.740   4.992   7.422 -1.9148  2.2861 -0.3346
   50MOL   H41341671   4.818   4.810   7.197  1.4396  0.4063 -0.1559
   50MOL   H41441672   4.916   4.862   7.319 -0.5687  1.3699  0.1222
   50MOL   H41541673   4.843   4.630   7.349 -0.2608  1.3335 -1.8047
   50MOL   H41641674   4.678   4.685   7.396  0.4064 -1.0355  0.8304
   50MOL   H41741675   4.941   4.761   7.530 -0.3149  2.5894 -2.6432
   50MOL   H41841676   4.784   4.828   7.570 -0.0627  1.1122 -2.4034
   50MOL   H41941677   4.709   4.601   7.627 -0.5750  0.0659  1.9422
   50MOL   H42041678   4.802   4.683   0.045  0.6879 -1.5621  0.3867
   50MOL   H42141679   4.889   4.564   7.646  1.4863  0.9581 -2.1330
   50MOL   C42241680   4.250   5.815   7.416 -0.0252  0.4800 -0.2887
   50MOL   C42341681   4.315   5.950   7.381  0.3385 -0.0383  0.2384
   50MOL   C42441682   4.415   5.953   7.259  0.3381  0.8301  0.2933
   50MOL   C42541683   4.530   6.055   7.262 -0.1499 -0.1078  0.2654
   50MOL   C42641684   4.607   6.057   7.134 -0.4431  0.5007 -0.1936
   50MOL   C42741685   4.689   6.187   7.112 -0.8505 -0.4233 -0.2715
   50MOL   C42841686   4.776   6.190   6.990 -0.3555 -0.1892  0.5142
   50MOL   C42941687   4.822   6.339   6.964  0.3345  0.1946  0.5010
   50MOL   C43041688   4.826   6.358   6.805  0.0068  0.1758 -0.1992
   50MOL   C43141689   4.889   6.489   6.754  0.2519 -0.1280  0.1148
   50MOL   C43241690   4.911   6.501   6.603  0.2736 -0.8392 -0.1101
   50MOL   C43341691   4.950   6.633   6.541 -0.4951  0.0774  0.4111
   50MOL   C43441692   4.949   6.629   6.385  0.2919  0.0293  0.8911
   50MOL   C43541693   4.818   6.621   6.319  0.4859 -0.4973  0.1084
   50MOL   H43641694   4.148   5.828   7.451 -0.7401 -3.5385 -0.6280
   50MOL   H43741695   4.243   5.764   7.319 -2.1618 -1.8577  1.0313
   50MOL   H43841696   4.379   5.979   7.465 -0.3215  1.3740  0.2576
   50MOL   H43941697   4.348   5.970   7.175 -0.0822 -1.1607  0.2002
   50MOL   H44041698   4.460   5.854   7.247 -1.2633  0.0148  0.8518
   50MOL   H44141699   4.492   6.154   7.289 -0.2267 -0.1783  0.4191
   50MOL   H44241700   4.598   6.030   7.344 -0.2877  1.8928  1.0079
   50MOL   H44341701   4.531   6.057   7.055 -1.1948 -0.6825  0.5269
   50MOL   H44441702   4.681   5.978   7.125  0.1270  0.5118  3.6526
   50MOL   H44541703   4.745   6.215   7.201 -2.2483 -0.0731  0.5185
   50MOL   H44641704   4.613   6.263   7.094 -1.6068 -1.1280 -0.0743
   50MOL   H44741705   4.861   6.122   6.993  0.0036  0.0675 -2.4605
   50MOL   H44841706   4.712   6.158   6.908 -0.1912 -2.0252  1.0802
   50MOL   H44941707   4.748   6.401   7.014 -1.4399 -0.8939 -0.6950
   50MOL   H45041708   4.912   6.373   7.016  1.5679 -0.0742 -1.3922
   50MOL   H45141709   4.885   6.275   6.766  1.1963 -1.2756  4.4111
   50MOL   H45241710   4.731   6.339   6.754 -0.1845  1.4103 -0.3088
   50MOL   H45341711   4.831   6.572   6.794  1.5998  0.6823  0.4521
   50MOL   H45441712   4.983   6.512   6.805 -0.3987  0.0843  1.2225
   50MOL   H45541713   4.975   6.421   6.565  1.7205  0.7935 -1.1675
   50MOL   H45641714   4.807   6.483   6.574 -0.3543  1.5959  0.5792
   50MOL   H45741715   5.042   6.676   6.582 -0.8035 -0.5715  1.8060
   50MOL   H45841716   4.883   6.713   6.573  0.0511  1.4362 -1.6896
   50MOL   H45941717   4.998   6.719   6.348 -0.2298  0.5425  1.4378
   50MOL   H46041718   5.021   6.558   6.345  1.4249  1.5589  0.1660
   50MOL   H46141719   4.775   6.521   6.325 -2.8400  0.7105 -2.1123
   50MOL   H46241720   4.827   6.638   6.212 -0.5928 -0.2363  0.0538
   50MOL   H46341721   4.742   6.686   6.362  2.3219  0.5279  1.8591
   50MOL   C46441722   4.205   6.061   7.359  0.1588  0.1625  0.4125
   50MOL   C46541723   4.102   6.099   7.472  0.2568  0.0640  0.4563
   50MOL   C46641724   4.167   6.168   7.591  0.9069 -0.3076 -0.1413
   50MOL   C46741725   4.072   6.171   0.020  0.0830 -0.2576 -0.1139
   50MOL   C46841726   4.139   6.235   0.146  0.5088 -0.6716 -0.3582
   50MOL   C46941727   4.021   6.263   0.235  0.0438 -0.0545 -0.1653
   50MOL   C47041728   4.054   6.370   0.347 -0.7558 -0.3050  0.2791
   50MOL   C47141729   4.143   6.312   0.452  0.1140 -0.1006 -0.3555
   50MOL   C47241730   4.224   6.423   0.518 -0.0877 -0.0506  0.0718
   50MOL   C47341731   4.132   6.506   0.608  0.2921  0.0578 -0.1019
   50MOL   C47441732   4.193   6.619   0.697  0.3429  0.1622  0.0048
   50MOL   C47541733   4.086   6.704   0.774 -0.1535  0.6364 -0.1609
   50MOL   C47641734   4.156   6.829   0.851  0.7075  0.2326  0.4007
   50MOL   C47741735   4.059   6.889   0.947 -0.1172 -0.4544 -0.3631
   50MOL   H47841736   4.154   6.036   7.265  1.0153 -1.7228  0.4472
   50MOL   H47941737   4.261   6.152   7.336 -1.7770  1.5523  0.9493
   50MOL   H48041738   4.057   6.005   7.504  2.3817 -0.7055  1.2863
   50MOL   H48141739   4.257   6.113   7.620  1.4298  1.5122  1.8470
   50MOL   H48241740   4.206   6.267   7.566  2.1738 -0.9609 -0.8272
   50MOL   H48341741   4.047   6.074   0.063 -1.0802  0.8019  1.7172
   50MOL   H48441742   3.979   6.219   7.687  1.6538  1.1407 -3.0945
   50MOL   H48541743   4.181   6.331   0.114  0.9709 -0.8727 -0.3507
   50MOL   H48641744   4.203   6.165   0.199  0.4371  0.1431  0.8374
   50MOL   H48741745   3.945   6.312   0.173 -1.9587 -2.1670  0.5298
   50MOL   H48841746   3.978   6.175   0.281  1.0671  0.3020  1.5053
   50MOL   H48941747   4.104   6.446   0.286  0.3187 -0.7271  0.6113
   50MOL   H49041748   3.963   6.408   0.392 -1.4345 -1.0278 -0.4778
   50MOL   H49141749   4.079   6.259   0.523 -0.3292  1.5198  0.4735
   50MOL   H49241750   4.205   6.241   0.397 -1.3171  0.2665 -2.4918
   50MOL   H49341751   4.297   6.379   0.585 -0.3171 -0.8440 -0.1954
   50MOL   H49441752   4.271   6.479   0.437 -0.9725  0.4075 -0.1336
   50MOL   H49541753   4.057   6.556   0.548 -0.9275  0.2036  1.5145
   50MOL   H49641754   4.078   6.441   0.677 -1.5565  2.6267  0.9175
   50MOL   H49741755   4.269   6.577   0.762 -2.0710 -2.2519  1.3491
   50MOL   H49841756   4.243   6.688   0.629 -0.3851 -0.7551 -1.4994
   50MOL   H49941757   4.032   6.636   0.841 -0.4726  0.8992 -0.1476
   50MOL   H50041758   4.008   6.738   0.706  0.1350  1.4756 -0.0759
   50MOL   H50141759   4.251   6.797   0.895  0.5748  0.1575  0.6319
   50MOL   H50241760   4.194   6.901   0.778 -2.1911  0.8273 -0.5874
   50MOL   H50341761   4.062   6.841   1.045  1.3245 -2.5777 -1.4104
   50MOL   H50441762   4.100   6.990   0.961 -2.5473  0.2388  2.1406
   50MOL   H50541763   3.958   6.898   0.909  0.3696 -0.0769 -1.5992
   50MOL   C50641764   3.988   6.192   7.416  0.1390  0.2521 -0.3560
   50MOL   C50741765   3.898   6.147   7.297  1.0651 -0.7681 -0.0024
   50MOL   C50841766   3.876   5.997   7.284  0.1855  0.1594 -0.3166
   50MOL   C50941767   3.872   5.955   7.135  0.0705  0.5170  0.6511
   50MOL   C51041768   3.826   5.807   7.107 -0.2046 -0.8743  0.8687
   50MOL   C51141769   3.924   5.696   7.142 -0.6440 -0.2761  0.3179
   50MOL   C51241770   3.879   5.558   7.092  0.1088  0.3770  0.4118
   50MOL   C51341771   3.994   5.464   7.117  0.0806  0.2853  0.0565
   50MOL   C51441772   3.964   5.325   7.068 -0.0259 -0.0005  0.1205
   50MOL   C51541773   4.080   5.224   7.069  0.2758 -0.0267  0.0374
   50MOL   C51641774   4.183   5.257   6.966  0.5277 -0.0049 -0.3946
   50MOL   C51741775   4.297   5.148   6.965  0.3920 -0.0977 -0.7901
   50MOL   C51841776   4.414   5.189   6.886  0.3268  0.3882 -0.2736
   50MOL   C51941777   4.520   5.082   6.879 -0.2971 -0.3301 -0.3361
   50MOL   H52041778   4.042   6.280   7.381 -1.7077  1.2430 -0.7964
   50MOL   H52141779   3.917   6.240   7.483 -0.9581 -2.1420  0.2504
   50MOL   H52241780   3.948   6.179   7.206  0.0915 -0.0785 -0.3095
   50MOL   H52341781   3.961   5.942   7.325  0.7615  2.0253  1.0590
   50MOL   H52441782   3.793   5.955   7.340  0.2041  1.8758  1.0179
   50MOL   H52541783   3.803   6.025   7.089 -0.2395  0.7849  1.5183
   50MOL   H52641784   3.971   5.979   7.096  0.0517  3.6163  2.4001
   50MOL   H52741785   3.814   5.802   6.999 -0.4756  0.4273  0.8327
   50MOL   H52841786   3.725   5.789   7.144 -1.7131 -0.6481 -2.9944
   50MOL   H52941787   3.937   5.699   7.251 -2.6021  0.4825  0.5380
   50MOL   H53041788   4.023   5.729   7.110 -0.7399 -1.9054 -1.7402
   50MOL   H53141789   3.793   5.515   7.144 -1.3162 -0.4533 -2.5156
   50MOL   H53241790   3.846   5.562   6.988 -0.7038 -1.3169  0.5759
   50MOL   H53341791   4.023   5.461   7.222 -1.4038 -0.3805  0.4498
   50MOL   H53441792   4.079   5.511   7.067  1.1253 -2.6535 -1.0071
   50MOL   H53541793   3.937   5.329   6.962  1.2157 -0.3736 -0.2200
   50MOL   H53641794   3.887   5.276   7.127  0.5473  1.1805  1.8758
   50MOL   H53741795   4.120   5.206   7.169  2.0681  0.2659 -0.6045
   50MOL   H53841796   4.032   5.133   7.033 -0.1659  0.7060 -1.2424
   50MOL   H53941797   4.134   5.279   6.871 -1.0700 -1.5085  0.0601
   50MOL   H54041798   4.243   5.345   6.991  3.1278 -1.5296 -1.0577
   50MOL   H54141799   4.261   5.049   6.937  1.0692 -0.0440 -1.8556
   50MOL   H54241800   4.322   5.131   7.070 -0.4508  0.5386 -0.4735
   50MOL   H54341801   4.458   5.280   6.928  1.5982 -0.2011 -0.2890
   50MOL   H54441802   4.382   5.200   6.783 -0.3590  0.0221 -0.1018
   50MOL   H54541803   4.605   5.131   6.832 -0.5558  0.5308  0.0900
   50MOL   H54641804   4.566   5.061   6.975 -1.4130 -1.6824 -0.0735
   50MOL   H54741805   4.504   4.987   6.827  0.7517 -0.7684  0.1268
   50MOL   C54841806   3.756   6.228   7.282 -0.1735  0.2111 -0.1235
   50MOL   C54941807   3.766   6.381   7.258 -0.2089  0.8771  0.8641
   50MOL   C55041808   3.742   6.421   7.113 -0.3054 -0.1883 -0.3166
   50MOL   C55141809   3.829   6.367   7.005  0.1270  0.1802  0.4148
   50MOL   C55241810   3.808   6.416   6.863  0.2503 -0.5093 -0.2970
   50MOL   C55341811   3.923   6.376   6.760 -0.0403 -0.7294  0.1262
   50MOL   C55441812   3.908   6.437   6.612  0.3098 -0.0524 -0.4038
   50MOL   C55541813   4.009   6.384   6.513 -0.3660  0.4935 -0.0416
   50MOL   C55641814   3.956   6.384   6.362  0.2949 -0.0402  1.2787
   50MOL   C55741815   3.929   6.525   6.303 -0.0051 -0.4925  0.6398
   50MOL   C55841816   3.813   6.526   6.200 -0.0769 -0.2343 -0.3604
   50MOL   C55941817   3.811   6.661   6.129 -0.0022 -0.2946  0.3156
   50MOL   C56041818   3.696   6.673   6.028  0.5916 -0.0834 -0.4951
   50MOL   C56141819   3.720   6.802   5.937 -0.0030 -0.3610  0.5184
   50MOL   H56241820   3.702   6.175   7.202  0.9541 -0.3911 -0.5011
   50MOL   H56341821   3.705   6.212   7.377  0.5889 -2.2851 -0.0985
   50MOL   H56441822   3.865   6.423   7.276  0.2132  0.4611 -0.4450
   50MOL   H56541823   3.643   6.378   7.099 -0.7605  0.6942  0.1560
   50MOL   H56641824   3.728   6.529   7.103 -0.7728 -0.2500 -0.3194
   50MOL   H56741825   3.813   6.260   7.004  1.0477 -0.2381  6.6022
   50MOL   H56841826   3.934   6.373   7.036 -0.5761  0.1003  2.9330
   50MOL   H56941827   3.709   6.383   6.830 -1.0735  0.5050  2.5171
   50MOL   H57041828   3.794   6.524   6.870  1.5254 -0.3956  0.6634
   50MOL   H57141829   3.924   6.267   6.751 -0.7846 -0.8482  1.3908
   50MOL   H57241830   4.016   6.408   6.808 -0.7262 -0.3595  1.2365
   50MOL   H57341831   3.806   6.412   6.584  0.0376  2.5150 -1.9354
   50MOL   H57441832   3.899   6.546   6.619  0.3906 -0.0427 -0.4596
   50MOL   H57541833   4.045   6.286   6.545 -0.8577  0.8424  1.6340
   50MOL   H57641834   4.092   6.453   6.523 -0.3213  0.2178  1.6981
   50MOL   H57741835   3.871   6.317   6.353 -0.1949  0.8113 -0.6986
   50MOL   H57841836   4.033   6.348   6.293  0.2012  1.0515  0.6021
   50MOL   H57941837   3.897   6.588   6.386 -0.8716 -2.3227  1.7245
   50MOL   H58041838   4.024   6.564   6.266  1.1939 -0.6566  3.4641
   50MOL   H58141839   3.716   6.496   6.239  0.2616  0.0761  0.7407
   50MOL   H58241840   3.838   6.453   6.122 -2.5702 -0.6009 -0.8598
   50MOL   H58341841   3.804   6.740   6.203 -0.9095  0.6431 -0.7500
   50MOL   H58441842   3.902   6.682   6.073 -0.2485  0.1638  0.0858
   50MOL   H58541843   3.699   6.581   5.970 -1.7044 -0.7264  0.3623
   50MOL   H58641844   3.606   6.685   6.088  1.8003 -0.0719  1.3381
   50MOL   H58741845   3.807   6.797   5.872  1.2778  3.2077  1.8685
   50MOL   H58841846   3.632   6.838   5.883 -0.1671 -2.6256 -0.8286
   50MOL   H58941847   3.760   6.882   5.998  0.6826 -0.3722  0.0894
   50MOL   C59041848   3.661   6.466   7.345  0.2133  0.5024  0.4433
   50MOL   C59141849   3.691   6.487   7.495  0.2809 -0.0722  0.0720
   50MOL   C59241850   3.805   6.582   7.513 -0.2361  0.8495  0.3575
   50MOL   C59341851   3.855   6.582   7.655 -0.1506 -0.2955  0.4080
   50MOL   C59441852   4.011   6.604   7.666  0.2033 -0.2436  0.6618
   50MOL   C59541853   4.058   6.658   0.103 -0.2673 -0.3493 -0.3844
   50MOL   C59641854   4.214   6.662   0.110 -0.1455  0.5182 -0.9422
   50MOL   C59741855   4.274   6.715   0.242  0.7984 -0.2230 -0.3444
   50MOL   C59841856   4.416   6.669   0.254 -0.1679 -0.4802  0.3295
   50MOL   C59941857   4.469   6.726   0.382  0.1921 -0.2667  0.0090
   50MOL   C60041858   4.621   6.700   0.392 -0.6457  0.3503  0.1372
   50MOL   C60141859   4.658   6.553   0.399  0.1608 -0.3895 -0.0925
   50MOL   C60241860   4.817   6.533   0.393  0.6240 -0.2034  0.3144
   50MOL   C60341861   4.863   6.527   0.245 -0.1489  0.9225  0.1654
   50MOL   H60441862   3.572   6.404   7.330 -0.6293  1.6591  0.5828
   50MOL   H60541863   3.642   6.566   7.305 -0.0598  0.8023  1.3231
   50MOL   H60641864   3.725   6.394   7.540  0.8060  1.0157  2.0138
   50MOL   H60741865   3.788   6.682   7.471  2.5379  0.7302 -1.2236
   50MOL   H60841866   3.888   6.540   7.455  0.7124 -0.2198  2.4283
   50MOL   H60941867   3.850   6.486   0.010 -1.7528  1.3569  3.5576
   50MOL   H61041868   3.796   6.654   0.017  0.2638  0.3073  0.0858
   50MOL   H61141869   4.048   6.673   7.591  1.3847  0.8468  2.2003
   50MOL   H61241870   4.061   6.512   7.637  0.0158 -0.2921  0.4956
   50MOL   H61341871   4.003   6.588   0.165 -0.2911 -0.2293 -0.2713
   50MOL   H61441872   4.017   6.756   0.128  0.8129  0.0949 -0.3339
   50MOL   H61541873   4.252   6.563   0.087 -0.6896 -0.0168  0.3654
   50MOL   H61641874   4.252   6.713   0.022 -0.9721  1.5766 -0.7032
   50MOL   H61741875   4.261   6.823   0.253  0.0090 -0.4645  1.2661
   50MOL   H61841876   4.209   6.666   0.315 -0.4192 -0.7805 -1.7765
   50MOL   H61941877   4.419   6.561   0.238  0.2494 -0.1918 -1.7017
   50MOL   H62041878   4.463   6.721   0.171  1.2036 -1.4448  0.4749
   50MOL   H62141879   4.437   6.830   0.379  0.8196 -0.1338 -2.9756
   50MOL   H62241880   4.428   6.674   0.469  0.9169 -0.9265 -0.0422
   50MOL   H62341881   4.660   6.748   0.482  0.2529 -0.1871  0.0458
   50MOL   H62441882   4.676   6.751   0.312  0.7910  2.6464  2.4967
   50MOL   H62541883   4.609   6.494   0.322 -0.6604 -0.9809  0.8599
   50MOL   H62641884   4.617   6.507   0.489 -4.0740  1.3588 -0.9998
   50MOL   H62741885   4.861   6.618   0.444  0.8956 -0.2308  0.1326
   50MOL   H62841886   4.844   6.442   0.447  2.2468 -0.4659 -0.8788
   50MOL   H62941887   4.964   6.489   0.233 -0.0565  0.6279  1.7998
   50MOL   H63041888   4.845   6.618   0.189 -0.4953  0.7517 -0.0036
   50MOL   H63141889   4.817   6.440   0.197  1.4453 -0.7879  1.6498
   50MOL   C63241890   3.562   6.537   7.570 -0.5728 -0.3677 -0.1615
   50MOL   C63341891   3.437   6.439   7.567 -0.1710 -0.3596 -0.1118
   50MOL   C63441892   3.471   6.296   7.635  0.2626 -0.6153 -0.2187
   50MOL   C63541893   3.351   6.197   7.640  0.7510  0.0194  0.2660
   50MOL   C63641894   3.388   6.059   7.673  0.1761  0.0138  0.6190
   50MOL   C63741895   3.282   5.963   7.631  0.0447  0.1612  0.1235
   50MOL   C63841896   3.303   5.822   7.683  0.1669 -0.1020 -0.2021
   50MOL   C63941897   3.181   5.737   7.661 -0.1926 -0.0041 -0.8765
   50MOL   C64041898   3.220   5.594   7.656  0.2981 -0.2118  0.6329
   50MOL   C64141899   3.091   5.508   7.634  0.1040 -0.5968  0.1333
   50MOL   C64241900   3.125   5.360   7.642 -0.7780  0.1645 -0.5069
   50MOL   C64341901   3.005   5.277   7.598  0.2828  0.1418 -0.6391
   50MOL   C64441902   3.025   5.125   7.589  0.2673 -0.0492 -0.2701
   50MOL   C64541903   2.914   5.057   7.513 -0.0814 -0.0882 -0.3039
   50MOL   H64641904   3.540   6.635   7.528  1.0398  0.4106  0.7589
   50MOL   H64741905   3.597   6.560   7.671 -0.3511 -1.1951 -0.0397
   50MOL   H64841906   3.402   6.413   7.467 -0.4991  1.5899 -0.5284
   50MOL   H64941907   3.543   6.258   7.563  0.0964  1.8382 -1.7006
   50MOL   H65041908   3.524   6.300   0.035 -1.2685  2.8375  0.5708
   50MOL   H65141909   3.298   6.207   7.545  0.5809  1.0473  0.4687
   50MOL   H65241910   3.279   6.218   0.023 -1.3911 -1.0787 -1.3547
   50MOL   H65341911   3.399   6.056   0.086  0.3757  1.2785  0.6420
   50MOL   H65441912   3.479   6.030   7.621  0.2416  1.5748 -0.1633
   50MOL   H65541913   3.189   6.006   7.670  1.8612  1.2607  3.4424
   50MOL   H65641914   3.262   5.963   7.524 -1.3513 -0.7165  0.3656
   50MOL   H65741915   3.390   5.783   7.628 -0.9110  0.0203 -2.0266
   50MOL   H65841916   3.336   5.835   0.091  3.6212  0.3712 -1.2738
   50MOL   H65941917   3.146   5.764   7.561  1.2703 -0.0149 -1.4172
   50MOL   H66041918   3.097   5.757   0.031 -1.0632 -1.1785 -1.6185
   50MOL   H66141919   3.280   5.566   0.046  0.1363 -0.6944  0.5907
   50MOL   H66241920   3.298   5.590   7.580  1.7884  2.0639  1.9757
   50MOL   H66341921   3.006   5.541   7.693 -0.1203 -1.4394  0.2954
   50MOL   H66441922   3.059   5.535   7.534  1.0566  1.5858  0.3987
   50MOL   H66541923   3.205   5.333   7.572 -2.1030  0.9617 -2.3662
   50MOL   H66641924   3.164   5.342   0.047  1.2106 -1.0913 -1.4858
   50MOL   H66741925   2.998   5.314   7.496 -1.7111  3.1679  0.5543
   50MOL   H66841926   2.911   5.306   7.644  0.8088  0.1301  0.4469
   50MOL   H66941927   3.028   5.080   7.688 -1.3509  0.0150 -0.1815
   50MOL   H67041928   3.109   5.088   7.531 -0.0258 -0.1875 -0.6105
   50MOL   H67141929   2.924   5.074   7.405  1.2066 -0.1756 -0.2060
   50MOL   H67241930   2.919   4.950   7.531  2.7418 -0.2061 -1.5238
   50MOL   H67341931   2.816   5.086   7.552  0.4209  0.8274  0.2751
   50MOL   C67441932   3.318   6.505   7.634 -0.1569 -0.4157 -0.4335
   50MOL   C67541933   3.269   6.634   7.568  0.1542 -0.0223 -0.4984
   50MOL   C67641934   3.243   6.630   7.413 -0.3430 -0.2081  0.0678
   50MOL   C67741935   3.157   6.519   7.356 -0.0050  0.1862 -0.5224
   50MOL   C67841936   3.138   6.526   7.203 -0.2439  0.8472 -0.1274
   50MOL   C67941937   3.253   6.481   7.119  0.6622 -0.2188 -0.4371
   50MOL   C68041938   3.291   6.331   7.119 -0.3454 -0.3264  0.3657
   50MOL   C68141939   3.373   6.281   6.998 -0.1781 -0.2947 -0.3283
   50MOL   C68241940   3.425   6.138   7.013 -0.1205 -0.6416 -0.0331
   50MOL   C68341941   3.492   6.083   6.881  0.2381  0.2697  0.8230
   50MOL   C68441942   3.547   5.942   6.897 -0.2688 -0.0225  0.8789
   50MOL   C68541943   3.448   5.825   6.896 -0.8972 -0.5039 -0.1758
   50MOL   C68641944   3.518   5.686   6.912  0.3710 -0.8030  0.2072
   50MOL   C68741945   3.435   5.580   6.848 -0.1355  0.2014  0.0302
   50MOL   H68841946   3.341   6.527   0.043 -3.5767  0.1663  0.2594
   50MOL   H68941947   3.233   6.437   7.626 -0.5483  0.0475 -0.2483
   50MOL   H69041948   3.349   6.707   7.576  0.1126  0.0446 -0.6908
   50MOL   H69141949   3.208   6.727   7.378 -3.4794 -1.8625 -1.5399
   50MOL   H69241950   3.346   6.627   7.377 -0.8062  0.4302 -1.3162
   50MOL   H69341951   3.193   6.419   7.381  0.9607  0.3486 -1.2389
   50MOL   H69441952   3.064   6.534   7.411  1.4793  0.2519  2.0879
   50MOL   H69541953   3.056   6.455   7.188 -0.8739  1.1908  1.5977
   50MOL   H69641954   3.102   6.626   7.177 -2.1655 -0.7121 -3.8770
   50MOL   H69741955   3.216   6.505   7.020 -1.0624  0.8033  0.4416
   50MOL   H69841956   3.346   6.532   7.144  0.6262 -0.4494  0.1674
   50MOL   H69941957   3.338   6.312   7.216  2.0404 -0.3258 -0.7536
   50MOL   H70041958   3.197   6.275   7.120 -0.2417 -0.5017  0.4593
   50MOL   H70141959   3.308   6.286   6.911 -0.9605 -2.8640  0.0642
   50MOL   H70241960   3.462   6.340   6.977 -0.6314 -0.4970 -3.0111
   50MOL   H70341961   3.502   6.150   7.089 -0.4956  1.3026  0.0507
   50MOL   H70441962   3.348   6.077   7.059 -1.1183  1.8858  1.7381
   50MOL   H70541963   3.579   6.144   6.858  0.1464  0.6249  1.4053
   50MOL   H70641964   3.424   6.078   6.795 -1.1451  2.9754  1.7040
   50MOL   H70741965   3.614   5.929   6.982  0.3961 -1.9610  0.0957
   50MOL   H70841966   3.608   5.927   6.807 -0.9620  0.3838  0.3408
   50MOL   H70941967   3.399   5.828   6.799  3.3110 -0.4936 -2.4361
   50MOL   H71041968   3.376   5.849   6.974 -0.2553 -1.7615  0.8250
   50MOL   H71141969   3.619   5.692   6.872  0.9211 -0.9525  1.5333
   50MOL   H71241970   3.532   5.651   7.014 -1.7818 -0.4489  0.6412
   50MOL   H71341971   3.491   5.487   6.847 -2.2323 -1.1900  3.2350
   50MOL   H71441972   3.344   5.551   6.900 -0.3500  0.2740 -0.3017
   50MOL   H71541973   3.397   5.603   6.749  1.3881  1.3209 -0.3193
   50MOL   C71641974   3.145   6.687   7.641  0.7995  0.3884  0.1142
   50MOL   C71741975   3.115   6.837   7.630  0.1059 -0.2375 -0.1471
   50MOL   C71841976   2.968   6.862   7.667  0.0617 -0.0772 -0.1030
   50MOL   C71941977   2.886   6.861   7.534  0.3237  0.2724  0.6648
   50MOL   C72041978   2.733   6.866   7.556  0.2963  0.1259 -0.1732
   50MOL   C72141979   2.666   6.873   7.413  0.5662  0.3434 -0.0793
   50MOL   C72241980   2.514   6.896   7.422 -0.2590  0.4674 -0.2892
   50MOL   C72341981   2.434   6.831   7.310  0.2434  0.1738  0.3528
   50MOL   C72441982   2.288   6.844   7.343  0.7457  0.3526  0.2798
   50MOL   C72541983   2.196   6.782   7.238 -0.0775 -0.3267 -0.1382
   50MOL   C72641984   2.044   6.782   7.275 -0.8087 -0.5200 -0.0116
   50MOL   C72741985   1.994   6.697   7.397  0.0439 -0.1250 -0.2920
   50MOL   C72841986   1.841   6.708   7.415  0.2487  0.4140  0.3513
   50MOL   C72941987   1.792   6.613   7.534 -0.2313  0.5735 -0.4535
   50MOL   H73041988   3.065   6.619   7.614  1.6312 -0.4614 -0.2549
   50MOL   H73141989   3.164   6.659   0.050 -0.2364 -2.5330 -0.4252
   50MOL   H73241990   3.139   6.862   7.527 -0.1128 -0.4585 -0.2519
   50MOL   H73341991   2.962   6.958   0.023  0.8563  0.7418 -1.4953
   50MOL   H73441992   2.943   6.788   0.046  1.0292  0.7706  1.0895
   50MOL   H73541993   2.907   6.949   7.474 -1.0638 -0.2419 -0.5881
   50MOL   H73641994   2.913   6.779   7.468 -1.8322 -0.4577  0.6717
   50MOL   H73741995   2.697   6.779   7.610  0.7320 -0.9661 -1.6171
   50MOL   H73841996   2.706   6.956   7.612 -6.2809 -1.9396  0.4131
   50MOL   H73941997   2.713   6.960   7.367 -1.6621  1.4761 -0.2955
   50MOL   H74041998   2.691   6.788   7.351 -2.6966 -0.3273 -0.5877
   50MOL   H74141999   2.483   6.838   7.509 -2.1669  2.3405  0.3411
   50MOL   H74242000   2.490   7.002   7.433  2.5150  1.3743 -2.4703
   50MOL   H74342001   2.455   6.724   7.304  0.0038  0.1915 -1.0235
   50MOL   H74442002   2.461   6.865   7.210 -1.4467  0.7682  0.0848
   50MOL   H74542003   2.260   6.794   7.436 -0.6694 -0.0511 -0.3551
   50MOL   H74642004   2.266   6.948   7.364 -0.5274  0.0240  0.6459
   50MOL   H74742005   2.218   6.830   7.142 -1.1178 -0.8841 -0.6641
   50MOL   H74842006   2.219   6.675   7.230  1.8165  0.0584 -0.0334
   50MOL   H74942007   2.017   6.888   7.271  0.3619 -0.2522 -1.0567
   50MOL   H75042008   1.989   6.753   7.185  2.3870 -0.5714 -2.0075
   50MOL   H75142009   2.039   6.597   7.396 -0.2110 -0.3056  2.2527
   50MOL   H75242010   2.027   6.737   7.492 -1.7437  0.4686  0.0944
   50MOL   H75342011   1.804   6.697   7.313  1.8310  0.9089 -0.2880
   50MOL   H75442012   1.816   6.809   7.448 -1.6363  0.3662 -0.8517
   50MOL   H75542013   1.828   6.514   7.503 -1.2733  0.1935 -0.5005
   50MOL   H75642014   1.684   6.605   7.542  0.0116 -2.1002  0.7244
   50MOL   H75742015   1.838   6.649   7.625 -2.6684  2.9960 -0.1508
   50MOL   C75842016   3.208   6.914   0.027  0.0899 -1.3564 -0.2409
   50MOL   C75942017   3.237   7.059   7.676 -0.0403  0.0563  0.9654
   50MOL   C76042018   3.256   7.155   0.103  0.3818  0.6868  0.0212
   50MOL   C76142019   3.381   7.127   0.173 -0.8494 -0.3052  0.0827
   50MOL   C76242020   3.393   7.225   0.300  0.5750 -0.1900  0.9968
   50MOL   C76342021   3.538   7.232   0.355  0.0437  0.1464 -0.0172
   50MOL   C76442022   3.636   7.314   0.265  0.2551 -0.1699  0.7382
   50MOL   C76542023   3.596   7.463   0.254 -0.6508  0.7278 -0.4751
   50MOL   C76642024   3.679   7.546   0.158 -0.0451 -0.4925 -0.6344
   50MOL   C76742025   3.613   7.683   0.131  0.9688 -0.3232  0.4607
   50MOL   C76842026   3.686   0.066   0.023 -0.1329 -0.0214 -0.1675
   50MOL   C76942027   3.616   0.204   0.002  0.7527 -0.8201  0.2375
   50MOL   C77042028   3.671   0.264   7.571  0.3874 -0.5297 -0.2227
   50MOL   C77142029   3.816   0.313   7.573 -0.1014 -0.2488 -0.7227
   50MOL   H77242030   3.175   6.903   0.131  3.3019  0.1506  1.0143
   50MOL   H77342031   3.306   6.867   0.033  0.6083 -0.3153 -0.4072
   50MOL   H77442032   3.143   7.083   7.627  1.6373  0.9994 -1.9238
   50MOL   H77542033   3.248   7.261   0.080 -0.5670  0.9868  1.7201
   50MOL   H77642034   3.172   7.129   0.167 -0.2662  1.8144 -0.3646
   50MOL   H77742035   3.375   7.024   0.208  1.6854 -0.1582  1.0636
   50MOL   H77842036   3.471   7.140   0.111 -0.0835 -1.7267  0.8813
   50MOL   H77942037   3.333   7.182   0.380 -0.6669 -1.4652 -0.5952
   50MOL   H78042038   3.346   7.322   0.281 -0.8413 -0.6454  2.1402
   50MOL   H78142039   3.569   7.127   0.362  0.7194  0.4180  1.1782
   50MOL   H78242040   3.540   7.270   0.457  1.3602 -0.6803  0.2833
   50MOL   H78342041   3.731   7.296   0.314  1.1722  3.1118  0.2561
   50MOL   H78442042   3.649   7.274   0.164  0.5326 -0.7676  1.0102
   50MOL   H78542043   3.608   7.506   0.353 -2.9786 -3.1111  1.5841
   50MOL   H78642044   3.490   7.464   0.232 -0.1635  0.0570 -3.1069
   50MOL   H78742045   3.685   7.503   0.058 -1.6963 -1.7236 -0.2170
   50MOL   H78842046   3.782   7.559   0.193 -0.9960  4.2425  0.7163
   50MOL   H78942047   3.598   0.035   0.228 -0.2339 -1.1875  0.7121
   50MOL   H79042048   3.508   7.678   0.101  0.4028  1.9956  1.9553
   50MOL   H79142049   3.790   0.071   0.054 -0.1610 -0.4629  0.0029
   50MOL   H79242050   3.688   0.016   7.621 -0.7496  0.1318 -0.2613
   50MOL   H79342051   3.509   0.194   7.678  0.9056 -3.6326  0.6087
   50MOL   H79442052   3.627   0.269   0.089  1.1355 -0.6889  0.0910
   50MOL   H79542053   3.658   0.191   7.491 -1.8776  0.6120 -0.9436
   50MOL   H79642054   3.615   0.352   7.537  0.1848 -0.2428  0.8317
   50MOL   H79742055   3.875   0.222   7.568  0.5877  0.1254  0.3822
   50MOL   H79842056   3.824   0.375   7.484 -2.0961 -2.0375 -2.2123
   50MOL   H79942057   3.834   0.376   7.660  3.9078 -0.8452 -1.0440
   50MOL   C80042058   3.342   7.066   7.556  0.5169  0.5044  0.0354
   50MOL   C80142059   3.386   7.207   7.512  0.6881  0.3513  0.8643
   50MOL   C80242060   3.461   7.207   7.379  1.0437  0.4390  0.0302
   50MOL   C80342061   3.548   7.333   7.361 -0.7445 -0.0638  0.1447
   50MOL   C80442062   3.642   7.309   7.240  0.2370 -0.1455  0.3067
   50MOL   C80542063   3.779   7.238   7.269  0.1247  0.0247 -0.1263
   50MOL   C80642064   3.881   7.224   7.153  0.1965  0.5077  0.0282
   50MOL   C80742065   4.023   7.185   7.187  0.1301 -0.6103 -0.4751
   50MOL   C80842066   4.100   7.182   7.049 -0.3666 -0.0664  0.1211
   50MOL   C80942067   4.244   7.151   7.078  0.0142  0.1456  0.3186
   50MOL   C81042068   4.321   7.116   6.951  1.0647  0.1376  0.6244
   50MOL   C81142069   4.478   7.141   6.953  0.0416 -0.2045 -0.4789
   50MOL   C81242070   4.531   7.207   6.829  0.3162 -0.6785  0.0783
   50MOL   C81342071   4.678   7.248   6.834 -0.3280 -0.6552  0.2245
   50MOL   H81442072   3.294   7.018   7.471 -1.9652  1.0643  1.0932
   50MOL   H81542073   3.429   7.002   7.569  0.4921  0.9585  2.7907
   50MOL   H81642074   3.446   7.254   7.590 -3.1143  1.4563  3.2499
   50MOL   H81742075   3.383   7.195   7.304 -2.7437 -1.2845  4.0002
   50MOL   H81842076   3.529   7.122   7.366 -0.0992 -0.1759 -2.0838
   50MOL   H81942077   3.606   7.348   7.453  1.5751  1.0852 -1.4542
   50MOL   H82042078   3.500   7.429   7.351 -1.4363 -0.5539 -1.2967
   50MOL   H82142079   3.587   7.266   7.156  0.6482 -0.3755  0.1576
   50MOL   H82242080   3.665   7.411   7.211  1.3787 -0.4391  0.1851
   50MOL   H82342081   3.752   7.143   7.317 -0.2223  0.2691  0.1604
   50MOL   H82442082   3.813   7.298   7.353 -1.9040 -0.2344  0.9187
   50MOL   H82542083   3.832   7.152   7.086  0.0832  0.3368  0.2927
   50MOL   H82642084   3.891   7.314   7.093  2.1777 -0.4060 -1.0533
   50MOL   H82742085   4.078   7.245   7.259  1.0632  0.4219 -2.0102
   50MOL   H82842086   4.028   7.078   7.209  1.6531 -0.6542 -0.9391
   50MOL   H82942087   4.056   7.117   6.973  1.9311  0.9891 -2.1792
   50MOL   H83042088   4.098   7.277   6.997  0.1570  0.1782  0.5509
   50MOL   H83142089   4.257   7.069   7.149  1.0659 -0.9676 -1.1171
   50MOL   H83242090   4.293   7.238   7.120 -2.6937 -0.0037  4.0176
   50MOL   H83342091   4.317   7.010   6.925  0.1110  0.5740 -1.0952
   50MOL   H83442092   4.279   7.174   6.869 -1.0838 -1.0985  0.8274
   50MOL   H83542093   4.535   7.050   6.970 -1.4515 -0.9211  0.9392
   50MOL   H83642094   4.505   7.201   7.040 -2.0860  1.8058 -1.1632
   50MOL   H83742095   4.507   7.148   6.741 -0.9096  0.2018 -0.1859
   50MOL   H83842096   4.466   7.295   6.835 -1.9060 -2.2570 -0.1527
   50MOL   H83942097   4.717   7.303   6.749 -0.0722 -0.4886  0.4492
   50MOL   H84042098   4.708   7.295   6.928 -0.5289 -0.8047  0.3641
   50MOL   H84142099   4.739   7.157   6.839  1.1195  0.2881  0.1885
   50MOL   H84242100   3.298   7.271   7.505 -1.1370 -2.2567 -1.0131
   51MOL     C142101   5.677   7.504   5.048 -0.0114 -0.3368  0.7958
   51MOL     C242102   5.572   7.527   4.932  0.2696 -0.0688 -0.3224
   51MOL     C342103   5.491   7.396   4.910  0.2488 -0.5173 -0.2782
   51MOL     C442104   5.409   7.343   5.026  0.2747 -0.0951  0.4678
   51MOL     C542105   5.318   7.218   5.005 -0.0904 -0.0518  0.0358
   51MOL     C642106   5.403   7.095   4.967  0.3572  0.2663 -0.1225
   51MOL     C742107   5.318   6.968   4.978 -0.1593 -0.4073 -0.0794
   51MOL     C842108   5.396   6.835   4.923  0.1977 -0.4799 -0.4572
   51MOL     C942109   5.320   6.701   4.933  0.2693  0.2722  0.9023
   51MOL    C1042110   5.398   6.585   4.878  0.1663 -0.0574 -0.1765
   51MOL    C1142111   5.337   6.448   4.898  0.2836 -0.4324  0.2984
   51MOL    C1242112   5.383   6.336   4.799  0.0880 -0.4698  0.1360
   51MOL    C1342113   5.313   6.200   4.810 -0.3575 -0.1458 -0.7621
   51MOL    C1442114   5.381   6.112   4.915  0.2429  0.6362  0.1559
   51MOL    H1542115   5.773   7.554   5.059  0.3018 -1.0053  1.1345
   51MOL    H1642116   5.717   7.403   5.039  0.0443 -0.1727 -1.0913
   51MOL    H1742117   5.632   7.553   4.845  1.9328 -0.9203  0.5311
   51MOL    H1842118   5.423   7.406   4.826  0.2744 -4.8187 -0.9213
   51MOL    H1942119   5.563   7.318   4.886 -0.5006 -0.9740 -1.0541
   51MOL    H2042120   5.353   7.430   5.061  1.5256  1.5609 -1.5048
   51MOL    H2142121   5.491   7.335   5.097  0.4530  0.6697  0.3594
   51MOL    H2242122   5.250   7.248   4.926 -1.5696  1.9866  2.0368
   51MOL    H2342123   5.269   7.196   5.099 -1.5109 -1.0731 -0.9192
   51MOL    H2442124   5.484   7.093   5.039  1.4993  1.5203 -1.3358
   51MOL    H2542125   5.436   7.100   4.863 -0.3738  1.8275 -0.3049
   51MOL    H2642126   5.287   6.945   5.079  0.6127 -0.5350  0.1364
   51MOL    H2742127   5.228   6.984   4.919 -0.1032  1.3821  0.2981
   51MOL    H2842128   5.486   6.822   4.983 -1.7372  1.3560  3.0065
   51MOL    H2942129   5.431   6.851   4.821  2.1364  0.5555  0.3400
   51MOL    H3042130   5.298   6.679   5.038  2.1069 -3.4486  0.5915
   51MOL    H3142131   5.227   6.717   4.878  0.3819  0.0532  0.6472
   51MOL    H3242132   5.415   6.598   4.771  0.7984  0.8442  0.0266
   51MOL    H3342133   5.497   6.587   4.923 -0.7270  0.0912  1.8157
   51MOL    H3442134   5.368   6.436   5.001  3.3836 -2.3442 -0.7893
   51MOL    H3542135   5.228   6.453   4.905  0.1913 -0.5330 -0.9179
   51MOL    H3642136   5.491   6.325   4.813  0.0132 -2.3421 -0.5735
   51MOL    H3742137   5.377   6.364   4.694 -0.5666  0.9669  0.5438
   51MOL    H3842138   5.204   6.207   4.813 -0.4514 -1.6674  2.1695
   51MOL    H3942139   5.327   6.140   4.720 -0.5297 -1.9319  0.3646
   51MOL    H4042140   5.374   6.138   5.021 -1.4333  2.8026 -0.4387
   51MOL    H4142141   5.346   6.009   4.909 -0.1882  0.8772 -1.8639
   51MOL    H4242142   5.487   6.106   4.890  0.2249  0.6547  0.0742
   51MOL    H4342143   5.624   7.507   5.143 -0.6470 -2.2744  0.5319
   51MOL    C4442144   5.489   7.651   4.959  0.2895  0.0874 -0.1063
   51MOL    C4542145   5.563   0.086   4.929  0.1280  0.2634 -0.2817
   51MOL    C4642146   5.561   0.184   5.048  0.0562  0.0947  0.5989
   51MOL    C4742147   5.655   0.145   5.156 -0.0029 -0.6910 -0.5604
   51MOL    C4842148   5.712   0.260   5.236  0.6338  0.1687 -0.1694
   51MOL    C4942149   5.809   0.207   5.343  0.0321  0.6016  0.6708
   51MOL    C5042150   5.896   0.326   5.398 -0.0202  0.7987 -0.3101
   51MOL    C5142151   5.822   0.433   5.489 -0.4417  0.6294 -0.4811
   51MOL    C5242152   5.912   0.544   5.542  0.2801 -0.5943  0.1402
   51MOL    C5342153   5.829   0.660   5.611 -0.5481  0.7026 -0.3555
   51MOL    C5442154   5.911   0.743   5.714 -0.5804 -0.0528  0.2231
   51MOL    C5542155   5.818   0.839   5.797 -0.1632 -0.0064  0.3730
   51MOL    C5642156   5.902   0.910   5.907 -0.4214 -0.4184  0.7191
   51MOL    C5742157   5.837   1.029   5.974 -0.4213  0.0322  0.2555
   51MOL    H5842158   5.397   7.630   4.905 -0.2980 -2.2550  1.7063
   51MOL    H5942159   5.464   7.647   5.066  1.2347  0.4887  0.1310
   51MOL    H6042160   5.669   0.067   4.911 -0.0447 -1.7794  0.6842
   51MOL    H6142161   5.603   0.274   5.002 -0.3970  0.0045  0.0012
   51MOL    H6242162   5.460   0.213   5.077  1.2333  2.5800  2.4280
   51MOL    H6342163   5.741   0.094   5.113  0.6373  0.6727 -0.9085
   51MOL    H6442164   5.607   0.076   5.226 -1.1526  1.3288  0.6744
   51MOL    H6542165   5.629   0.309   5.286  0.4041 -0.1145 -0.2704
   51MOL    H6642166   5.773   0.329   5.178  3.1877 -0.4219  1.6915
   51MOL    H6742167   5.756   0.162   5.427 -0.8563 -0.0108 -0.1997
   51MOL    H6842168   5.883   0.142   5.298 -0.4916  2.3783 -2.9567
   51MOL    H6942169   5.972   0.278   5.459 -2.1724 -2.3779 -0.0208
   51MOL    H7042170   5.950   0.358   5.309 -0.1378 -0.2585 -0.7724
   51MOL    H7142171   5.765   0.381   5.566  1.2687  0.0616  0.4177
   51MOL    H7242172   5.742   0.478   5.430  0.0242 -0.0853 -1.6742
   51MOL    H7342173   5.994   0.502   5.600  0.5108  0.8491  0.8648
   51MOL    H7442174   5.961   0.594   5.459  1.0971  0.9496  1.5283
   51MOL    H7542175   5.746   0.608   5.659 -0.3151  0.6071 -0.0566
   51MOL    H7642176   5.801   0.729   5.532 -1.2391  0.1926 -0.5608
   51MOL    H7742177   5.976   0.809   5.657  1.1732 -0.8414  1.2518
   51MOL    H7842178   5.977   0.688   5.782 -1.2992  0.8197  1.6598
   51MOL    H7942179   5.779   0.919   5.734 -1.4069  0.5694  1.8424
   51MOL    H8042180   5.738   0.778   5.839 -0.1217 -0.2389  0.1120
   51MOL    H8142181   5.988   0.950   5.854 -1.2799  0.9065  0.2887
   51MOL    H8242182   5.948   0.841   5.978  3.5955  2.2066  0.8144
   51MOL    H8342183   5.896   1.053   6.062 -0.5790 -0.0463  0.3827
   51MOL    H8442184   5.735   1.004   6.001 -1.2393  0.1178 -2.5115
   51MOL    H8542185   5.828   1.119   5.912 -1.8266 -0.7144 -0.6491
   51MOL    C8642186   5.497   0.142   4.800  0.2379  0.4729  0.1397
   51MOL    C8742187   5.512   0.053   4.676 -0.7828  0.2452 -0.5397
   51MOL    C8842188   5.662   0.047   4.622  0.3214 -0.5311  0.2982
   51MOL    C8942189   5.688   7.637   4.513  0.3331 -0.3514 -0.0161
   51MOL    C9042190   5.625   7.497   4.537 -0.0601  0.0836 -0.5424
   51MOL    C9142191   5.625   7.413   4.408 -0.5499 -0.3201  0.3057
   51MOL    C9242192   5.531   7.287   4.419 -0.2120  0.2096  0.1878
   51MOL    C9342193   5.384   7.305   4.459  0.4839  0.4748 -0.2120
   51MOL    C9442194   5.308   7.174   4.448  0.2315 -0.3205  0.1949
   51MOL    C9542195   5.313   7.102   4.580 -0.9133  0.5530  0.0287
   51MOL    C9642196   5.252   6.962   4.584 -0.0869 -0.3846 -0.2909
   51MOL    C9742197   5.343   6.856   4.524 -0.7373  0.0719  0.0799
   51MOL    C9842198   5.284   6.715   4.508 -0.1955 -0.7420 -0.6215
   51MOL    C9942199   5.383   6.630   4.435  0.7027 -0.7516  0.9479
   51MOL   H10042200   5.393   0.164   4.824  0.2752  2.1211 -1.1335
   51MOL   H10142201   5.540   0.236   4.766 -0.1002  1.2298  1.7731
   51MOL   H10242202   5.471   7.649   4.691 -1.0087  0.5414  0.9871
   51MOL   H10342203   5.707   0.145   4.609  1.0245 -0.5941  2.1078
   51MOL   H10442204   5.716   0.007   4.709  0.2951 -0.8378  0.1747
   51MOL   H10542205   5.638   7.670   4.421  0.1314 -1.2042 -0.2192
   51MOL   H10642206   5.794   7.634   4.488  0.0294  2.3804 -1.8111
   51MOL   H10742207   5.517   7.506   4.542 -0.0708 -0.3983  0.1880
   51MOL   H10842208   5.658   7.437   4.622 -0.6132 -1.4624 -1.4048
   51MOL   H10942209   5.720   7.368   4.379 -0.0166  1.2334 -0.3639
   51MOL   H11042210   5.601   7.463   4.315  0.0399 -0.3000  0.1642
   51MOL   H11142211   5.536   7.226   4.329 -0.2242 -0.5182  0.6720
   51MOL   H11242212   5.569   7.221   4.498  0.7349 -0.3519 -0.7194
   51MOL   H11342213   5.339   7.386   4.402 -2.3630  1.4480  3.2512
   51MOL   H11442214   5.396   7.340   4.561  0.0783 -1.7634  0.6283
   51MOL   H11542215   5.208   7.176   4.404  0.4914 -0.7624 -0.4168
   51MOL   H11642216   5.355   7.116   4.369 -0.8580  0.6066 -1.1437
   51MOL   H11742217   5.256   7.169   4.644 -0.9496  0.2939  0.2669
   51MOL   H11842218   5.417   7.087   4.610 -1.3375 -0.5437  0.9776
   51MOL   H11942219   5.235   6.945   4.690 -0.2685  0.3419 -0.1999
   51MOL   H12042220   5.150   6.961   4.546 -0.2902  0.0867  0.2320
   51MOL   H12142221   5.379   6.897   4.429  0.9445 -0.7134  0.3681
   51MOL   H12242222   5.438   6.851   4.575  0.4674  0.8922 -2.0050
   51MOL   H12342223   5.184   6.709   4.465 -1.5550 -0.9200  2.4745
   51MOL   H12442224   5.266   6.673   4.607 -0.2052 -0.0740 -0.3342
   51MOL   H12542225   5.392   6.657   4.330  1.0883 -0.5230  1.0386
   51MOL   H12642226   5.478   6.638   4.488  0.3941 -0.2520  1.4351
   51MOL   H12742227   5.352   6.528   4.458  1.2779 -1.4176 -1.1747
   51MOL   C12842228   5.432   0.114   4.561 -0.2397  0.3027  0.0640
   51MOL   C12942229   5.279   0.095   4.567 -0.5732  0.3958  0.2522
   51MOL   C13042230   5.199   0.208   4.489 -0.0659 -0.2971  0.0861
   51MOL   C13142231   5.224   0.229   4.335 -0.6337 -0.2023  0.1580
   51MOL   C13242232   5.124   0.339   4.288  0.0893  0.0244  0.4308
   51MOL   C13342233   5.160   0.377   4.137 -0.0013 -0.4039  0.0066
   51MOL   C13442234   5.074   0.494   4.078 -0.4364 -0.3393  0.9806
   51MOL   C13542235   5.120   0.540   3.936  0.3511  0.5323  0.0093
   51MOL   C13642236   5.028   0.641   3.860 -0.4514  0.3694  0.0582
   51MOL   C13742237   4.893   0.589   3.828 -0.1325  0.4943  0.2783
   51MOL   C13842238   4.825   0.702   3.745  0.1966 -0.3612 -0.6312
   51MOL   C13942239   4.683   0.666   3.708 -0.6377  0.1816  0.3358
   51MOL   C14042240   4.587   0.782   3.686  0.7567  0.3987 -0.1845
   51MOL   C14142241   4.440   0.741   3.669  0.0532 -0.4504  0.7496
   51MOL   H14242242   5.467   0.215   4.540  1.9046 -0.1091  1.5174
   51MOL   H14342243   5.433   0.058   4.467 -1.2455  0.7718 -0.2253
   51MOL   H14442244   5.250   0.103   4.672 -1.7172 -2.6530  0.2317
   51MOL   H14542245   5.093   0.185   4.501 -0.1930  0.1110 -0.2374
   51MOL   H14642246   5.198   0.306   4.537 -3.1706  0.1488 -0.7740
   51MOL   H14742247   5.328   0.262   4.322 -0.2061 -1.4642  0.3134
   51MOL   H14842248   5.220   0.135   4.280  1.9111 -0.8963  1.0814
   51MOL   H14942249   5.019   0.308   4.281  0.6774 -2.2103  1.1738
   51MOL   H15042250   5.118   0.427   4.352 -2.6743  0.4353 -0.2942
   51MOL   H15142251   5.264   0.408   4.129 -0.4028  1.0513  0.3653
   51MOL   H15242252   5.140   0.289   4.076 -0.0540  0.6254 -1.4907
   51MOL   H15342253   4.969   0.466   4.075 -0.7101  0.7972 -0.7366
   51MOL   H15442254   5.073   0.586   4.135 -0.1489 -0.1377  0.6613
   51MOL   H15542255   5.213   0.596   3.946  1.6410 -0.9350 -3.0414
   51MOL   H15642256   5.147   0.452   3.877  1.1715  0.2382  0.8191
   51MOL   H15742257   5.024   0.727   3.927  2.0055 -0.7856  1.7981
   51MOL   H15842258   5.075   0.667   3.765 -0.0322  0.1925  0.2171
   51MOL   H15942259   4.831   0.574   3.916  0.0743 -0.1506  0.3184
   51MOL   H16042260   4.885   0.498   3.768  0.2758  1.0234 -0.5865
   51MOL   H16142261   4.830   0.795   3.801 -0.3168 -0.2917 -0.6982
   51MOL   H16242262   4.874   0.716   3.648 -1.4156 -0.3692 -1.4651
   51MOL   H16342263   4.686   0.604   3.618  1.7032  2.8827 -1.5169
   51MOL   H16442264   4.634   0.606   3.786 -2.4818 -0.4983 -1.3070
   51MOL   H16542265   4.596   0.859   3.762  0.6187  0.0955  0.1444
   51MOL   H16642266   4.616   0.832   3.594 -0.8597 -0.8253 -1.4068
   51MOL   H16742267   4.362   0.811   3.700 -0.3194 -0.1677 -0.8139
   51MOL   H16842268   4.416   0.717   3.566  1.6730 -0.1670  0.2901
   51MOL   H16942269   4.428   0.652   3.730  0.0066 -1.7963 -1.1808
   51MOL   C17042270   5.226   7.651   4.535 -0.5681 -0.0599 -0.1827
   51MOL   C17142271   5.094   7.610   4.601 -0.0803 -0.1739 -0.5989
   51MOL   C17242272   5.014   7.510   4.507 -0.2289 -0.4099 -0.1622
   51MOL   C17342273   4.941   7.573   4.383  0.0327 -0.0049 -0.7331
   51MOL   C17442274   4.866   7.476   4.286  0.0657 -0.8523 -0.8505
   51MOL   C17542275   4.956   7.373   4.219  0.0836 -0.1892  0.3630
   51MOL   C17642276   4.892   7.242   4.170  0.1098  0.0561  0.0228
   51MOL   C17742277   4.884   7.145   4.289 -0.2182  0.1496 -0.6922
   51MOL   C17842278   4.853   7.001   4.244 -0.0600  0.4438 -0.4729
   51MOL   C17942279   4.834   6.902   4.372  0.6170  0.3034 -0.6698
   51MOL   C18042280   4.791   6.750   4.333 -0.4560  0.2026  0.0893
   51MOL   C18142281   4.916   6.677   4.264  0.0479  0.2565 -0.6412
   51MOL   C18242282   4.895   6.539   4.205 -0.3641  0.0575  0.4396
   51MOL   C18342283   5.026   6.479   4.140 -0.0434  0.0672  0.0364
   51MOL   H18442284   5.294   7.571   4.565  0.4579 -0.2520 -2.9235
   51MOL   H18542285   5.218   7.642   4.427  0.3404  1.4256 -0.3792
   51MOL   H18642286   5.035   0.006   4.606 -0.3411 -0.2386 -2.2873
   51MOL   H18742287   5.081   7.429   4.480  1.4491  0.4306  1.4067
   51MOL   H18842288   4.933   7.457   4.558 -0.1695 -1.2865 -0.9779
   51MOL   H18942289   4.868   7.641   4.428 -0.5693 -3.2901  3.5399
   51MOL   H19042290   5.017   7.624   4.323  0.5919 -0.6547 -0.5855
   51MOL   H19142291   4.779   7.421   4.322 -1.3049  0.5655 -1.9410
   51MOL   H19242292   4.827   7.536   4.204  1.0693  1.9604  0.6644
   51MOL   H19342293   5.042   7.338   4.276  2.4197  1.3579 -2.1004
   51MOL   H19442294   4.992   7.424   4.130  0.9473  1.2237  1.4944
   51MOL   H19542295   4.955   7.191   4.097  2.8188  1.4005  1.3549
   51MOL   H19642296   4.795   7.268   4.126 -0.0312  2.1456  1.4805
   51MOL   H19742297   4.814   7.190   4.359  1.1749  0.1500  0.7388
   51MOL   H19842298   4.983   7.155   4.334 -0.1261 -1.7968 -0.3895
   51MOL   H19942299   4.933   6.960   4.183 -1.0611  0.2790 -1.6848
   51MOL   H20042300   4.765   6.991   4.181 -2.0302  1.1634  2.0709
   51MOL   H20142301   4.763   6.937   4.447  0.9496 -0.3272 -0.0637
   51MOL   H20242302   4.934   6.898   4.413  0.7090  0.1202 -0.9106
   51MOL   H20342303   4.715   6.745   4.255 -0.4443  1.1898  0.0043
   51MOL   H20442304   4.760   6.696   4.422  1.2385 -3.2270 -1.3024
   51MOL   H20542305   4.943   6.754   4.192 -0.0786  2.1592  1.2903
   51MOL   H20642306   4.998   6.668   4.336  0.8436  0.3260 -1.5224
   51MOL   H20742307   4.835   6.476   4.270 -3.0838  0.8380 -1.2286
   51MOL   H20842308   4.820   6.553   4.126 -0.3086  0.6176  0.4856
   51MOL   H20942309   5.097   6.557   4.114  0.5863 -0.6457 -0.4291
   51MOL   H21042310   4.995   6.427   4.049  0.3812  1.7033 -1.0568
   51MOL   H21142311   5.071   6.423   4.223  0.0144  0.4478  0.2602
   51MOL   C21242312   5.115   7.569   4.746  0.4466 -0.1251 -0.0553
   51MOL   C21342313   4.986   7.553   4.831  0.2583  0.3422 -0.4460
   51MOL   C21442314   4.979   7.413   4.898  0.9158 -0.0074 -0.0893
   51MOL   C21542315   4.971   7.293   4.792  0.4696  0.1627 -0.2432
   51MOL   C21642316   4.938   7.158   4.860 -0.2278 -0.5448  0.4794
   51MOL   C21742317   4.919   7.049   4.759  0.2413 -0.2975  0.4080
   51MOL   C21842318   4.913   6.909   4.832 -0.3472 -0.0096 -0.1725
   51MOL   C21942319   4.871   6.807   4.727  0.3168  0.7019  0.1967
   51MOL   C22042320   4.892   6.659   4.763 -0.4774 -0.3029 -0.2877
   51MOL   C22142321   4.882   6.574   4.638 -0.6227  0.1474  0.1600
   51MOL   C22242322   4.911   6.424   4.674  0.1359 -0.0786  0.2017
   51MOL   C22342323   4.886   6.313   4.560  0.3869 -0.2862  0.0916
   51MOL   C22442324   4.929   6.172   4.604  0.0214 -0.0062  0.3759
   51MOL   C22542325   4.893   6.089   4.481 -0.1863 -1.0415  0.0733
   51MOL   H22642326   5.196   7.625   4.792  1.3049 -1.5759  0.2305
   51MOL   H22742327   5.172   7.476   4.752 -0.8189 -0.8104  1.7542
   51MOL   H22842328   4.897   7.556   4.768 -0.6856 -1.0355  0.7821
   51MOL   H22942329   5.062   7.394   4.965  1.3755  3.4904  0.4536
   51MOL   H23042330   4.887   7.409   4.957 -1.0389 -0.5387 -3.0342
   51MOL   H23142331   5.070   7.273   4.750  0.3311 -0.6998 -0.1601
   51MOL   H23242332   4.907   7.313   4.705 -2.1147  1.8980  1.9714
   51MOL   H23342333   4.851   7.174   4.923  1.2959 -0.7588  2.7115
   51MOL   H23442334   5.021   7.139   4.929  1.3163 -1.8109 -1.6779
   51MOL   H23542335   5.005   7.044   4.692 -0.6302 -2.5061 -0.5876
   51MOL   H23642336   4.830   7.065   4.698  1.0089  2.8574  0.0207
   51MOL   H23742337   5.008   6.888   4.881 -0.9070  0.3884  1.1309
   51MOL   H23842338   4.844   6.917   4.917 -1.2122  1.7778 -1.0068
   51MOL   H23942339   4.769   6.826   4.693  0.1526 -1.5901 -0.6733
   51MOL   H24042340   4.925   6.838   4.637 -1.0769 -0.6238 -1.1394
   51MOL   H24142341   4.818   6.632   4.838  1.2416 -0.9287  1.2087
   51MOL   H24242342   4.984   6.628   4.812 -0.0158 -1.0748 -1.6065
   51MOL   H24342343   4.783   6.578   4.593 -0.0793 -1.4908 -1.2494
   51MOL   H24442344   4.944   6.608   4.555 -0.7687  1.3662  0.5340
   51MOL   H24542345   4.847   6.387   4.754 -2.0764 -1.2911 -2.0753
   51MOL   H24642346   5.014   6.415   4.708 -0.0110  1.2421  1.0366
   51MOL   H24742347   4.943   6.343   4.472 -0.9967  2.3999  0.0588
   51MOL   H24842348   4.780   6.327   4.537  0.7279  2.5904  0.0040
   51MOL   H24942349   4.870   6.141   4.690 -0.1728 -0.4219  0.0965
   51MOL   H25042350   5.037   6.158   4.615  0.2036  1.0234 -0.0465
   51MOL   H25142351   4.893   5.981   4.493  0.7833 -1.0137  0.3484
   51MOL   H25242352   4.793   6.118   4.448  0.0483 -0.8445 -0.4664
   51MOL   H25342353   4.957   6.118   4.398 -2.1659  2.6869 -0.2627
   51MOL   C25442354   4.969   7.665   4.935  0.8974  0.0230  0.2310
   51MOL   C25542355   4.936   0.113   4.894 -0.0374  0.0565  0.3543
   51MOL   C25642356   4.795   0.128   4.824 -0.1565  0.1816  0.1858
   51MOL   C25742357   4.759   0.254   4.752 -0.0239 -0.3258 -0.6737
   51MOL   C25842358   4.852   0.295   4.636 -0.4858  1.1870 -0.0668
   51MOL   C25942359   4.827   0.429   4.568  0.5730  0.3920  0.3475
   51MOL   C26042360   4.881   0.550   4.654 -0.7110 -0.5064  0.1825
   51MOL   C26142361   4.886   0.692   4.591  0.7005 -0.4113 -0.4414
   51MOL   C26242362   4.918   0.814   4.690 -0.2495 -0.4176  0.3640
   51MOL   C26342363   4.896   0.947   4.615  0.0170 -0.5979 -0.3180
   51MOL   C26442364   4.951   1.067   4.702  0.3513  0.3859  0.4040
   51MOL   C26542365   4.905   1.195   4.635 -0.1528 -0.4745 -0.4942
   51MOL   C26642366   4.965   1.330   4.691  0.4154  0.0366  0.0929
   51MOL   C26742367   4.876   1.448   4.689 -0.2804 -0.5829 -0.0606
   51MOL   H26842368   5.062   7.663   4.991  0.1423 -1.2325  1.4650
   51MOL   H26942369   4.893   7.634   5.007 -0.3453 -0.4360 -1.2290
   51MOL   H27042370   5.008   0.152   4.823  0.4789 -0.3273  0.6690
   51MOL   H27142371   4.715   0.109   4.896  0.9734  2.3992  2.0815
   51MOL   H27242372   4.770   0.053   4.748 -3.2085  1.4760 -0.1729
   51MOL   H27342373   4.759   0.339   4.820 -0.7616  0.6792 -1.8985
   51MOL   H27442374   4.657   0.244   4.714 -0.7234 -1.0248  1.3448
   51MOL   H27542375   4.854   0.217   4.559  1.9125  1.4080 -0.2770
   51MOL   H27642376   4.956   0.295   4.668 -0.4078  1.2945 -0.3244
   51MOL   H27742377   4.726   0.455   4.538 -0.2902 -1.9324  1.1447
   51MOL   H27842378   4.896   0.432   4.483  0.6983  0.8164  0.4577
   51MOL   H27942379   4.814   0.543   4.740 -1.5396  0.6563 -0.3692
   51MOL   H28042380   4.982   0.524   4.687 -0.2630  2.6108  1.3518
   51MOL   H28142381   4.790   0.705   4.540  1.4249 -2.2249 -2.3095
   51MOL   H28242382   4.964   0.686   4.515  0.6928  1.5707 -0.6364
   51MOL   H28342383   4.848   0.804   4.773 -0.2371 -1.5115  0.2566
   51MOL   H28442384   5.018   0.803   4.731  0.3402  0.3275 -0.8538
   51MOL   H28542385   4.790   0.953   4.593  0.2080  1.7855 -0.7048
   51MOL   H28642386   4.950   0.947   4.521  0.9820  1.3950  0.1995
   51MOL   H28742387   5.060   1.069   4.699  0.3836 -1.1835 -0.2909
   51MOL   H28842388   4.911   1.067   4.803 -1.0323 -2.2192 -0.1081
   51MOL   H28942389   4.932   1.197   4.529  2.1517 -0.5181  0.0844
   51MOL   H29042390   4.796   1.190   4.642 -0.0038 -1.0464  1.9613
   51MOL   H29142391   4.991   1.311   4.796  0.7123  0.7912  0.1613
   51MOL   H29242392   5.060   1.347   4.641 -0.0277  0.2374 -0.6794
   51MOL   H29342393   4.776   1.425   4.726 -0.7391  1.3365 -0.0669
   51MOL   H29442394   4.864   1.477   4.584 -2.7011 -0.9095  0.1056
   51MOL   H29542395   4.912   1.522   4.760 -2.3166  2.2219 -1.8458
   51MOL   C29642396   4.925   0.202   5.021 -0.2519 -0.1119 -0.4086
   51MOL   C29742397   5.060   0.237   5.092  0.3719  0.3832 -0.1204
   51MOL   C29842398   5.105   0.383   5.051  0.5581 -0.2230  0.5715
   51MOL   C29942399   5.168   0.394   4.913 -0.1328  0.3187 -0.2652
   51MOL   C30042400   5.282   0.502   4.896  0.5709  1.5164  0.4497
   51MOL   C30142401   5.354   0.519   4.766 -0.3887 -0.0833  0.0825
   51MOL   C30242402   5.301   0.622   4.673  0.1704  0.0444 -0.0490
   51MOL   C30342403   5.345   0.617   4.528 -0.2718 -0.4261 -0.2196
   51MOL   C30442404   5.301   0.745   4.451 -0.2682  0.4510  0.3454
   51MOL   C30542405   5.415   0.847   4.454  0.0497 -0.3038 -0.5576
   51MOL   C30642406   5.388   0.960   4.355 -0.2771  1.0108  0.6907
   51MOL   C30742407   5.485   1.079   4.360 -0.3017 -0.5395  0.0397
   51MOL   C30842408   5.476   1.165   4.484 -0.3969  0.7099  0.5733
   51MOL   C30942409   5.348   1.240   4.523 -0.5200  0.5710  0.7444
   51MOL   H31042410   4.862   0.160   5.099 -0.9335  1.3547 -0.1495
   51MOL   H31142411   4.883   0.298   4.991  0.5941  0.5508  0.4952
   51MOL   H31242412   5.138   0.167   5.060 -1.0813 -0.0488 -2.8682
   51MOL   H31342413   5.178   0.414   5.126  0.7523 -0.0688  0.3165
   51MOL   H31442414   5.025   0.455   5.072  1.2593  0.8701 -0.4493
   51MOL   H31542415   5.097   0.371   4.834  0.3750 -1.8671 -0.1376
   51MOL   H31642416   5.218   0.297   4.903 -0.1179  0.0598  1.9698
   51MOL   H31742417   5.248   0.590   4.951 -2.8618 -1.0542  2.5955
   51MOL   H31842418   5.363   0.463   4.959  1.1891  0.3900 -1.0146
   51MOL   H31942419   5.374   0.427   4.712  2.1542  1.6526 -2.0693
   51MOL   H32042420   5.458   0.546   4.782 -1.0376  1.5090  1.8125
   51MOL   H32142421   5.192   0.616   4.674  0.2225 -1.9027 -2.0321
   51MOL   H32242422   5.317   0.712   4.733  0.9706  1.6474 -2.6132
   51MOL   H32342423   5.313   0.528   4.474 -2.2140 -0.3612  0.7948
   51MOL   H32442424   5.453   0.600   4.533  0.3271  3.3471  1.1953
   51MOL   H32542425   5.277   0.724   4.347  1.4418 -0.8652  0.1988
   51MOL   H32642426   5.209   0.776   4.500  0.1078  1.3520  0.5093
   51MOL   H32742427   5.509   0.804   4.421  0.0126 -0.6445 -0.2216
   51MOL   H32842428   5.432   0.889   4.554  0.6184 -1.3085 -0.2223
   51MOL   H32942429   5.287   0.992   4.380 -0.0950  2.1878 -0.0346
   51MOL   H33042430   5.387   0.935   4.249 -1.4287 -0.3908  1.0202
   51MOL   H33142431   5.468   1.142   4.273 -0.0394 -0.1081  0.2955
   51MOL   H33242432   5.589   1.048   4.359 -0.2298 -0.3270  0.4208
   51MOL   H33342433   5.559   1.235   4.475  0.9380 -0.9381 -0.2427
   51MOL   H33442434   5.503   1.106   4.572  1.0418 -0.1138 -0.3975
   51MOL   H33542435   5.340   1.317   4.447  0.1868  1.1772  1.2756
   51MOL   H33642436   5.255   1.183   4.518  0.8109 -1.5090 -1.6319
   51MOL   H33742437   5.356   1.280   4.624  1.1098  1.5077  0.2517
   51MOL   C33842438   5.050   0.238   5.247  0.5084 -0.1102 -0.6021
   51MOL   C33942439   5.092   0.101   5.313  0.1308 -0.1248 -0.1412
   51MOL   C34042440   5.254   0.099   5.311 -0.6533  0.0440  0.3923
   51MOL   C34142441   5.327   0.202   5.399 -0.5123  0.1397  0.7894
   51MOL   C34242442   5.427   0.139   5.501 -0.6237 -0.3079  0.8808
   51MOL   C34342443   5.497   0.247   5.588 -0.0599  0.2131  0.0735
   51MOL   C34442444   5.409   0.284   5.703  0.5512  0.4573  0.5479
   51MOL   C34542445   5.476   0.384   5.800  0.2231  0.1474 -0.6870
   51MOL   C34642446   5.375   0.441   5.904  0.1391 -0.4688 -0.6497
   51MOL   C34742447   5.437   0.562   5.974  0.3393  0.4833  0.0296
   51MOL   C34842448   5.352   0.628   6.085  0.0383  0.2633 -0.1266
   51MOL   C34942449   5.437   0.738   6.145  0.1965  0.0644  0.7557
   51MOL   C35042450   5.361   0.821   6.252  0.6561  0.0717 -0.7711
   51MOL   C35142451   5.341   0.748   6.386  0.3208 -0.0141  0.2092
   51MOL   H35242452   5.100   0.324   5.292 -2.1685  1.3167 -0.2396
   51MOL   H35342453   4.946   0.249   5.278 -0.8514 -1.1642 -4.5699
   51MOL   H35442454   5.050   0.030   5.242 -1.4170  1.2876 -0.6564
   51MOL   H35542455   5.294   0.002   5.342  0.5422  0.1278 -0.8267
   51MOL   H35642456   5.292   0.110   5.209  1.5209 -0.6044  1.1066
   51MOL   H35742457   5.247   0.254   5.452  0.5147  0.2852  2.2378
   51MOL   H35842458   5.384   0.273   5.338  1.9596 -1.9595  0.5865
   51MOL   H35942459   5.504   0.098   5.435  0.2428  0.2176  1.5596
   51MOL   H36042460   5.389   0.055   5.559  1.9594 -0.7826  1.9489
   51MOL   H36142461   5.587   0.206   5.634  0.2694  0.4088 -0.3935
   51MOL   H36242462   5.534   0.332   5.531  1.1079  0.1504  0.7103
   51MOL   H36342463   5.309   0.322   5.683  0.5814  0.5758  0.6223
   51MOL   H36442464   5.389   0.195   5.763 -0.9122  0.5156  0.1446
   51MOL   H36542465   5.570   0.350   5.843  0.9739  0.7517 -1.8297
   51MOL   H36642466   5.514   0.473   5.752 -0.0028  0.0998 -0.9583
   51MOL   H36742467   5.281   0.465   5.855 -0.8675 -1.5156  0.7556
   51MOL   H36842468   5.333   0.363   5.967  0.3532  0.8119  1.0994
   51MOL   H36942469   5.535   0.538   6.015  1.0288  1.2100 -1.1446
   51MOL   H37042470   5.458   0.647   5.908 -1.7582  0.5494 -0.5869
   51MOL   H37142471   5.322   0.547   6.153  0.6361 -0.1713 -0.3746
   51MOL   H37242472   5.257   0.666   6.047 -1.0882 -0.6625  1.6712
   51MOL   H37342473   5.468   0.805   6.066  0.3643  0.5008  1.1863
   51MOL   H37442474   5.533   0.703   6.183  1.0739  1.9095  0.2951
   51MOL   H37542475   5.423   0.909   6.272 -1.5022  1.2556  0.9056
   51MOL   H37642476   5.273   0.864   6.204  0.9552  1.6583  0.0615
   51MOL   H37742477   5.287   0.654   6.380  0.4939 -0.2637  2.2229
   51MOL   H37842478   5.434   0.716   6.435 -0.2116 -1.0035  0.5851
   51MOL   H37942479   5.282   0.810   6.454 -2.6756 -2.2578 -0.2632
   51MOL   C38042480   5.035   0.079   5.456 -0.1591  0.1827  0.0310
   51MOL   C38142481   5.083   7.643   5.527 -0.1598  0.3927 -0.0228
   51MOL   C38242482   5.032   7.650   5.676  0.3752  0.1112  0.9017
   51MOL   C38342483   5.108   0.048   5.765  0.1834 -0.8376  0.5335
   51MOL   C38442484   5.029   0.059   5.901 -0.9389  0.1270  0.1485
   51MOL   C38542485   5.094   0.151   6.008  0.0719  0.3958 -0.5788
   51MOL   C38642486   5.008   0.155   6.135 -0.1741 -0.0511  0.2630
   51MOL   C38742487   5.055   0.269   6.232 -0.1945  0.7675 -0.5608
   51MOL   C38842488   4.993   0.275   6.376 -0.0326 -0.2107  0.1920
   51MOL   C38942489   5.008   0.410   6.442  0.1949 -0.6782  0.5839
   51MOL   C39042490   4.958   0.417   6.589  0.3436 -0.1285  0.1755
   51MOL   C39142491   4.809   0.458   6.604 -0.6958  0.6492  0.9449
   51MOL   C39242492   4.756   0.481   6.744  0.6927  0.1177  0.1921
   51MOL   C39342493   4.607   0.497   6.741  0.3586 -0.3593  0.0915
   51MOL   H39442494   4.927   0.083   5.463 -0.2579 -2.1940  0.5453
   51MOL   H39542495   5.063   0.161   5.523  0.5923 -0.3078  0.3224
   51MOL   H39642496   5.191   7.644   5.530 -0.1858  0.1429  4.7121
   51MOL   H39742497   5.065   7.556   5.720  2.1386 -0.5818 -1.7430
   51MOL   H39842498   4.923   7.658   5.672  0.4893  0.7849 -1.2641
   51MOL   H39942499   5.112   0.150   5.728 -0.4841 -1.2275 -0.6777
   51MOL   H40042500   5.214   0.026   5.775  0.7795  2.4810  1.9564
   51MOL   H40142501   5.023   7.658   5.952 -1.8027 -0.1430 -0.4650
   51MOL   H40242502   4.926   0.092   5.887 -0.4331  1.3299 -0.8316
   51MOL   H40342503   5.113   0.247   5.959  0.1141  0.1050 -1.1336
   51MOL   H40442504   5.197   0.123   6.026  0.4135  0.1225 -2.7604
   51MOL   H40542505   4.909   0.185   6.101  0.5554  0.9508 -1.0002
   51MOL   H40642506   5.014   0.053   6.174  1.7149 -1.1822 -2.8749
   51MOL   H40742507   5.163   0.265   6.242 -0.2519 -2.1663 -0.5682
   51MOL   H40842508   5.038   0.365   6.182 -0.3091  1.2138  0.3267
   51MOL   H40942509   4.885   0.267   6.373 -0.0802  0.1083  1.1481
   51MOL   H41042510   5.032   0.194   6.437 -1.1001 -2.6873 -2.2749
   51MOL   H41142511   4.952   0.486   6.388 -1.6168 -0.2081  3.0166
   51MOL   H41242512   5.111   0.443   6.430  0.5695 -1.7662  0.7111
   51MOL   H41342513   4.983   0.327   6.645 -0.1206  1.2209  2.6211
   51MOL   H41442514   5.018   0.495   6.636  1.8555 -0.8855 -0.4551
   51MOL   H41542515   4.750   0.386   6.546  1.1320  1.0336 -1.4784
   51MOL   H41642516   4.809   0.556   6.556  3.9712  0.5501  0.4937
   51MOL   H41742517   4.780   0.402   6.815 -0.2129 -0.4264 -0.1153
   51MOL   H41842518   4.806   0.570   6.783  0.3608  0.5792 -0.4290
   51MOL   H41942519   4.561   0.406   6.780  0.0615 -1.1628 -2.0647
   51MOL   H42042520   4.566   0.519   6.642  2.8235  0.2209 -0.8302
   51MOL   H42142521   4.577   0.572   6.815 -0.5908 -0.7766  0.1339
   51MOL   C42242522   5.028   7.513   5.456  0.3934  0.4838  0.1367
   51MOL   C42342523   5.113   7.382   5.478 -0.5242 -0.8201  1.7295
   51MOL   C42442524   5.019   7.266   5.455 -0.4872 -1.1340  0.8208
   51MOL   C42542525   4.982   7.238   5.309  0.3432  0.5426  0.0329
   51MOL   C42642526   4.895   7.111   5.298 -0.1753 -0.0192 -0.2259
   51MOL   C42742527   4.955   6.973   5.334 -0.1332 -0.4121  0.2163
   51MOL   C42842528   4.869   6.856   5.280 -0.5009 -0.2110  0.1165
   51MOL   C42942529   4.948   6.726   5.256  0.1430 -0.3225 -0.1176
   51MOL   C43042530   4.863   6.614   5.193  0.4517  0.7077 -0.7805
   51MOL   C43142531   4.927   6.475   5.171  0.5968 -0.9664 -0.0046
   51MOL   C43242532   4.833   6.370   5.113 -0.4079  0.6028  0.1662
   51MOL   C43342533   4.908   6.243   5.062  0.3087 -0.2242  0.0093
   51MOL   C43442534   4.817   6.131   5.016  0.0814 -0.5781 -0.4279
   51MOL   C43542535   4.893   6.009   4.982  0.2368  1.1869  0.0123
   51MOL   H43642536   5.016   7.528   5.349 -1.4892 -0.3862  0.2005
   51MOL   H43742537   4.929   7.494   5.497 -0.2231 -0.1571 -1.6117
   51MOL   H43842538   5.133   7.382   5.585  2.1437  1.0561  1.2948
   51MOL   H43942539   4.936   7.266   5.525 -1.3047 -0.1104 -0.1321
   51MOL   H44042540   5.078   7.180   5.488 -0.9256 -1.4126  0.8760
   51MOL   H44142541   4.943   7.327   5.261 -0.9901  0.0107  0.1246
   51MOL   H44242542   5.076   7.220   5.257 -0.0577  0.8057 -0.7816
   51MOL   H44342543   4.866   7.116   5.193 -0.9464  1.7750  0.0534
   51MOL   H44442544   4.803   7.123   5.356 -1.1192  0.0378 -1.7145
   51MOL   H44542545   4.957   6.985   5.443  2.6104  3.2794 -0.1596
   51MOL   H44642546   5.053   6.946   5.293 -0.9848 -2.8815 -0.3004
   51MOL   H44742547   4.787   6.839   5.349  0.1176  3.4956  1.9054
   51MOL   H44842548   4.817   6.880   5.187 -1.5260 -0.5480  0.5976
   51MOL   H44942549   5.020   6.749   5.177 -0.9718  0.8144 -0.8204
   51MOL   H45042550   4.993   6.692   5.349  1.3825 -0.5252 -0.7798
   51MOL   H45142551   4.782   6.588   5.261  0.4078 -0.0408 -1.1074
   51MOL   H45242552   4.820   6.649   5.099 -2.4279 -0.7399 -0.0505
   51MOL   H45342553   5.014   6.492   5.107 -1.9432 -2.4245 -3.9954
   51MOL   H45442554   4.964   6.448   5.270 -0.0715  0.4042  0.6399
   51MOL   H45542555   4.757   6.347   5.188 -0.3350  0.1972  0.1127
   51MOL   H45642556   4.775   6.404   5.026  2.3622 -0.7654 -2.2850
   51MOL   H45742557   4.971   6.203   5.141  2.7462  2.3049 -0.5595
   51MOL   H45842558   4.980   6.268   4.984 -0.8181  0.2717 -0.8793
   51MOL   H45942559   4.735   6.106   5.083  0.4327  0.6422  0.4625
   51MOL   H46042560   4.758   6.168   4.932 -0.0017 -0.7535 -0.4470
   51MOL   H46142561   4.937   6.018   4.882 -1.2574  1.2146 -0.6595
   51MOL   H46242562   4.827   5.923   4.970  0.4761  1.0922 -0.6607
   51MOL   H46342563   4.977   5.992   5.048 -0.7814 -0.2788  0.9467
   51MOL   C46442564   5.250   7.387   5.405 -0.1190  0.5130 -0.2858
   51MOL   C46542565   5.353   7.283   5.472  0.5366  0.4350  0.5606
   51MOL   C46642566   5.365   7.156   5.376 -0.6395  0.4432  0.2748
   51MOL   C46742567   5.441   7.036   5.439  0.4038 -0.0233  0.1857
   51MOL   C46842568   5.427   6.917   5.340 -0.0342 -0.0982  0.8655
   51MOL   C46942569   5.497   6.793   5.385  0.1819 -0.0177 -0.4922
   51MOL   C47042570   5.483   6.669   5.298 -0.6159  0.4964 -0.1422
   51MOL   C47142571   5.557   6.546   5.358 -0.0166  0.6562 -0.1668
   51MOL   C47242572   5.551   6.414   5.272  0.3814  0.1122 -0.8731
   51MOL   C47342573   5.586   6.292   5.347 -1.0307 -0.0134 -0.6635
   51MOL   C47442574   5.594   6.161   5.259 -0.5473 -0.1222 -0.0466
   51MOL   C47542575   5.606   6.034   5.353 -0.2308  0.1259  0.6855
   51MOL   C47642576   5.672   5.913   5.274 -0.1888  0.2534  0.1137
   51MOL   C47742577   5.703   5.794   5.363  0.5546  0.1237  0.2035
   51MOL   H47842578   5.294   7.485   5.422 -2.4384  1.8923 -1.9204
   51MOL   H47942579   5.245   7.368   5.298  0.3857 -0.9720 -0.0525
   51MOL   H48042580   5.309   7.238   5.561  0.6591 -0.3582  0.2215
   51MOL   H48142581   5.265   7.123   5.347 -0.2851  1.9097 -2.8467
   51MOL   H48242582   5.414   7.183   5.283  1.3392 -0.3577  1.0594
   51MOL   H48342583   5.396   7.013   5.535 -0.0957 -0.5237 -0.1615
   51MOL   H48442584   5.543   7.062   5.467  0.3698 -1.1348  1.3529
   51MOL   H48542585   5.450   6.941   5.236 -3.0290 -1.7003 -0.2544
   51MOL   H48642586   5.323   6.884   5.348  0.1188  0.1753  5.8267
   51MOL   H48742587   5.602   6.816   5.401  0.2619 -1.4382  1.1578
   51MOL   H48842588   5.455   6.763   5.481  1.9323  1.9587  0.9486
   51MOL   H48942589   5.378   6.640   5.291 -0.3074 -0.6774  0.1807
   51MOL   H49042590   5.521   6.684   5.197 -1.1804 -0.7465 -0.5490
   51MOL   H49142591   5.661   6.565   5.384 -0.2243 -1.3798  2.4157
   51MOL   H49242592   5.520   6.527   5.459 -0.2324 -1.0142 -0.5427
   51MOL   H49342593   5.451   6.395   5.232 -0.7945 -0.2146  2.0357
   51MOL   H49442594   5.622   6.435   5.193 -0.2501 -0.2933 -1.5565
   51MOL   H49542595   5.683   6.312   5.394 -0.5502  2.4549 -2.6223
   51MOL   H49642596   5.508   6.288   5.424 -0.9321 -2.0759 -0.6485
   51MOL   H49742597   5.508   6.158   5.192 -0.1597  2.0843 -0.6726
   51MOL   H49842598   5.676   6.167   5.188 -0.5885  0.6896 -0.0303
   51MOL   H49942599   5.506   6.017   5.393 -0.9096 -0.6920 -1.3110
   51MOL   H50042600   5.666   6.070   5.437 -2.7854  2.3903  1.5895
   51MOL   H50142601   5.609   5.891   5.188  0.1152  0.5873 -0.2001
   51MOL   H50242602   5.771   5.939   5.237 -0.3939  1.0491  0.1175
   51MOL   H50342603   5.756   5.718   5.306  3.7311  0.5268  2.4695
   51MOL   H50442604   5.769   5.831   5.442  1.4547  1.2627 -1.0602
   51MOL   H50542605   5.611   5.742   5.388  0.2122  0.9748  0.7365
   51MOL   C50642606   5.487   7.347   5.510  0.4370  0.1962  0.3427
   51MOL   C50742607   5.535   7.312   5.655  0.4927 -0.1240 -0.9434
   51MOL   C50842608   5.677   7.364   5.676  0.2165 -0.3298  0.3465
   51MOL   C50942609   5.686   7.521   5.666  0.4713 -0.6571 -0.3534
   51MOL   C51042610   5.828   7.575   5.715  0.4372  0.1377 -0.5590
   51MOL   C51142611   5.818   0.024   5.767 -0.2525  0.4712 -1.0607
   51MOL   C51242612   5.955   0.092   5.802  0.3283  0.6296 -0.2173
   51MOL   C51342613   5.949   0.248   5.818  0.5068 -0.0197 -0.2334
   51MOL   C51442614   6.081   0.317   5.842 -0.1183 -0.3990  0.1503
   51MOL   C51542615   6.168   0.253   5.950 -0.1483 -0.4281 -0.0193
   51MOL   C51642616   6.095   0.246   6.093 -0.1458  0.0620 -0.1807
   51MOL   C51742617   6.185   0.199   6.202  0.0363  0.2404  1.0658
   51MOL   C51842618   6.115   0.208   6.344  1.1566 -0.5743  0.1164
   51MOL   C51942619   6.001   0.108   6.362 -0.6227 -0.5576  0.5297
   51MOL   H52042620   5.487   7.454   5.492  1.1433  0.7293  3.3352
   51MOL   H52142621   5.566   7.316   5.441  0.0555  1.4674 -0.7002
   51MOL   H52242622   5.543   7.205   5.676  1.8293 -0.0825 -1.2057
   51MOL   H52342623   5.712   7.340   5.776  1.8715 -2.6574 -0.7468
   51MOL   H52442624   5.740   7.307   5.607  2.3016  1.3814  0.7794
   51MOL   H52542625   5.670   7.545   5.561 -2.5186 -2.0462 -0.2459
   51MOL   H52642626   5.606   7.567   5.722  0.1772 -1.4099 -0.1478
   51MOL   H52742627   5.898   7.570   5.632  0.6747 -0.6643 -0.3066
   51MOL   H52842628   5.859   7.505   5.792 -0.8758 -0.2836 -0.3923
   51MOL   H52942629   5.739   0.031   5.841  0.3735  1.8842 -0.4917
   51MOL   H53042630   5.769   0.080   5.688 -1.5181  1.3617  0.3343
   51MOL   H53142631   5.990   0.056   5.899  0.0770  0.9845  0.0107
   51MOL   H53242632   6.031   0.070   5.728  1.1962  0.3016  0.7669
   51MOL   H53342633   5.873   0.268   5.892  0.5911 -1.7897  0.3367
   51MOL   H53442634   5.904   0.293   5.729  1.2227  0.7929 -0.1920
   51MOL   H53542635   6.063   0.423   5.861 -1.2682 -0.8125  1.3814
   51MOL   H53642636   6.132   0.314   5.746 -1.9211 -2.3700 -0.7952
   51MOL   H53742637   6.199   0.150   5.934  0.3213 -0.3122  0.1392
   51MOL   H53842638   6.262   0.309   5.953 -0.0529 -0.5405 -0.7974
   51MOL   H53942639   6.045   0.336   6.127 -0.2787  0.0695 -0.3925
   51MOL   H54042640   6.017   0.170   6.087  0.6020 -0.6760 -0.6366
   51MOL   H54142641   6.279   0.254   6.206  0.1726  0.2298 -1.1567
   51MOL   H54242642   6.210   0.095   6.181  1.1714  0.2261  2.3835
   51MOL   H54342643   6.090   0.313   6.360 -0.3079 -0.8531 -0.2917
   51MOL   H54442644   6.192   0.187   6.417 -0.0746  0.0242  1.6076
   51MOL   H54542645   6.025   0.013   6.314 -1.4122 -0.7414  0.4896
   51MOL   H54642646   5.981   0.094   6.468  0.9690 -0.8761  0.8090
   51MOL   H54742647   5.903   0.132   6.321 -0.1705  0.7856  0.2351
   51MOL   C54842648   5.434   7.362   5.763 -0.3845  0.2183  0.3089
   51MOL   C54942649   5.461   7.329   5.911  0.8932  0.7673 -0.1142
   51MOL   C55042650   5.436   7.445   6.009 -0.0036  0.9388 -0.1080
   51MOL   C55142651   5.471   7.590   5.973 -0.5616  0.0070  0.3836
   51MOL   C55242652   5.446   7.685   6.084 -0.1384 -0.0061 -0.2961
   51MOL   C55342653   5.525   0.119   6.054  0.1181 -0.5948 -0.5874
   51MOL   C55442654   5.512   0.223   6.172  0.2857  0.1576 -0.0394
   51MOL   C55542655   5.558   0.176   6.311  0.0883 -0.7018 -0.1823
   51MOL   C55642656   5.577   0.302   6.399 -0.2314  0.4191  0.2458
   51MOL   C55742657   5.599   0.260   6.551  0.1154 -0.5709  0.6037
   51MOL   C55842658   5.649   0.384   6.642  0.1017  0.0623 -0.5160
   51MOL   C55942659   5.782   0.444   6.617  0.3803 -0.3244  0.1845
   51MOL   C56042660   5.811   0.560   6.716 -0.0607 -0.2700 -0.0325
   51MOL   C56142661   5.694   0.659   6.743 -0.6387  0.5975 -0.1231
   51MOL   H56242662   5.421   7.469   5.745 -0.2316  0.1862 -0.0059
   51MOL   H56342663   5.333   7.343   5.727  0.2212 -0.4374 -1.0977
   51MOL   H56442664   5.565   7.307   5.934  0.6916 -0.4895 -0.3653
   51MOL   H56542665   5.331   7.444   6.040  0.1171 -2.4549  0.3733
   51MOL   H56642666   5.474   7.406   6.103 -0.8614 -0.2613 -0.2336
   51MOL   H56742667   5.412   7.617   5.885 -1.4601 -0.4444  0.8498
   51MOL   H56842668   5.574   7.602   5.940 -0.3419  1.4169  1.5261
   51MOL   H56942669   5.338   0.001   6.098 -0.2058 -1.9104  0.8836
   51MOL   H57042670   5.487   7.642   6.175 -1.4437  0.3310  0.4731
   51MOL   H57142671   5.494   0.173   5.964  1.3360  1.2485  0.0744
   51MOL   H57242672   5.630   0.091   6.047  0.7562  1.8607 -1.3169
   51MOL   H57342673   5.570   0.313   6.150  0.6881  0.1676  1.0553
   51MOL   H57442674   5.408   0.256   6.171  0.0308 -0.6308  0.6281
   51MOL   H57542675   5.655   0.128   6.308  0.1110 -0.6829  0.2459
   51MOL   H57642676   5.483   0.105   6.348 -1.9371  1.0130 -0.8790
   51MOL   H57742677   5.487   0.363   6.390 -0.0195  0.9299  1.3949
   51MOL   H57842678   5.657   0.365   6.362 -0.4967  0.8545  0.4104
   51MOL   H57942679   5.517   0.202   6.594  0.6625 -1.8624 -0.0658
   51MOL   H58042680   5.684   0.193   6.539 -1.1512 -1.8460 -1.7964
   51MOL   H58142681   5.638   0.368   6.749 -2.1425 -0.7661 -0.8277
   51MOL   H58242682   5.576   0.463   6.622  0.8930  1.4605  2.0033
   51MOL   H58342683   5.860   0.369   6.626  0.3821 -0.5010 -1.1617
   51MOL   H58442684   5.777   0.485   6.516 -2.3741 -0.6295  0.1389
   51MOL   H58542685   5.845   0.519   6.811  1.7632  0.3851 -0.3825
   51MOL   H58642686   5.894   0.622   6.682 -0.8450 -0.4026 -2.3003
   51MOL   H58742687   5.616   0.619   6.809  0.0191  2.4628  1.8643
   51MOL   H58842688   5.734   0.737   6.808  0.5558  0.8577 -1.1411
   51MOL   H58942689   5.666   0.710   6.651  0.4829 -0.1115 -0.8722
   51MOL   C59042690   5.375   7.206   5.952 -0.3093  0.2823  0.3557
   51MOL   C59142691   5.403   7.068   5.885 -0.5186 -0.6450  0.1421
   51MOL   C59242692   5.542   7.005   5.915 -0.4809  0.2489 -0.1343
   51MOL   C59342693   5.569   6.898   5.799  0.7063 -0.3634  0.5161
   51MOL   C59442694   5.708   6.818   5.811 -0.1102 -0.1857 -0.2084
   51MOL   C59542695   5.732   6.680   5.739 -0.4553  0.3757  0.3778
   51MOL   C59642696   5.613   6.577   5.759 -0.5382 -0.0454  0.1680
   51MOL   C59742697   5.628   6.446   5.687  0.6096 -0.1611  0.6195
   51MOL   C59842698   5.712   6.354   5.777  0.1058 -0.8019  0.3718
   51MOL   C59942699   5.714   6.209   5.733 -0.2442 -0.5818 -0.1872
   51MOL   C60042700   5.593   6.125   5.790  0.3621  0.5968  0.3471
   51MOL   C60142701   5.613   5.975   5.750 -0.1146 -0.5397  0.6244
   51MOL   C60242702   5.501   5.893   5.809 -0.2166  0.9153  0.4752
   51MOL   C60342703   5.523   5.748   5.785  0.4697 -0.2615  0.3745
   51MOL   H60442704   5.272   7.235   5.935 -0.7687 -1.3963  0.2382
   51MOL   H60542705   5.399   7.202   6.058  0.7188  0.8925  0.1595
   51MOL   H60642706   5.388   7.074   5.777 -1.4978 -0.7335  0.2638
   51MOL   H60742707   5.544   6.948   6.008  2.4796 -0.4189 -0.5712
   51MOL   H60842708   5.625   7.075   5.915 -0.3417  0.0831 -0.0009
   51MOL   H60942709   5.561   6.951   5.705  2.5061  1.7099  1.4969
   51MOL   H61042710   5.487   6.826   5.792  0.1112  0.3377  0.2417
   51MOL   H61142711   5.724   6.800   5.917 -0.1851  1.5860  0.1225
   51MOL   H61242712   5.792   6.880   5.779  1.4953 -1.2908  1.7454
   51MOL   H61342713   5.829   6.637   5.764  0.3494  1.2457 -1.2041
   51MOL   H61442714   5.726   6.702   5.633 -0.3471  1.4548  0.5844
   51MOL   H61542715   5.609   6.558   5.867 -0.8128 -1.3260 -0.0667
   51MOL   H61642716   5.522   6.625   5.723  0.4062  2.1855  0.6697
   51MOL   H61742717   5.524   6.418   5.677  0.3135  0.7934  0.9715
   51MOL   H61842718   5.673   6.478   5.593  1.5337 -0.0556  1.0859
   51MOL   H61942719   5.814   6.393   5.779 -0.6083  1.3011 -1.4677
   51MOL   H62042720   5.681   6.358   5.881 -2.4170  2.1342 -0.4263
   51MOL   H62142721   5.728   6.197   5.626  2.0309  0.6753 -0.0651
   51MOL   H62242722   5.802   6.164   5.778 -1.7041 -1.7221  1.5592
   51MOL   H62342723   5.503   6.157   5.737  1.0259  1.7605 -0.1185
   51MOL   H62442724   5.590   6.123   5.899  0.4039 -0.9204  0.3272
   51MOL   H62542725   5.706   5.940   5.794  0.6614 -1.3105 -1.5740
   51MOL   H62642726   5.616   5.963   5.642 -2.0043 -1.5102  0.6445
   51MOL   H62742727   5.498   5.906   5.918 -3.8574 -0.4332  0.6056
   51MOL   H62842728   5.402   5.922   5.773  0.0948  0.5073 -0.7350
   51MOL   H62942729   5.611   5.719   5.844  2.4912 -0.1845 -2.4900
   51MOL   H63042730   5.554   5.731   5.682  4.1602 -0.6180  1.4511
   51MOL   H63142731   5.437   5.686   5.811  1.2147 -2.1861 -1.6688
   51MOL   C63242732   5.291   6.972   5.946 -0.8995  0.4086  0.0131
   51MOL   C63342733   5.146   6.976   5.893  0.1661 -0.0113 -0.4310
   51MOL   C63442734   5.123   6.892   5.761  0.3064  0.1890 -0.1620
   51MOL   C63542735   5.130   6.736   5.776  0.2980 -0.4613 -0.6069
   51MOL   C63642736   5.108   6.669   5.642  0.2217  0.0965 -0.2016
   51MOL   C63742737   5.151   6.521   5.654 -0.0924  0.1345 -0.2725
   51MOL   C63842738   5.174   6.444   5.523 -0.4280 -0.0083  1.0555
   51MOL   C63942739   5.169   6.294   5.544 -0.3958 -0.1581  0.3423
   51MOL   C64042740   5.181   6.218   5.414 -0.1010 -0.3559 -0.0460
   51MOL   C64142741   5.199   6.067   5.436  0.0260  0.3880 -0.0783
   51MOL   C64242742   5.220   5.988   5.308 -0.4725 -0.7607 -0.2041
   51MOL   C64342743   5.217   5.838   5.339  0.1847  0.1565 -0.1713
   51MOL   C64442744   5.262   5.751   5.222 -0.1426  0.8238  0.1454
   51MOL   C64542745   5.150   5.728   5.117 -0.1548  0.2195 -0.0866
   51MOL   H64642746   5.291   6.987   6.054 -0.3021 -2.1855  0.4017
   51MOL   H64742747   5.323   6.869   5.934 -0.0346  0.6522  0.1621
   51MOL   H64842748   5.118   7.079   5.871  1.2996  0.5437  0.6150
   51MOL   H64942749   5.034   6.916   5.704 -0.5095 -2.2621  0.0411
   51MOL   H65042750   5.207   6.923   5.699 -0.3591  2.0290 -0.1695
   51MOL   H65142751   5.057   6.697   5.848 -0.4734 -0.3787 -1.3395
   51MOL   H65242752   5.225   6.708   5.821 -0.3555 -1.0618  0.4303
   51MOL   H65342753   5.176   6.720   5.574  0.8128 -0.0588  0.2713
   51MOL   H65442754   5.004   6.671   5.609 -0.1986 -2.2592  0.8879
   51MOL   H65542755   5.244   6.498   5.706 -0.4388 -1.5930 -0.4093
   51MOL   H65642756   5.068   6.473   5.706 -0.8471  1.0096 -0.6554
   51MOL   H65742757   5.094   6.469   5.453 -0.0691  0.6262  0.8724
   51MOL   H65842758   5.266   6.482   5.479 -0.6050 -0.3216  0.3927
   51MOL   H65942759   5.083   6.269   5.607 -0.5418  2.4880  1.2276
   51MOL   H66042760   5.260   6.260   5.594 -0.7160 -1.5968 -0.0184
   51MOL   H66142761   5.268   6.246   5.356 -0.3566  0.3036 -0.1189
   51MOL   H66242762   5.089   6.240   5.359  0.2748  3.0849  0.5548
   51MOL   H66342763   5.292   6.049   5.490 -0.1567 -1.4131 -0.3403
   51MOL   H66442764   5.115   6.022   5.488 -0.0278 -0.7133 -1.0785
   51MOL   H66542765   5.143   6.015   5.236 -1.6656 -1.5786  0.7462
   51MOL   H66642766   5.320   6.008   5.268  0.0787 -2.6043  0.1842
   51MOL   H66742767   5.117   5.801   5.361 -0.7962  2.6892 -0.2449
   51MOL   H66842768   5.285   5.809   5.419  2.2383  1.7727 -1.2870
   51MOL   H66942769   5.288   5.651   5.257  0.8860  1.6806  1.9040
   51MOL   H67042770   5.351   5.795   5.176 -0.6952  1.0592 -0.7169
   51MOL   H67142771   5.058   5.692   5.163 -0.9838  1.5981 -0.6283
   51MOL   H67242772   5.121   5.823   5.071  0.0890  0.2266 -0.2245
   51MOL   H67342773   5.191   5.662   5.041 -1.8970 -0.3058 -0.6086
   51MOL   C67442774   5.049   6.937   6.003  0.5147 -0.2178 -0.1307
   51MOL   C67542775   5.002   7.052   6.101  0.0890  0.4755 -0.5214
   51MOL   C67642776   4.906   7.149   6.025 -0.3420 -0.5288 -0.3967
   51MOL   C67742777   4.940   7.298   6.034 -0.2831 -0.1780  0.0485
   51MOL   C67842778   4.855   7.384   5.938 -0.2717 -0.0294  0.3357
   51MOL   C67942779   4.709   7.384   5.986  0.2196  0.7988 -0.1954
   51MOL   C68042780   4.621   7.495   5.920 -0.2554  0.4085 -0.2473
   51MOL   C68142781   4.609   7.491   5.770 -0.5360  0.9208  0.5373
   51MOL   C68242782   4.541   7.365   5.703 -0.8793 -0.1767  0.0080
   51MOL   C68342783   4.542   7.381   5.551  0.3183 -0.2423 -0.0278
   51MOL   C68442784   4.497   7.246   5.495 -0.4358 -0.3082  0.1709
   51MOL   C68542785   4.518   7.223   5.350  0.2010 -0.0859 -0.0062
   51MOL   C68642786   4.465   7.080   5.303  0.1025 -0.2347  0.0246
   51MOL   C68742787   4.446   7.067   5.158  0.2967 -0.0770 -0.3494
   51MOL   H68842788   5.095   6.852   6.056  0.3784 -0.6230 -0.6603
   51MOL   H68942789   4.959   6.904   5.952  0.2834  2.0449 -1.2317
   51MOL   H69042790   5.094   7.098   6.134  0.3198 -1.5133  1.7436
   51MOL   H69142791   4.905   7.123   5.919  1.9654 -0.3614 -0.4740
   51MOL   H69242792   4.805   7.140   6.066 -0.4823 -0.9733 -0.8328
   51MOL   H69342793   4.940   7.337   6.136  0.9182 -2.5740  1.0114
   51MOL   H69442794   5.045   7.318   6.013 -0.2647 -1.3192 -0.9382
   51MOL   H69542795   4.889   7.487   5.948 -2.0029  0.2176  4.9059
   51MOL   H69642796   4.871   7.362   5.833  1.7921 -2.8114  1.1754
   51MOL   H69742797   4.662   7.288   5.962  0.3119  0.2634  1.6711
   51MOL   H69842798   4.706   7.398   6.094 -4.0253  1.2863 -0.2734
   51MOL   H69942799   4.524   7.480   5.966  0.2010 -1.4243  0.1956
   51MOL   H70042800   4.661   7.587   5.962 -1.4655  1.0174 -0.4096
   51MOL   H70142801   4.560   7.582   5.737 -1.9039  0.3563  0.9901
   51MOL   H70242802   4.709   7.495   5.727  0.0127 -0.9514  1.5463
   51MOL   H70342803   4.594   7.274   5.730 -2.0149 -0.8017  0.1714
   51MOL   H70442804   4.441   7.357   5.747 -0.4812  0.7473  1.0924
   51MOL   H70542805   4.644   7.396   5.515 -0.5655  0.8585 -2.1523
   51MOL   H70642806   4.490   7.466   5.508 -0.0105 -1.2345 -1.6181
   51MOL   H70742807   4.396   7.230   5.532  0.0370 -1.1551  1.1674
   51MOL   H70842808   4.557   7.161   5.529  0.1230  0.6860  1.7447
   51MOL   H70942809   4.623   7.240   5.326  0.3381 -1.6162 -0.5619
   51MOL   H71042810   4.456   7.300   5.304  3.7695  1.7303 -1.9635
   51MOL   H71142811   4.528   6.998   5.339  0.4765  0.3433  0.7085
   51MOL   H71242812   4.369   7.058   5.350 -0.1954 -0.7900 -0.8413
   51MOL   H71342813   4.534   7.111   5.109 -0.3060 -0.7060 -2.0523
   51MOL   H71442814   4.438   6.967   5.114  1.2185  1.3138 -3.8918
   51MOL   H71542815   4.369   7.132   5.116  0.5659  0.3852 -0.1255
   51MOL   C71642816   4.939   6.996   6.232 -0.0223 -0.1091  0.9898
   51MOL   C71742817   4.908   7.104   6.344 -0.1688  0.0363 -0.2414
   51MOL   C71842818   4.811   7.060   6.456 -0.8709  0.1562 -0.1171
   51MOL   C71942819   4.688   6.989   6.410  0.2263  0.0191 -0.4747
   51MOL   C72042820   4.577   6.979   6.516 -0.7137  0.2673  0.0215
   51MOL   C72142821   4.455   6.905   6.460  0.0902  0.4727 -1.0152
   51MOL   C72242822   4.345   6.915   6.564 -0.3956 -0.0122  0.4315
   51MOL   C72342823   4.225   6.814   6.548  0.2272  0.6422 -0.5793
   51MOL   C72442824   4.093   6.856   6.621 -0.3344 -1.0124 -0.0310
   51MOL   C72542825   4.000   6.947   6.534 -0.7085 -0.4966  0.5229
   51MOL   C72642826   3.861   6.971   6.593  0.3754 -0.1307  0.5561
   51MOL   C72742827   3.754   6.858   6.565  0.4175  0.7002  0.0629
   51MOL   C72842828   3.613   6.883   6.621  0.5075  0.0502  0.1542
   51MOL   C72942829   3.509   6.820   6.529  0.1099  0.0233 -0.5389
   51MOL   H73042830   4.852   6.935   6.204 -0.2652  0.4387  0.5362
   51MOL   H73142831   5.015   6.927   6.268  0.5435 -0.1791 -0.3008
   51MOL   H73242832   4.855   7.189   6.300 -1.6236  0.0247  1.4095
   51MOL   H73342833   4.775   7.150   6.505  1.9689  1.2462  0.0826
   51MOL   H73442834   4.868   6.995   6.524 -1.3256 -2.1057 -1.8295
   51MOL   H73542835   4.653   7.054   6.330 -1.9083 -0.5692 -0.0650
   51MOL   H73642836   4.717   6.892   6.369 -1.2493 -1.1464  1.1625
   51MOL   H73742837   4.616   6.933   6.607 -0.2344 -1.1145 -0.8536
   51MOL   H73842838   4.542   7.078   6.543 -1.7407  0.0679 -0.5786
   51MOL   H73942839   4.419   6.952   6.369  1.0052 -1.8450 -2.6153
   51MOL   H74042840   4.480   6.801   6.441 -1.9627 -0.1443 -0.4886
   51MOL   H74142841   4.379   6.895   6.665  0.5939 -0.3420  0.0437
   51MOL   H74242842   4.314   7.019   6.558  1.6806  0.6839  1.4197
   51MOL   H74342843   4.257   6.714   6.577  0.5848  0.7648 -0.5406
   51MOL   H74442844   4.213   6.806   6.440  0.3723  1.7950 -0.6867
   51MOL   H74542845   4.036   6.766   6.642  0.5967 -1.0841  2.3728
   51MOL   H74642846   4.119   6.895   6.719 -2.1553 -1.2005  0.5488
   51MOL   H74742847   4.047   7.042   6.510  0.7677 -1.5323 -0.8552
   51MOL   H74842848   3.983   6.894   6.440  0.1087  2.8645 -1.6066
   51MOL   H74942849   3.873   7.005   6.696  2.6944  0.1990  0.2045
   51MOL   H75042850   3.835   7.061   6.538  0.3096 -0.4824  0.0100
   51MOL   H75142851   3.754   6.858   6.456  0.4405  1.0376  0.0610
   51MOL   H75242852   3.803   6.767   6.599  0.6770  0.1811 -1.6246
   51MOL   H75342853   3.604   6.992   6.616  1.0816  0.0426 -1.3502
   51MOL   H75442854   3.599   6.842   6.721  1.7798 -0.5929  0.0859
   51MOL   H75542855   3.526   6.712   6.526  1.4209  0.2726 -2.4581
   51MOL   H75642856   3.523   6.859   6.429  0.1967  1.6920  0.1033
   51MOL   H75742857   3.405   6.843   6.552  0.9012 -0.0970  3.7348
   51MOL   C75842858   5.042   7.172   6.399  0.6747  0.0753  0.9668
   51MOL   C75942859   5.014   7.278   6.500  0.3458  0.0379 -0.1872
   51MOL   C76042860   5.151   7.329   6.559  0.3139  0.7820  0.4931
   51MOL   C76142861   5.265   7.366   6.461 -0.5654 -0.3251 -0.3298
   51MOL   C76242862   5.288   7.518   6.448  0.1895 -0.1309 -0.1318
   51MOL   C76342863   5.321   7.598   6.573 -0.0341 -0.5918 -0.0578
   51MOL   C76442864   5.448   7.551   6.654  0.2434 -0.0640  0.3861
   51MOL   C76542865   5.570   7.558   6.569 -0.8988 -0.2932  0.6509
   51MOL   C76642866   5.690   7.483   6.634  0.6316  0.1808 -0.4665
   51MOL   C76742867   5.820   7.487   6.553 -0.2165 -0.3536  0.2566
   51MOL   C76842868   5.936   7.430   6.634  0.1892 -0.0239 -0.5368
   51MOL   C76942869   6.071   7.448   6.566 -0.3351  0.5542 -0.6889
   51MOL   C77042870   6.194   7.391   6.633 -0.0067 -0.5204 -0.1155
   51MOL   C77142871   6.245   7.488   6.740 -0.6032 -0.0679 -0.7298
   51MOL   H77242872   5.101   7.091   6.441  0.2179 -0.8470 -0.1285
   51MOL   H77342873   5.082   7.212   6.306  0.1629  0.3875  0.8789
   51MOL   H77442874   4.964   7.226   6.582 -0.5393 -0.2699 -0.9274
   51MOL   H77542875   5.135   7.403   6.638 -0.3471  0.8856  0.2645
   51MOL   H77642876   5.184   7.238   6.610  0.8644  0.5760 -0.2230
   51MOL   H77742877   5.359   7.324   6.499  0.5339  2.3067 -0.0479
   51MOL   H77842878   5.266   7.322   6.361  1.0487 -2.2409  0.5000
   51MOL   H77942879   5.187   7.544   6.415  0.2800  0.7471  0.2818
   51MOL   H78042880   5.358   7.531   6.366 -0.1578 -1.7715 -0.7006
   51MOL   H78142881   5.231   7.591   6.634  1.6060 -2.3730  2.2232
   51MOL   H78242882   5.328   0.008   6.545  1.5067 -0.4839  0.6731
   51MOL   H78342883   5.457   7.606   6.747 -1.3387  0.3674  0.3097
   51MOL   H78442884   5.438   7.448   6.688 -0.0166  0.2526  1.2617
   51MOL   H78542885   5.593   7.664   6.554  0.2662 -0.6275 -0.0283
   51MOL   H78642886   5.560   7.521   6.467  1.1804  0.6443  0.0706
   51MOL   H78742887   5.651   7.382   6.639 -0.1797  0.3762 -2.2271
   51MOL   H78842888   5.703   7.514   6.737  2.2460  0.2216 -0.6586
   51MOL   H78942889   5.843   7.588   6.520 -2.1215  0.1472  0.4029
   51MOL   H79042890   5.808   7.422   6.467  0.4732  2.0678 -1.7288
   51MOL   H79142891   5.947   7.478   6.731 -1.4780 -2.9132  1.1718
   51MOL   H79242892   5.924   7.323   6.654 -0.3628 -0.0947 -1.2388
   51MOL   H79342893   6.065   7.398   6.469 -0.2176 -0.0343 -0.3949
   51MOL   H79442894   6.096   7.552   6.546  0.8390  0.8180  1.9781
   51MOL   H79542895   6.182   7.296   6.684 -0.7454 -0.1289  0.4631
   51MOL   H79642896   6.279   7.378   6.565  1.9321  0.2502  2.0857
   51MOL   H79742897   6.186   7.489   6.832 -1.4832 -1.6342 -1.2594
   51MOL   H79842898   6.345   7.454   6.766 -0.9431  0.1840  0.9785
   51MOL   H79942899   6.253   7.592   6.710  1.1062  0.3332  1.0329
   51MOL   C80042900   4.927   7.395   6.456  0.3805 -0.0714 -0.3922
   51MOL   C80142901   4.893   7.503   6.555  0.5860 -0.3894 -0.0618
   51MOL   C80242902   4.812   7.620   6.492 -0.1208  0.3373 -0.1943
   51MOL   C80342903   4.783   0.029   6.603 -0.1833 -0.2176  0.0952
   51MOL   C80442904   4.665   7.689   6.701 -0.7301  0.8233  0.2270
   51MOL   C80542905   4.651   0.095   6.821 -0.2140 -0.3525 -0.3074
   51MOL   C80642906   4.560   0.038   6.930 -1.0817  0.4472 -0.1969
   51MOL   C80742907   4.635   7.641   7.021 -0.1614 -0.3680 -0.1310
   51MOL   C80842908   4.544   7.592   7.136 -0.5716 -0.2569 -0.3381
   51MOL   C80942909   4.599   7.472   7.213 -0.0082  0.1207  0.5721
   51MOL   C81042910   4.525   7.430   7.347  0.1721  0.5863  0.3235
   51MOL   C81142911   4.580   7.304   7.411 -0.4353  0.0950 -0.1007
   51MOL   C81242912   4.558   7.173   7.336 -0.0498  0.2938 -0.4096
   51MOL   C81342913   4.652   7.062   7.382 -0.2386 -0.3357  0.8336
   51MOL   H81442914   4.831   7.363   6.415  0.2335 -0.3767  0.1863
   51MOL   H81542915   4.987   7.431   6.373 -0.7339  0.4834 -0.9773
   51MOL   H81642916   4.985   7.533   6.606 -0.9204  1.9342  1.3836
   51MOL   H81742917   4.715   7.581   6.461  0.6173 -2.8275  1.2587
   51MOL   H81842918   4.860   7.655   6.401 -0.4355 -0.2594 -0.5885
   51MOL   H81942919   4.761   0.114   6.538  0.0992 -0.6995 -0.6459
   51MOL   H82042920   4.877   0.052   6.653 -0.1891  0.4513 -0.1885
   51MOL   H82142921   4.574   7.689   6.640 -0.0922  0.6093 -0.7283
   51MOL   H82242922   4.687   7.585   6.725  0.1714  0.9375 -0.0976
   51MOL   H82342923   4.602   0.187   6.791  2.0662  0.9614 -0.1357
   51MOL   H82442924   4.752   0.118   6.857 -0.0479 -0.1848 -0.8738
   51MOL   H82542925   4.531   0.116   7.001  1.0863 -1.0284  2.3884
   51MOL   H82642926   4.467   7.689   6.895 -1.9028  0.9525  1.2796
   51MOL   H82742927   4.669   7.545   6.983  2.4053  1.6015 -2.9838
   51MOL   H82842928   4.722   7.692   7.063 -0.5633 -0.1749  0.4765
   51MOL   H82942929   4.535   7.676   7.206  1.0772 -0.2026 -0.1881
   51MOL   H83042930   4.438   7.575   7.114 -1.5812  1.1246  3.0817
   51MOL   H83142931   4.704   7.495   7.235 -0.1157 -0.7966  2.0942
   51MOL   H83242932   4.594   7.382   7.151 -1.0228 -0.3372  1.3209
   51MOL   H83342933   4.553   7.502   7.425  1.0328  0.8916 -0.2558
   51MOL   H83442934   4.416   7.436   7.347  0.2220  1.5828 -0.6159
   51MOL   H83542935   4.531   7.286   7.508 -0.3239 -0.6585 -0.1767
   51MOL   H83642936   4.687   7.322   7.423 -0.5186 -0.4223  1.6723
   51MOL   H83742937   4.456   7.135   7.346 -0.2168  0.5918 -0.9318
   51MOL   H83842938   4.569   7.193   7.230 -1.5238  0.6677 -0.5099
   51MOL   H83942939   4.755   7.096   7.388 -0.1734 -0.2939 -0.5497
   51MOL   H84042940   4.623   7.027   7.482 -2.4728 -1.5105 -0.1980
   51MOL   H84142941   4.658   6.979   7.312  1.5489  0.2877  0.2395
   51MOL   H84242942   4.828   7.451   6.625  1.0640  0.0545  0.7232
   52MOL     C142943   1.978   6.432   0.628 -0.2373 -0.4783 -0.2415
   52MOL     C242944   1.827   6.390   0.654 -0.3241 -0.4820 -0.4677
   52MOL     C342945   1.821   6.247   0.707 -0.1871  0.1354 -0.4357
   52MOL     C442946   1.900   6.213   0.839 -0.3685 -0.6322  1.3664
   52MOL     C542947   1.881   6.070   0.895 -0.1024 -0.0557  0.6008
   52MOL     C642948   1.960   6.038   1.017 -0.1286 -0.3446  0.1952
   52MOL     C742949   2.116   6.053   1.012 -0.4946  0.0684 -0.1078
   52MOL     C842950   2.202   5.986   1.123  0.4521 -0.3245  0.1681
   52MOL     C942951   2.345   5.972   1.075  0.6954 -0.8628 -0.8733
   52MOL    C1042952   2.435   5.903   1.184  0.3291 -0.2711  0.0238
   52MOL    C1142953   2.582   5.904   1.139 -0.4938  0.1710 -0.3192
   52MOL    C1242954   2.671   5.825   1.236  0.5136 -0.3611  0.0299
   52MOL    C1342955   2.812   5.801   1.178 -0.1012  0.3449  0.3123
   52MOL    C1442956   2.917   5.744   1.272  0.7350  0.5605 -0.1541
   52MOL    H1542957   1.979   6.526   0.573 -1.2774  0.2257  0.9161
   52MOL    H1642958   2.019   6.359   0.558 -1.4066 -1.4001  0.0239
   52MOL    H1742959   1.782   6.389   0.555 -0.0573 -0.8631 -0.5850
   52MOL    H1842960   1.719   6.212   0.726 -0.3064  1.1098  0.8864
   52MOL    H1942961   1.850   6.176   0.630 -0.1399 -1.3775  0.9491
   52MOL    H2042962   1.867   6.278   0.921 -1.3093 -0.7014  1.0553
   52MOL    H2142963   2.004   6.239   0.822 -0.9100  0.6286 -0.1319
   52MOL    H2242964   1.916   6.004   0.815  2.5160  0.2323  1.4895
   52MOL    H2342965   1.776   6.044   0.911 -0.0709 -0.9482 -0.5530
   52MOL    H2442966   1.941   5.934   1.041 -1.2907 -0.0910  0.4076
   52MOL    H2542967   1.917   6.090   1.103  2.7417  0.3959  1.2373
   52MOL    H2642968   2.166   6.022   0.920  1.3535  0.7874  0.6302
   52MOL    H2742969   2.141   6.159   1.017 -0.7079  0.2560 -2.4192
   52MOL    H2842970   2.172   5.882   1.136  3.5327 -1.0951  1.5944
   52MOL    H2942971   2.196   6.041   1.217  1.1079 -1.0756  0.6579
   52MOL    H3042972   2.366   5.922   0.980  1.6189  1.2136 -1.7839
   52MOL    H3142973   2.368   6.078   1.063 -2.9983 -0.0447 -1.2563
   52MOL    H3242974   2.425   5.937   1.287  0.4739  1.4442 -0.5129
   52MOL    H3342975   2.388   5.805   1.184 -1.7399  0.7160 -0.1426
   52MOL    H3442976   2.597   5.862   1.039 -0.4863 -2.0175  0.5784
   52MOL    H3542977   2.619   6.006   1.132 -1.7511  0.6239 -0.5269
   52MOL    H3642978   2.631   5.726   1.256 -0.7361  0.3994  1.4270
   52MOL    H3742979   2.674   5.886   1.327  0.8205 -0.3907  0.0412
   52MOL    H3842980   2.811   5.740   1.088  1.6296  1.0270 -0.1912
   52MOL    H3942981   2.845   5.900   1.144  0.4513  0.8849  2.3965
   52MOL    H4042982   2.883   5.644   1.300 -0.0273  1.1379  1.0116
   52MOL    H4142983   3.016   5.752   1.228  0.4716  1.1468 -0.6400
   52MOL    H4242984   2.918   5.808   1.361  2.0010  0.1640  0.1301
   52MOL    H4342985   2.034   6.428   0.722 -1.1451  0.3706  0.3474
   52MOL    C4442986   1.742   6.482   0.745  0.2542 -0.1334 -0.6125
   52MOL    C4542987   1.582   6.465   0.743 -0.0518 -0.2544 -0.1902
   52MOL    C4642988   1.519   6.522   0.612  0.1139  0.7051  0.0541
   52MOL    C4742989   1.458   6.401   0.535  0.4398 -0.0806 -0.3267
   52MOL    C4842990   1.409   6.438   0.389 -0.8813 -0.1326 -0.2634
   52MOL    C4942991   1.284   6.520   0.396  0.1661  1.1609  0.1884
   52MOL    C5042992   1.259   6.573   0.254 -0.0478  0.6202  0.0819
   52MOL    C5142993   1.117   6.625   0.249 -0.2317  0.9186 -0.2918
   52MOL    C5242994   1.061   6.655   0.113  0.5636 -0.1379  0.4973
   52MOL    C5342995   0.918   6.709   0.119  0.0784 -0.4785  0.3963
   52MOL    C5442996   0.836   6.719   7.684  0.1932  0.5975 -0.0431
   52MOL    C5542997   0.907   6.812   7.581  0.7412 -0.6485  0.2914
   52MOL    C5642998   0.826   6.836   7.460 -0.4428  0.1963  0.0240
   52MOL    C5742999   0.690   6.917   7.477  0.1766  0.2291 -0.8094
   52MOL    H5843000   1.779   6.467   0.846 -0.8096 -1.5331 -0.4156
   52MOL    H5943001   1.762   6.588   0.728  3.3172 -0.9793 -2.7364
   52MOL    H6043002   1.563   6.358   0.740  0.5686 -0.4710  2.3703
   52MOL    H6143003   1.437   6.585   0.645  0.8040  0.9507  1.3264
   52MOL    H6243004   1.589   6.584   0.556  0.2748 -0.9043 -1.5975
   52MOL    H6343005   1.375   6.357   0.591  1.7283 -0.8349  1.0415
   52MOL    H6443006   1.537   6.327   0.524  1.4753  1.0944 -0.8885
   52MOL    H6543007   1.397   6.348   0.328 -2.1064  0.9737 -1.6993
   52MOL    H6643008   1.488   6.495   0.339 -1.5057  0.9604 -0.0196
   52MOL    H6743009   1.196   6.467   0.432  0.5537 -1.2331 -2.1766
   52MOL    H6843010   1.297   6.606   0.461  2.6206  0.8859  0.1183
   52MOL    H6943011   1.330   6.653   0.233  0.7888 -0.2529 -0.4871
   52MOL    H7043012   1.282   6.500   0.176 -0.0007 -0.3231  0.9675
   52MOL    H7143013   1.099   6.711   0.315 -0.1809  0.5163  0.2514
   52MOL    H7243014   1.052   6.546   0.285 -0.6545  1.8213  1.0060
   52MOL    H7343015   1.130   6.732   0.079 -0.8306  1.3579  1.0167
   52MOL    H7443016   1.069   6.566   0.050  1.5031 -0.1414  0.6149
   52MOL    H7543017   0.907   6.802   0.175 -0.7120 -0.1480 -0.2954
   52MOL    H7643018   0.856   6.651   0.188  0.4474 -0.5325  0.6821
   52MOL    H7743019   0.736   6.758   0.009  0.6377  1.3971  0.6663
   52MOL    H7843020   0.833   6.621   7.637 -0.8019 -0.9206  3.0235
   52MOL    H7943021   0.925   6.911   7.623  0.3102 -0.6994  0.6081
   52MOL    H8043022   1.009   6.785   7.555  0.7059  0.6004 -1.2071
   52MOL    H8143023   0.808   6.746   7.401  0.5466  1.3572 -2.1133
   52MOL    H8243024   0.877   6.895   7.383 -0.4199 -1.0116 -0.9002
   52MOL    H8343025   0.622   6.878   7.553  1.0735 -0.0201 -0.1274
   52MOL    H8443026   0.629   6.923   7.387  0.9944  0.1182 -1.3731
   52MOL    H8543027   0.698   7.018   7.518  1.1006 -0.0272 -0.3404
   52MOL    C8643028   1.518   6.524   0.877  0.2610  0.0917 -0.3599
   52MOL    C8743029   1.374   6.478   0.912  0.0216 -0.0070 -0.7272
   52MOL    C8843030   1.325   6.568   1.030  0.1009  0.6339 -0.9344
   52MOL    C8943031   1.233   6.684   0.983 -0.1992  0.7871 -0.3622
   52MOL    C9043032   1.089   6.650   0.967 -0.4725  0.1563  0.9487
   52MOL    C9143033   1.020   6.606   1.098 -0.5954  0.8336  0.4062
   52MOL    C9243034   0.874   6.636   1.105  1.1729  0.3751  0.0463
   52MOL    C9343035   0.778   6.537   1.027 -0.0471 -0.0845 -0.3291
   52MOL    C9443036   0.629   6.568   1.047 -0.2833 -0.7823  0.2346
   52MOL    C9543037   0.581   6.701   0.980 -0.7425 -0.0822  0.1896
   52MOL    C9643038   0.433   6.718   0.999 -0.0433 -0.6273 -0.1148
   52MOL    C9743039   0.384   6.840   0.930 -0.0758  0.4289 -0.3385
   52MOL    C9843040   0.233   6.863   0.947  0.0015  0.6299 -0.7992
   52MOL    C9943041   0.176   6.975   0.861  1.1265 -0.1441  0.5248
   52MOL   H10043042   1.585   6.507   0.961 -1.1716 -1.0904  0.5783
   52MOL   H10143043   1.506   6.631   0.862 -2.0172 -0.1544 -0.4460
   52MOL   H10243044   1.319   6.484   0.818  1.3238 -0.8523 -1.5431
   52MOL   H10343045   1.272   6.513   1.108 -1.4516  0.1434 -2.3193
   52MOL   H10443046   1.416   6.603   1.079  1.7189 -0.2036 -3.2364
   52MOL   H10543047   1.243   6.765   1.056  0.8261 -0.1671  0.5784
   52MOL   H10643048   1.279   6.725   0.893 -1.5518 -1.4516 -2.1424
   52MOL   H10743049   1.071   6.574   0.890 -0.7964  3.5423 -2.4781
   52MOL   H10843050   1.030   6.731   0.923  0.1004  0.2371  0.3222
   52MOL   H10943051   1.064   6.666   1.178  1.1056 -1.6284  1.3966
   52MOL   H11043052   1.048   6.503   1.121 -1.4088  0.0000 -2.2715
   52MOL   H11143053   0.841   6.633   1.209  0.0348  1.9447 -0.2472
   52MOL   H11243054   0.853   6.740   1.082  1.2324  0.2508 -0.5686
   52MOL   H11343055   0.806   6.439   1.065 -0.1329 -0.4297 -1.1299
   52MOL   H11443056   0.811   6.543   0.923  2.4072  2.4806  0.5512
   52MOL   H11543057   0.586   6.479   1.000 -0.3476 -0.3439 -0.5435
   52MOL   H11643058   0.592   6.566   1.150  0.3526  3.1708  0.6231
   52MOL   H11743059   0.618   6.705   0.878  0.5226  0.9637  0.6793
   52MOL   H11843060   0.631   6.787   1.024 -2.9046  1.7161 -0.7884
   52MOL   H11943061   0.384   6.627   0.964 -2.3199  1.1495 -1.7322
   52MOL   H12043062   0.410   6.722   1.106 -0.5578  0.2504 -0.2453
   52MOL   H12143063   0.439   6.930   0.959  0.6235 -0.2938  0.6328
   52MOL   H12243064   0.416   6.842   0.826  2.7227  0.0461  0.4748
   52MOL   H12343065   0.213   6.893   1.050 -3.0067 -1.0644 -0.8242
   52MOL   H12443066   0.181   6.769   0.933  0.9553  0.2612 -1.9139
   52MOL   H12543067   0.075   7.004   0.889  0.6869  0.7083 -1.8658
   52MOL   H12643068   0.229   7.069   0.880 -0.7544  1.0384 -0.0033
   52MOL   H12743069   0.166   6.955   0.755  0.3827  0.5614  0.4616
   52MOL   C12843070   1.374   6.323   0.953 -0.0643  0.3062 -0.3657
   52MOL   C12943071   1.228   6.280   0.981  0.2688 -0.2171  0.4546
   52MOL   C13043072   1.159   6.253   0.848 -0.5214  0.4709 -0.0792
   52MOL   C13143073   1.008   6.229   0.848  0.2200  0.4630  0.2520
   52MOL   C13243074   0.950   6.234   0.700 -0.0607  0.4318  0.3109
   52MOL   C13343075   0.795   6.242   0.709 -0.2474  0.1625  0.5008
   52MOL   C13443076   0.732   6.284   0.578  0.2847  0.4011 -0.5091
   52MOL   C13543077   0.752   6.178   0.467  0.1742  0.1439 -0.7554
   52MOL   C13643078   0.710   6.222   0.332 -0.3746  0.7846  0.0489
   52MOL   C13743079   0.676   6.110   0.237 -0.3669 -0.3665  0.1744
   52MOL   C13843080   0.606   6.147   0.103 -0.7427  0.0968  0.1912
   52MOL   C13943081   0.595   6.037   0.005  1.4281 -0.6429  0.3597
   52MOL   C14043082   0.579   6.095   7.558 -0.1478  0.6181  0.1279
   52MOL   C14143083   0.437   6.135   7.533 -0.3885 -0.7142  0.5229
   52MOL   H14243084   1.428   6.266   0.878  0.8676  1.5963 -0.7080
   52MOL   H14343085   1.436   6.301   1.040 -0.7545 -2.2339 -0.4749
   52MOL   H14443086   1.163   6.358   1.020 -0.1904  0.6707 -2.0277
   52MOL   H14543087   1.178   6.337   0.782 -1.2606 -1.0308 -2.2857
   52MOL   H14643088   1.207   6.165   0.804 -2.1039 -0.5488  0.1956
   52MOL   H14743089   0.987   6.127   0.881 -1.2066  0.4765 -0.5799
   52MOL   H14843090   0.949   6.285   0.921  0.7103  0.6925  0.4758
   52MOL   H14943091   0.989   6.324   0.652  1.5734 -0.1853  0.4194
   52MOL   H15043092   0.997   6.153   0.643  1.3357  0.9234  0.7373
   52MOL   H15143093   0.754   6.145   0.736 -0.9678  0.0431 -0.9562
   52MOL   H15243094   0.773   6.319   0.783  0.4923  1.4297 -0.5854
   52MOL   H15343095   0.624   6.278   0.595  0.6472  0.2772  2.0344
   52MOL   H15443096   0.759   6.384   0.544  0.0631  0.4553 -0.5281
   52MOL   H15543097   0.858   6.153   0.457 -0.0987 -1.6930  0.8051
   52MOL   H15643098   0.702   6.084   0.490 -1.5227  1.2253  0.0646
   52MOL   H15743099   0.617   6.275   0.351 -1.2664 -1.0679  0.8776
   52MOL   H15843100   0.782   6.294   0.291 -0.2498 -0.9451 -2.8848
   52MOL   H15943101   0.612   6.038   0.286  0.5703  0.1922  2.2828
   52MOL   H16043102   0.771   6.059   0.219  1.0272  1.9898  0.5991
   52MOL   H16143103   0.511   6.199   0.118 -0.2704  1.0166  0.0285
   52MOL   H16243104   0.674   6.224   0.065  0.8528 -1.5197 -0.2734
   52MOL   H16343105   0.686   5.981   7.678  0.4641 -2.1132  0.0576
   52MOL   H16443106   0.531   5.954   0.037 -0.9954  1.5397  1.2912
   52MOL   H16543107   0.643   6.182   7.545  0.3110  0.1911 -0.5077
   52MOL   H16643108   0.604   6.009   7.496  2.1036  0.4928  1.1640
   52MOL   H16743109   0.413   6.178   7.436  1.5115 -0.6900  0.0598
   52MOL   H16843110   0.370   6.050   7.531 -0.4211 -0.6752 -0.2475
   52MOL   H16943111   0.392   6.199   7.610  0.7103  2.2674 -1.2001
   52MOL   C17043112   1.224   6.167   1.079 -0.5340  0.1009 -0.0278
   52MOL   C17143113   1.227   6.204   1.228 -0.0970 -0.2202  0.2774
   52MOL   C17243114   1.096   6.251   1.292  0.0757 -0.2552  0.0668
   52MOL   C17343115   0.991   6.144   1.321  0.9508 -0.2261 -0.0925
   52MOL   C17443116   0.881   6.186   1.421  1.1562 -1.3819 -0.3518
   52MOL   C17543117   0.808   6.330   1.410 -0.2717 -0.0266 -0.1368
   52MOL   C17643118   0.704   6.361   1.515 -0.1529 -0.7737 -0.1632
   52MOL   C17743119   0.681   6.507   1.554 -0.1991 -0.1381  0.1687
   52MOL   C17843120   0.602   6.528   1.680  0.2726  0.3274  0.3174
   52MOL   C17943121   0.457   6.489   1.670  0.1127 -0.4296  0.5710
   52MOL   C18043122   0.399   6.501   1.815  0.1294 -0.4352  0.2420
   52MOL   C18143123   0.315   6.632   1.843 -0.0752 -0.2186 -0.0740
   52MOL   C18243124   0.245   6.622   1.984 -0.5852 -0.3250  0.1113
   52MOL   C18343125   0.162   6.749   2.019  0.2957 -0.2197 -0.1637
   52MOL   H18443126   1.298   6.092   1.052 -0.6005 -0.0408  0.1841
   52MOL   H18543127   1.132   6.110   1.067 -1.0828  0.0927  3.6436
   52MOL   H18643128   1.299   6.285   1.243 -1.6222  1.4571 -1.1644
   52MOL   H18743129   1.127   6.268   1.395 -1.3532 -1.7841  0.7616
   52MOL   H18843130   1.059   6.350   1.265 -0.0753 -0.1803  0.5543
   52MOL   H18943131   0.949   6.130   1.221  0.7773  1.3241 -0.2591
   52MOL   H19043132   1.025   6.043   1.344 -1.4955 -0.5734  2.1907
   52MOL   H19143133   0.805   6.108   1.423 -2.9424  2.3913  2.1161
   52MOL   H19243134   0.916   6.186   1.525 -1.0834  3.6817  0.5406
   52MOL   H19343135   0.762   6.346   1.312 -3.6173 -1.4501  1.1218
   52MOL   H19443136   0.884   6.408   1.414 -0.4759  0.1189  1.0388
   52MOL   H19543137   0.731   6.308   1.607 -0.4976  1.4748  1.2794
   52MOL   H19643138   0.617   6.306   1.481  1.5747 -2.7604 -1.4598
   52MOL   H19743139   0.630   6.550   1.467 -0.2373  0.9092  0.7071
   52MOL   H19843140   0.774   6.564   1.566  0.6321 -2.1078  3.6503
   52MOL   H19943141   0.612   6.635   1.695  1.8761  0.4243 -1.3590
   52MOL   H20043142   0.646   6.464   1.757 -0.4826 -1.3109 -0.5815
   52MOL   H20143143   0.438   6.387   1.637 -3.3278 -0.2322  1.7591
   52MOL   H20243144   0.400   6.538   1.591  0.4453  0.8257  1.0926
   52MOL   H20343145   0.474   6.491   1.893 -0.8921 -2.6599  0.9635
   52MOL   H20443146   0.339   6.418   1.853 -0.2150  0.3096  1.3460
   52MOL   H20543147   0.370   6.726   1.843 -0.9718  0.3135 -0.2386
   52MOL   H20643148   0.247   6.641   1.758 -0.8706  0.3528  0.6208
   52MOL   H20743149   0.187   6.530   1.993  2.4577 -2.3231 -0.1312
   52MOL   H20843150   0.320   6.611   2.062 -1.3756 -0.3054  0.8737
   52MOL   H20943151   0.122   6.751   2.121 -1.4069  0.5584 -0.8350
   52MOL   H21043152   0.074   6.750   1.955  1.1608 -0.8601 -1.3760
   52MOL   H21143153   0.227   6.836   2.003 -1.3298  1.0051 -0.2039
   52MOL   C21243154   1.292   6.093   1.313  0.1269 -0.2589 -0.2991
   52MOL   C21343155   1.450   6.092   1.290 -0.2042  0.6932 -0.5944
   52MOL   C21443156   1.517   6.201   1.372 -0.1230 -0.6880  0.4938
   52MOL   C21543157   1.632   6.268   1.293  0.6621 -0.6291 -0.3325
   52MOL   C21643158   1.680   6.399   1.361 -0.2640 -0.6702  0.3695
   52MOL   C21743159   1.742   6.501   1.266  0.3637  0.1158 -0.7402
   52MOL   C21843160   1.876   6.447   1.198  0.3162  0.4361 -0.0880
   52MOL   C21943161   1.967   6.551   1.130 -0.3676 -0.1263  0.1221
   52MOL   C22043162   2.092   6.496   1.054  0.6165 -0.0450  0.6081
   52MOL   C22143163   2.167   6.596   0.965  0.1514  0.4518 -0.3531
   52MOL   C22243164   2.257   6.701   1.025  0.5692  0.2968  0.4805
   52MOL   C22343165   2.369   6.649   1.110  0.3436 -0.6876 -0.5068
   52MOL   C22443166   2.471   6.750   1.156  0.0746  0.1053 -0.0942
   52MOL   C22543167   2.572   6.694   1.252 -0.5952  0.3170  0.8511
   52MOL   H22643168   1.234   6.001   1.313 -1.2802  0.6220  0.9204
   52MOL   H22743169   1.269   6.112   1.417 -0.8421 -0.7766 -0.4146
   52MOL   H22843170   1.456   6.109   1.182  1.7721  0.1792 -0.5892
   52MOL   H22943171   1.442   6.275   1.400 -0.0732 -0.5364  0.2248
   52MOL   H23043172   1.563   6.171   1.467  1.6423  1.4374  0.3414
   52MOL   H23143173   1.604   6.293   1.190  1.2725  1.5836  0.0315
   52MOL   H23243174   1.712   6.196   1.274 -0.3020 -0.7723 -4.5273
   52MOL   H23343175   1.757   6.381   1.435  0.0304 -0.2855  0.1549
   52MOL   H23443176   1.596   6.445   1.413 -1.4286  0.3542 -2.3272
   52MOL   H23543177   1.780   6.585   1.324  2.9252  0.5231 -2.9173
   52MOL   H23643178   1.679   6.548   1.191 -0.2344 -2.9011 -2.2069
   52MOL   H23743179   1.932   6.397   1.277 -2.8849 -0.7291  1.5797
   52MOL   H23843180   1.839   6.370   1.129 -0.0817  2.6647 -2.4416
   52MOL   H23943181   1.905   6.622   1.075 -1.2140 -1.9559 -1.3301
   52MOL   H24043182   2.010   6.608   1.213 -1.8301  2.1246 -0.6201
   52MOL   H24143183   2.056   6.420   0.985  1.0755  0.7053 -0.4700
   52MOL   H24243184   2.171   6.441   1.106  2.0338  0.1543 -1.2902
   52MOL   H24343185   2.215   6.517   0.907 -0.7643  0.3463 -0.9836
   52MOL   H24443186   2.098   6.646   0.897  0.0455 -0.7143 -1.1131
   52MOL   H24543187   2.190   6.768   1.078  0.0333  2.6219 -2.9669
   52MOL   H24643188   2.297   6.753   0.938 -1.3676 -1.4441 -1.5542
   52MOL   H24743189   2.421   6.568   1.059  0.6144 -1.6249  1.2335
   52MOL   H24843190   2.336   6.593   1.197  0.3320 -0.2901 -0.2547
   52MOL   H24943191   2.423   6.835   1.205  1.0423  0.5546  0.0983
   52MOL   H25043192   2.520   6.789   1.067  2.4574 -3.5677 -0.5023
   52MOL   H25143193   2.638   6.777   1.278 -1.1787  1.6864 -1.9948
   52MOL   H25243194   2.527   6.656   1.344 -2.4942 -1.8441 -0.9213
   52MOL   H25343195   2.634   6.614   1.210 -0.3722  0.9148  0.0403
   52MOL   C25443196   1.518   5.954   1.327  0.3095  0.0066  0.6403
   52MOL   C25543197   1.503   5.839   1.220  0.4305 -0.9925  0.5563
   52MOL   C25643198   1.590   5.858   1.095 -0.0706 -0.0751 -0.6140
   52MOL   C25743199   1.551   5.779   0.975  0.3929 -0.3844  0.6437
   52MOL   C25843200   1.638   5.806   0.839 -0.2413  0.2634  0.8147
   52MOL   C25943201   1.584   5.916   0.750  0.5152 -0.7656  0.2575
   52MOL   C26043202   1.439   5.905   0.706  0.1470 -0.2184  0.2604
   52MOL   C26143203   1.404   5.984   0.571 -0.3811 -0.2018  0.1908
   52MOL   C26243204   1.256   5.976   0.523 -1.0077  0.5776 -0.2996
   52MOL   C26343205   1.234   6.053   0.393 -0.4409  0.1606 -0.6502
   52MOL   C26443206   1.116   6.015   0.305  0.0534  0.3344  0.0775
   52MOL   C26543207   1.107   6.064   0.167 -0.5187  0.2431 -0.3313
   52MOL   C26643208   1.092   6.213   0.153  0.0705  0.3178 -0.2615
   52MOL   C26743209   0.997   6.267   0.035  0.1082 -0.4026  0.1600
   52MOL   H26843210   1.461   5.927   1.415  0.3304 -2.6785 -0.1155
   52MOL   H26943211   1.621   5.959   1.362  0.0993 -0.8204  1.3640
   52MOL   H27043212   1.401   5.842   1.182  0.4207 -0.9678  0.5851
   52MOL   H27143213   1.692   5.830   1.120 -0.6206 -0.2904  1.4444
   52MOL   H27243214   1.592   5.961   1.057  2.5230 -0.8008 -2.5989
   52MOL   H27343215   1.445   5.783   0.952  0.0838 -3.2208  1.2995
   52MOL   H27443216   1.569   5.673   0.993  1.0090 -0.6709 -1.5204
   52MOL   H27543217   1.624   5.717   0.778  0.8176 -0.3745  1.4756
   52MOL   H27643218   1.744   5.804   0.863 -0.0347  0.0132 -0.1318
   52MOL   H27743219   1.652   5.922   0.665  0.1426 -0.5670 -0.0251
   52MOL   H27843220   1.592   6.016   0.793 -1.4508 -0.7324  0.5906
   52MOL   H27943221   1.416   5.800   0.687  2.1819 -0.8193  1.0388
   52MOL   H28043222   1.368   5.932   0.785  0.9069  1.5170  0.3869
   52MOL   H28143223   1.478   5.945   0.501 -1.6435 -1.6290 -0.3820
   52MOL   H28243224   1.431   6.085   0.600 -0.7103 -0.2377  0.6490
   52MOL   H28343225   1.243   5.869   0.508  2.1537 -0.1159  1.2801
   52MOL   H28443226   1.190   6.002   0.606  2.8575  3.3205  2.1477
   52MOL   H28543227   1.324   6.031   0.337 -1.6309 -0.5407 -2.3564
   52MOL   H28643228   1.232   6.160   0.411  0.3292 -0.1758  1.4876
   52MOL   H28743229   1.025   6.051   0.353  0.9561 -0.8788  2.8063
   52MOL   H28843230   1.122   5.907   0.314  0.9150  0.4141  0.5115
   52MOL   H28943231   1.191   6.038   0.102 -1.1732  0.4913 -1.2870
   52MOL   H29043232   1.021   6.019   0.118 -1.0719  0.8510  0.0844
   52MOL   H29143233   1.039   6.256   0.238 -0.5024 -2.5642  0.8753
   52MOL   H29243234   1.189   6.263   0.150  0.0613  0.3578  0.1780
   52MOL   H29343235   1.025   6.224   7.634 -0.8267  0.4327 -0.4865
   52MOL   H29443236   0.999   6.375   0.021 -0.6387 -0.5939 -1.5921
   52MOL   H29543237   0.894   6.241   0.058 -0.3026 -0.1858 -1.3778
   52MOL   C29643238   1.516   5.701   1.283  0.3347  0.5723 -0.5534
   52MOL   C29743239   1.381   5.663   1.341 -0.4351  0.3340 -0.9147
   52MOL   C29843240   1.281   5.600   1.241 -0.2494 -0.1607  0.3162
   52MOL   C29943241   1.150   5.562   1.298  0.4434  0.3785  0.0671
   52MOL   C30043242   1.057   5.507   1.191  0.4861  0.2232 -0.6742
   52MOL   C30143243   0.954   5.409   1.253 -0.7615  0.2657 -0.2912
   52MOL   C30243244   0.824   5.400   1.176 -0.0012  0.6821 -0.5876
   52MOL   C30343245   0.844   5.374   1.025 -0.1219  0.4058 -0.4858
   52MOL   C30443246   0.712   5.386   0.943  0.0108  0.3038 -0.3525
   52MOL   C30543247   0.729   5.337   0.801 -0.4109  0.6990 -0.7361
   52MOL   C30643248   0.611   5.366   0.719 -1.1364 -0.0883 -0.1035
   52MOL   C30743249   0.636   5.320   0.573 -0.0303 -0.0102  0.5686
   52MOL   C30843250   0.505   5.310   0.496 -0.6296 -0.0363 -0.5278
   52MOL   C30943251   0.443   5.443   0.459  0.8611 -0.0748  0.3221
   52MOL   H31043252   1.600   5.694   1.353  0.5522  0.7963 -0.7893
   52MOL   H31143253   1.539   5.628   1.205  1.2396  1.1506 -0.8504
   52MOL   H31243254   1.335   5.755   1.377  1.0434  0.5599  0.4910
   52MOL   H31343255   1.321   5.507   1.202  0.2073  0.1286  0.1025
   52MOL   H31443256   1.273   5.666   1.155  1.2615 -1.4408 -0.8415
   52MOL   H31543257   1.112   5.660   1.329 -1.9423 -0.3681 -0.3594
   52MOL   H31643258   1.157   5.493   1.382 -0.6096  2.6063  2.0326
   52MOL   H31743259   1.010   5.590   1.137 -1.1131 -0.7836 -0.8655
   52MOL   H31843260   1.119   5.455   1.118  1.8890  2.1512 -0.8959
   52MOL   H31943261   0.942   5.434   1.358 -0.9734  2.1766 -0.7349
   52MOL   H32043262   0.992   5.307   1.248  0.6698  0.7907 -0.3496
   52MOL   H32143263   0.769   5.321   1.228 -0.3794  1.7622  0.6558
   52MOL   H32243264   0.767   5.490   1.197  0.9231  1.8982 -3.0772
   52MOL   H32343265   0.895   5.280   1.004  0.6120  1.0014 -1.3533
   52MOL   H32443266   0.912   5.453   0.994 -0.0161  0.8881  0.9305
   52MOL   H32543267   0.636   5.333   1.000 -0.3656  1.7382  0.4791
   52MOL   H32643268   0.697   5.493   0.953  0.5357  0.2142  1.6525
   52MOL   H32743269   0.744   5.231   0.820  0.2470  0.7337 -1.0489
   52MOL   H32843270   0.816   5.380   0.750  0.5397 -0.9820 -0.5608
   52MOL   H32943271   0.587   5.472   0.723 -2.3108 -0.2445 -2.3394
   52MOL   H33043272   0.522   5.310   0.750  0.0993 -0.9984  1.9048
   52MOL   H33143273   0.681   5.221   0.572  1.7530  0.7874 -1.8895
   52MOL   H33243274   0.713   5.382   0.527  2.2786 -3.4518 -0.3866
   52MOL   H33343275   0.439   5.243   0.551  0.7081 -0.7349  0.2808
   52MOL   H33443276   0.521   5.251   0.406 -0.2138  1.4710 -1.4530
   52MOL   H33543277   0.428   5.509   0.544  1.0188  0.3167  0.0471
   52MOL   H33643278   0.507   5.492   0.386 -1.0622  0.5200 -1.0192
   52MOL   H33743279   0.346   5.418   0.415 -0.1078  0.3782  2.1792
   52MOL   C33843280   1.396   5.572   1.474 -0.0966 -0.5965  0.3002
   52MOL   C33943281   1.490   5.605   1.591 -0.5310  0.0103  0.2906
   52MOL   C34043282   1.465   5.736   1.665  0.2388 -0.1186 -0.3248
   52MOL   C34143283   1.591   5.794   1.733  0.2110 -0.5839 -0.6578
   52MOL   C34243284   1.555   5.918   1.813 -0.5458 -0.3933  0.2440
   52MOL   C34343285   1.668   5.988   1.889  0.0937 -0.5864 -0.4265
   52MOL   C34443286   1.640   6.126   1.937 -0.2284 -0.5338  0.2863
   52MOL   C34543287   1.742   6.189   2.031 -0.3319  0.2289  0.2800
   52MOL   C34643288   1.712   6.330   2.083 -0.0867  0.5242  0.2095
   52MOL   C34743289   1.831   6.384   2.159  1.0475 -0.8299 -0.4618
   52MOL   C34843290   1.818   6.531   2.197 -0.1122  0.4717 -0.5848
   52MOL   C34943291   1.938   6.570   2.276 -0.1822 -0.2670 -0.4559
   52MOL   C35043292   1.929   6.714   2.327  0.1102  0.1886 -0.3253
   52MOL   C35143293   2.039   6.763   2.424 -0.9029  0.4496  0.2098
   52MOL   H35243294   1.297   5.558   1.518 -0.7408 -0.4291 -1.0794
   52MOL   H35343295   1.437   5.482   1.429  0.0598 -1.0388  1.3214
   52MOL   H35443296   1.591   5.616   1.550 -0.6779  1.7158  0.3663
   52MOL   H35543297   1.414   5.813   1.606  0.2500  0.7643  0.7926
   52MOL   H35643298   1.398   5.716   1.749  2.4800 -0.9595  1.3191
   52MOL   H35743299   1.664   5.802   1.653  1.0344 -0.0447  0.1307
   52MOL   H35843300   1.619   5.723   1.811 -1.4260 -0.9481 -0.3820
   52MOL   H35943301   1.484   5.886   1.889  1.0681  0.2605  2.0520
   52MOL   H36043302   1.513   5.991   1.744  0.4397 -1.6050 -1.7150
   52MOL   H36143303   1.703   5.917   1.964 -0.7157 -0.4933  0.0467
   52MOL   H36243304   1.750   5.994   1.817  1.2499 -1.4993  0.7811
   52MOL   H36343305   1.630   6.198   1.855 -3.9334  2.0174  2.8087
   52MOL   H36443306   1.537   6.133   1.973 -0.3067  0.8854 -0.2012
   52MOL   H36543307   1.758   6.135   2.124  0.1528  0.0721  0.1074
   52MOL   H36643308   1.840   6.201   1.984 -0.4609 -0.1378 -0.0784
   52MOL   H36743309   1.687   6.396   2.001 -1.1270 -0.7243 -0.4989
   52MOL   H36843310   1.625   6.333   2.150 -1.6270 -3.2152 -1.4949
   52MOL   H36943311   1.850   6.324   2.248 -1.6394  1.3230  1.6378
   52MOL   H37043312   1.924   6.375   2.102  1.1891 -0.4226 -0.2927
   52MOL   H37143313   1.729   6.540   2.258  0.4790 -0.7066  0.4655
   52MOL   H37243314   1.813   6.590   2.105  1.0742  1.3645 -0.0900
   52MOL   H37343315   2.029   6.560   2.218 -0.6822  2.3285 -1.7294
   52MOL   H37443316   1.949   6.496   2.356  1.5270 -0.2558 -0.6605
   52MOL   H37543317   1.938   6.785   2.245  0.4171  1.6789  0.9582
   52MOL   H37643318   1.832   6.731   2.374  0.1312  0.7511 -0.4860
   52MOL   H37743319   2.047   6.717   2.523  2.5200 -1.0099 -0.6736
   52MOL   H37843320   2.138   6.748   2.380 -0.4118 -0.9951  1.7453
   52MOL   H37943321   2.030   6.868   2.453 -0.2135  0.2932  1.0175
   52MOL   C38043322   1.491   5.491   1.696  0.2867  0.7406 -0.2084
   52MOL   C38143323   1.564   5.358   1.668  0.4704  0.3964 -0.1246
   52MOL   C38243324   1.715   5.380   1.616 -0.3852 -0.7476 -0.3323
   52MOL   C38343325   1.820   5.455   1.703  0.2355 -0.2808 -0.5364
   52MOL   C38443326   1.964   5.431   1.650  0.1683 -0.0392 -0.2673
   52MOL   C38543327   2.029   5.296   1.672  0.2203 -0.4057  0.1068
   52MOL   C38643328   2.158   5.287   1.588 -0.6365  0.9966 -0.1523
   52MOL   C38743329   2.218   5.147   1.588 -0.4221  0.6661  0.3694
   52MOL   C38843330   2.351   5.147   1.512 -0.1226 -0.4583  0.0124
   52MOL   C38943331   2.423   5.012   1.490  0.3722 -0.3462  0.1791
   52MOL   C39043332   2.363   4.914   1.390 -0.6754 -0.2650 -0.3058
   52MOL   C39143333   2.377   4.967   1.252  0.1980 -0.0486 -0.5152
   52MOL   C39243334   2.516   4.944   1.195  0.2099 -0.3743 -0.2186
   52MOL   C39343335   2.507   4.966   1.041 -0.5929  0.0603 -0.7797
   52MOL   H39443336   1.387   5.475   1.726  0.4206  0.7247  0.2466
   52MOL   H39543337   1.548   5.526   1.782  0.3230 -1.4280  0.6621
   52MOL   H39643338   1.519   5.310   1.581 -1.5739 -0.9414  1.6349
   52MOL   H39743339   1.714   5.415   1.512  1.7793 -3.0711 -1.2113
   52MOL   H39843340   1.755   5.282   1.588  3.0941 -0.2138  2.3866
   52MOL   H39943341   1.821   5.423   1.807  0.6271  1.4317 -0.0015
   52MOL   H40043342   1.799   5.562   1.708 -0.0002 -0.2779 -1.3817
   52MOL   H40143343   2.030   5.506   1.693  2.2967 -2.7083  1.2953
   52MOL   H40243344   1.964   5.454   1.543  0.1968 -0.9588 -0.4684
   52MOL   H40343345   1.958   5.218   1.647 -0.6643  0.4514 -0.0567
   52MOL   H40443346   2.056   5.269   1.775 -0.9679  0.2186  0.5889
   52MOL   H40543347   2.122   5.307   1.486 -1.5865 -1.9289 -0.4371
   52MOL   H40643348   2.233   5.364   1.608  1.7594 -1.0450 -1.1194
   52MOL   H40743349   2.225   5.119   1.693 -2.5840  3.1731  1.2550
   52MOL   H40843350   2.151   5.077   1.539 -1.2760  1.5310  0.2692
   52MOL   H40943351   2.338   5.199   1.418  1.2226 -0.0336  0.0402
   52MOL   H41043352   2.426   5.206   1.566 -0.3454  1.0026 -1.2643
   52MOL   H41143353   2.444   4.958   1.582  1.1432  0.8773  0.7281
   52MOL   H41243354   2.524   5.030   1.453  0.3071  2.3221  1.2226
   52MOL   H41343355   2.411   4.816   1.393  0.5791  0.3087 -1.1294
   52MOL   H41443356   2.258   4.893   1.409 -0.3048 -0.2692  1.8475
   52MOL   H41543357   2.339   5.069   1.248  0.7704  0.2356  1.1276
   52MOL   H41643358   2.310   4.904   1.192  0.2762  0.5787 -1.2778
   52MOL   H41743359   2.595   5.008   1.235 -0.2456 -1.7293  2.9902
   52MOL   H41843360   2.559   4.844   1.205  0.6640 -0.2043 -0.4587
   52MOL   H41943361   2.464   5.064   1.021  1.0419  0.9758  0.1385
   52MOL   H42043362   2.457   4.880   0.996  0.2648 -1.1607  0.5621
   52MOL   H42143363   2.609   4.973   1.003 -0.7104 -1.2059 -1.3639
   52MOL   C42243364   1.565   5.253   1.779  0.3611 -0.7436  0.6609
   52MOL   C42343365   1.421   5.206   1.831  0.9337  0.5299 -0.1661
   52MOL   C42443366   1.410   5.056   1.866  0.4768 -0.8881  0.1762
   52MOL   C42543367   1.536   5.010   1.951  0.5591  0.7269  0.2987
   52MOL   C42643368   1.498   4.925   2.071  0.4438  0.0492  0.2261
   52MOL   C42743369   1.620   4.877   2.164 -0.4300 -0.3609 -0.2847
   52MOL   C42843370   1.690   4.988   2.245 -0.5987 -0.5259 -0.0674
   52MOL   C42943371   1.598   5.056   2.348 -0.6867  0.7139 -0.3729
   52MOL   C43043372   1.684   5.140   2.444  0.2683  0.2982  1.1620
   52MOL   C43143373   1.602   5.207   2.549 -0.1346 -0.2593 -0.3093
   52MOL   C43243374   1.686   5.277   2.654 -0.4744  0.1489 -0.1876
   52MOL   C43343375   1.600   5.325   2.773 -0.8527  0.3800 -0.6741
   52MOL   C43443376   1.691   5.355   2.899 -0.3465 -0.1486  0.5468
   52MOL   C43543377   1.616   5.409   3.017  0.5010 -0.6729 -0.6252
   52MOL   H43643378   1.624   5.284   1.866  1.0822 -1.1500  0.3227
   52MOL   H43743379   1.619   5.168   1.738  1.4963  0.3993 -0.2762
   52MOL   H43843380   1.357   5.220   1.745  3.1958 -0.0860 -1.9922
   52MOL   H43943381   1.410   5.001   1.772 -0.0721 -2.5413  1.1211
   52MOL   H44043382   1.311   5.039   1.910 -1.0199 -1.9955 -3.4697
   52MOL   H44143383   1.599   4.944   1.893 -0.5917  0.4856 -0.6982
   52MOL   H44243384   1.596   5.094   1.987 -0.2975  2.0819 -1.3740
   52MOL   H44343385   1.430   4.846   2.041  0.4240  1.4063 -3.5905
   52MOL   H44443386   1.430   4.983   2.134  0.9737 -0.9531  1.7507
   52MOL   H44543387   1.698   4.845   2.095  0.7448  0.9452  0.4154
   52MOL   H44643388   1.601   4.789   2.227  0.2030 -2.2463 -2.6623
   52MOL   H44743389   1.780   4.955   2.297 -0.5724  0.4334  0.5168
   52MOL   H44843390   1.724   5.071   2.182 -0.9520 -0.5764 -0.3244
   52MOL   H44943391   1.524   5.113   2.292 -0.9761  1.2044  0.5145
   52MOL   H45043392   1.555   4.976   2.407  0.9817 -1.0134 -1.4214
   52MOL   H45143393   1.745   5.076   2.508  0.8359 -1.2817 -0.8896
   52MOL   H45243394   1.747   5.216   2.396  1.9549 -0.7782  1.6228
   52MOL   H45343395   1.524   5.272   2.507  0.2624  0.9769  0.8287
   52MOL   H45443396   1.546   5.134   2.607 -1.6077  1.2611  0.2410
   52MOL   H45543397   1.761   5.214   2.701  0.5268  1.4056 -0.0617
   52MOL   H45643398   1.735   5.363   2.608 -1.6570  0.4953 -0.8155
   52MOL   H45743399   1.532   5.248   2.807 -2.4036  0.7937 -2.7671
   52MOL   H45843400   1.540   5.413   2.748 -0.5277  0.3518 -1.5399
   52MOL   H45943401   1.732   5.258   2.929 -0.1979  0.1237  1.2404
   52MOL   H46043402   1.770   5.424   2.871 -0.3516 -0.8698 -1.3186
   52MOL   H46143403   1.568   5.506   3.002  3.7158  1.0138 -0.3267
   52MOL   H46243404   1.667   5.421   3.112 -2.2063  1.9363  0.5973
   52MOL   H46343405   1.533   5.340   3.034  1.4151 -1.7131 -0.3487
   52MOL   C46443406   1.370   5.294   1.951 -0.5496  0.3533  0.4172
   52MOL   C46543407   1.223   5.341   1.942  0.1775  0.7379  0.5222
   52MOL   C46643408   1.122   5.227   1.982  0.3037 -0.2669  0.1962
   52MOL   C46743409   1.124   5.177   2.130 -0.3601 -0.0092  0.5592
   52MOL   C46843410   1.034   5.057   2.176 -0.3467 -0.2582 -0.7694
   52MOL   C46943411   1.099   4.922   2.149  1.0968  0.5576  0.0305
   52MOL   C47043412   1.005   4.800   2.180  0.1948  0.0093 -0.0237
   52MOL   C47143413   1.083   4.667   2.156  0.0330  0.7559 -0.3614
   52MOL   C47243414   0.999   4.544   2.205 -1.0060 -0.3430 -0.6240
   52MOL   C47343415   1.028   4.419   2.114 -0.1748 -0.0393 -0.0546
   52MOL   C47443416   1.181   4.383   2.133  0.1466  0.8739 -0.4525
   52MOL   C47543417   1.207   4.247   2.080 -0.1830 -0.0515 -0.1266
   52MOL   C47643418   1.351   4.210   2.117 -0.5264  0.4978 -0.3902
   52MOL   C47743419   1.406   4.084   2.042  0.5104  0.1082 -0.4124
   52MOL   H47843420   1.429   5.386   1.946  1.2362 -0.6115  2.6557
   52MOL   H47943421   1.393   5.237   2.041  1.3109  1.1290  0.4633
   52MOL   H48043422   1.193   5.365   1.839  0.7997  0.8855  0.3726
   52MOL   H48143423   1.020   5.265   1.983  0.3620 -0.1149  0.3433
   52MOL   H48243424   1.123   5.148   1.907 -0.2386  0.5182 -0.6338
   52MOL   H48343425   1.094   5.266   2.186 -0.0603  0.9139 -0.7387
   52MOL   H48443426   1.227   5.152   2.157  0.3007  1.7333 -0.3191
   52MOL   H48543427   0.935   5.055   2.132 -0.3649 -2.7805 -0.6974
   52MOL   H48643428   1.021   5.046   2.284  0.7581  1.4159 -0.4469
   52MOL   H48743429   1.116   4.921   2.042  1.8223 -0.2410  0.1505
   52MOL   H48843430   1.196   4.914   2.198  0.7622 -0.6358  0.5327
   52MOL   H48943431   0.964   4.802   2.281 -2.1959 -3.0268 -0.9060
   52MOL   H49043432   0.912   4.811   2.125 -0.1141 -1.0943  0.2703
   52MOL   H49143433   1.102   4.657   2.050  0.0916 -2.3035 -0.0954
   52MOL   H49243434   1.181   4.666   2.204  0.9307  1.3523 -2.1706
   52MOL   H49343435   1.015   4.538   2.312  0.1537  0.2255 -0.7648
   52MOL   H49443436   0.893   4.564   2.186 -0.8697  1.4913  0.5080
   52MOL   H49543437   0.964   4.341   2.153  0.7604  0.8930  3.6261
   52MOL   H49643438   1.005   4.435   2.009 -1.8716  0.5402  0.3847
   52MOL   H49743439   1.248   4.455   2.086  1.2326  0.2767  0.1530
   52MOL   H49843440   1.211   4.389   2.237 -0.8939 -3.7300  0.2373
   52MOL   H49943441   1.200   4.255   1.971  0.3361 -0.2403 -0.1702
   52MOL   H50043442   1.131   4.174   2.107  0.3532 -0.4216  0.3483
   52MOL   H50143443   1.415   4.294   2.091  0.9497 -0.6159 -0.4590
   52MOL   H50243444   1.368   4.197   2.224  0.9758  0.1721 -0.6526
   52MOL   H50343445   1.369   4.089   1.939 -0.4090  2.5103  0.0067
   52MOL   H50443446   1.514   4.077   2.041  0.4669 -0.8391  0.7081
   52MOL   H50543447   1.369   3.991   2.086  1.8107 -0.4255 -0.4265
   52MOL   C50643448   1.202   5.479   2.023 -0.5437  0.8355 -0.0025
   52MOL   C50743449   1.097   5.575   1.969  0.3643 -0.5718 -0.4727
   52MOL   C50843450   1.042   5.661   2.084 -0.4446  0.0095  0.2096
   52MOL   C50943451   0.938   5.588   2.167  0.5341 -0.1833  0.2407
   52MOL   C51043452   0.896   5.659   2.293 -0.0784  0.2510 -0.3743
   52MOL   C51143453   0.850   5.804   2.271  0.0406 -0.4310  0.4473
   52MOL   C51243454   0.784   5.865   2.392  0.1790  0.0798 -0.4037
   52MOL   C51343455   0.756   6.013   2.383  0.2447 -0.6350  0.0855
   52MOL   C51443456   0.690   6.061   2.512  0.6288  0.3517  0.2648
   52MOL   C51543457   0.782   6.074   2.632 -0.5510  0.3698  0.1630
   52MOL   C51643458   0.858   6.205   2.630 -0.2368 -0.3974  0.4040
   52MOL   C51743459   0.966   6.211   2.738  0.1192  0.0217 -0.1535
   52MOL   C51843460   1.049   6.344   2.745  0.3482  0.3064  0.2168
   52MOL   C51943461   1.146   6.353   2.860 -0.1289 -0.0375 -0.3060
   52MOL   H52043462   1.300   5.526   2.037 -0.5170  0.2498  2.0057
   52MOL   H52143463   1.169   5.445   2.121 -1.1082  1.5883  0.0699
   52MOL   H52243464   1.015   5.513   1.933 -1.8537  2.0426 -0.1434
   52MOL   H52343465   1.119   5.710   2.143  0.4976 -1.8443  0.5573
   52MOL   H52443466   0.994   5.744   2.032 -0.1216 -0.0843 -0.2490
   52MOL   H52543467   0.841   5.582   2.118  0.4576 -0.4319  0.4149
   52MOL   H52643468   0.966   5.490   2.206  2.6169  0.2826 -0.0124
   52MOL   H52743469   0.980   5.663   2.362 -0.8042  0.8570  0.4853
   52MOL   H52843470   0.812   5.612   2.343 -0.9786  1.3253 -0.8385
   52MOL   H52943471   0.801   5.822   2.175  1.1456 -1.4802 -0.3334
   52MOL   H53043472   0.943   5.860   2.261  0.2575 -0.4138  2.4140
   52MOL   H53143473   0.690   5.810   2.404 -1.1419  1.7864 -2.6357
   52MOL   H53243474   0.840   5.835   2.481 -1.3534 -2.0643 -0.1126
   52MOL   H53343475   0.694   6.032   2.295 -0.1284  0.0631  0.4947
   52MOL   H53443476   0.845   6.072   2.364 -0.9872  1.6716  1.2187
   52MOL   H53543477   0.617   5.991   2.553 -1.1932  1.4588 -1.0537
   52MOL   H53643478   0.638   6.156   2.503 -2.2398 -1.1211  0.7682
   52MOL   H53743479   0.731   6.086   2.728 -0.5915  2.7685 -0.1336
   52MOL   H53843480   0.830   5.978   2.648 -0.4690 -0.0097 -2.2023
   52MOL   H53943481   0.913   6.220   2.537  0.8647 -1.0977  0.9267
   52MOL   H54043482   0.796   6.294   2.626  0.7940  0.2561 -2.8784
   52MOL   H54143483   1.037   6.139   2.696 -1.6827 -0.6580 -2.0877
   52MOL   H54243484   0.927   6.172   2.832 -1.7146  0.1601 -0.8495
   52MOL   H54343485   0.977   6.425   2.754 -1.8269 -1.7021  1.6951
   52MOL   H54443486   1.098   6.361   2.650 -1.6029  1.2877 -0.6491
   52MOL   H54543487   1.224   6.280   2.880 -0.2488  0.5102  2.3374
   52MOL   H54643488   1.175   6.456   2.841  2.0849 -0.8704 -1.6634
   52MOL   H54743489   1.091   6.354   2.954 -2.8360 -0.7958 -1.8078
   52MOL   C54843490   1.148   5.659   1.849 -0.0680  1.1494  0.0846
   52MOL   C54943491   1.038   5.725   1.751 -0.6638  0.4037  0.1511
   52MOL   C55043492   1.103   5.838   1.669  0.4216  0.7393 -0.6025
   52MOL   C55143493   1.117   5.969   1.750  0.1748 -0.0466 -0.0197
   52MOL   C55243494   1.214   6.067   1.678 -0.2732  0.5038  0.9911
   52MOL   C55343495   1.260   6.174   1.781  0.1004  0.1862 -0.7313
   52MOL   C55443496   1.337   6.294   1.722 -0.0801 -0.2324 -0.1311
   52MOL   C55543497   1.358   6.390   1.841 -0.0862  0.0365  0.0419
   52MOL   C55643498   1.435   6.516   1.804  0.8229  0.1095  0.0425
   52MOL   C55743499   1.438   6.629   1.903  0.2468  0.0299  0.1117
   52MOL   C55843500   1.547   6.730   1.870 -0.2165  0.1107  0.4316
   52MOL   C55943501   1.523   6.807   1.740  0.2929  0.2848 -0.3656
   52MOL   C56043502   1.586   6.733   1.615 -0.1212 -0.3922 -0.2138
   52MOL   C56143503   1.496   6.767   1.496 -0.4480 -0.4296 -0.1178
   52MOL   H56243504   1.220   5.729   1.890 -0.5861  1.6963  0.0584
   52MOL   H56343505   1.214   5.595   1.789 -1.5117 -0.9379  0.6798
   52MOL   H56443506   0.952   5.772   1.798 -0.2830  0.3761  0.8846
   52MOL   H56543507   1.197   5.800   1.628  0.0915 -0.7610 -0.0230
   52MOL   H56643508   1.041   5.858   1.582 -2.7761  0.9788  1.6487
   52MOL   H56743509   1.157   5.945   1.848 -0.7466 -0.8212  0.1703
   52MOL   H56843510   1.017   6.010   1.764 -1.3077 -3.4204 -0.0634
   52MOL   H56943511   1.289   6.006   1.627 -3.4298 -0.9952 -2.0353
   52MOL   H57043512   1.160   6.121   1.601 -3.4772  0.1423  2.9276
   52MOL   H57143513   1.319   6.130   1.862  0.3649  0.4622 -0.7741
   52MOL   H57243514   1.172   6.210   1.834  0.7116 -1.3724  1.4218
   52MOL   H57343515   1.435   6.261   1.687  0.4164 -0.8636  1.7617
   52MOL   H57443516   1.282   6.337   1.639 -0.7704 -1.0841 -0.1233
   52MOL   H57543517   1.400   6.340   1.928 -1.2887 -2.1128 -0.5693
   52MOL   H57643518   1.257   6.418   1.872  0.3811  0.7152  0.9697
   52MOL   H57743519   1.389   6.548   1.710  2.8008 -0.7096 -1.2481
   52MOL   H57843520   1.538   6.491   1.781  0.4089 -0.8928 -0.7798
   52MOL   H57943521   1.342   6.680   1.915  0.1340 -0.0507 -0.4451
   52MOL   H58043522   1.447   6.604   2.009  0.4645  0.4218  0.1842
   52MOL   H58143523   1.650   6.697   1.876 -0.4095 -0.7111 -0.5752
   52MOL   H58243524   1.549   6.810   1.944  1.7025  1.7260 -1.2873
   52MOL   H58343525   1.416   6.826   1.734  0.1839 -0.3765 -0.5895
   52MOL   H58443526   1.569   6.904   1.759  1.3298 -0.0306 -1.2351
   52MOL   H58543527   1.689   6.766   1.600 -0.1989  0.0335  0.1963
   52MOL   H58643528   1.599   6.626   1.632  2.5182  0.1834  1.7188
   52MOL   H58743529   1.541   6.728   1.405  3.0279 -2.1098  2.1979
   52MOL   H58843530   1.394   6.731   1.506  0.2709 -2.2104  1.1068
   52MOL   H58943531   1.502   6.875   1.485 -0.1866 -0.5303 -0.9342
   52MOL   C59043532   0.982   5.613   1.655  0.1648 -0.6778 -0.0978
   52MOL   C59143533   0.826   5.613   1.639 -0.5390 -0.3973 -0.2740
   52MOL   C59243534   0.762   5.563   1.772  0.6451 -0.1734  0.3431
   52MOL   C59343535   0.742   5.405   1.788 -0.0042  0.2050  0.0615
   52MOL   C59443536   0.682   5.365   1.923  0.0332  0.0364  0.7842
   52MOL   C59543537   0.720   5.225   1.978  0.0262  0.8945 -0.0026
   52MOL   C59643538   0.650   5.108   1.906 -1.0884  0.0717  0.6195
   52MOL   C59743539   0.717   4.974   1.934 -0.0688  0.8469  0.9653
   52MOL   C59843540   0.627   4.854   1.899  0.0311  0.8858  0.6764
   52MOL   C59943541   0.693   4.724   1.951  0.0813 -0.5432 -0.6002
   52MOL   C60043542   0.631   4.593   1.890 -0.2767  0.1165 -0.1698
   52MOL   C60143543   0.701   4.461   1.930 -1.1204 -0.4349  0.5463
   52MOL   C60243544   0.619   4.335   1.891  0.1489 -0.6942 -0.1268
   52MOL   C60343545   0.705   4.212   1.884 -0.5887  0.5092  0.2923
   52MOL   H60443546   1.007   5.510   1.683 -2.2799 -1.4883 -0.7009
   52MOL   H60543547   1.019   5.610   1.553 -0.7261 -0.6922 -0.4271
   52MOL   H60643548   0.788   5.544   1.565  1.0745 -1.8642  0.2291
   52MOL   H60743549   0.663   5.604   1.791  0.2842 -0.3390 -1.1221
   52MOL   H60843550   0.811   5.612   1.857 -2.0497  0.8943  1.3234
   52MOL   H60943551   0.830   5.344   1.768 -0.7701 -1.1501  0.7400
   52MOL   H61043552   0.678   5.368   1.708  1.4741 -0.5424 -0.7863
   52MOL   H61143553   0.574   5.373   1.913  0.4640  3.9575 -1.8117
   52MOL   H61243554   0.729   5.436   1.992 -0.3420  1.4392 -0.3723
   52MOL   H61343555   0.689   5.242   2.081 -1.2804 -0.9723 -0.0672
   52MOL   H61443556   0.827   5.211   1.993 -0.2285 -0.7084  0.3967
   52MOL   H61543557   0.545   5.116   1.935 -1.6367 -3.0679 -0.3269
   52MOL   H61643558   0.627   5.130   1.802 -0.8186 -1.6785  0.1709
   52MOL   H61743559   0.811   4.973   1.878  1.4556 -2.6525  3.3847
   52MOL   H61843560   0.747   4.973   2.038  0.8812 -0.3125  0.6949
   52MOL   H61943561   0.529   4.859   1.946 -0.9871  1.0761 -1.4207
   52MOL   H62043562   0.623   4.843   1.791 -1.2103 -2.8391  1.0189
   52MOL   H62143563   0.799   4.717   1.925  0.0861  2.0059 -1.3414
   52MOL   H62243564   0.687   4.727   2.059 -1.6501 -2.1092 -0.6261
   52MOL   H62343565   0.637   4.591   1.781 -0.1045 -1.4209 -0.1332
   52MOL   H62443566   0.524   4.584   1.909 -0.3660  2.5403  0.6969
   52MOL   H62543567   0.710   4.470   2.038 -3.4277  0.6721  0.6780
   52MOL   H62643568   0.804   4.471   1.895 -1.4844  0.9079 -0.1545
   52MOL   H62743569   0.538   4.330   1.964  1.8285 -0.1625  1.8287
   52MOL   H62843570   0.576   4.343   1.792  2.4893  0.7998 -1.0809
   52MOL   H62943571   0.656   4.129   1.833  0.8454 -0.0432 -0.2275
   52MOL   H63043572   0.729   4.174   1.983 -1.9159 -0.1149  0.3820
   52MOL   H63143573   0.795   4.240   1.830 -0.1943  0.6466  1.0137
   52MOL   C63243574   0.766   5.749   1.598 -0.6851  1.2220 -0.3814
   52MOL   C63343575   0.624   5.747   1.540  0.6525 -0.0704 -0.9554
   52MOL   C63443576   0.558   5.888   1.541  0.7004 -0.1423 -0.0459
   52MOL   C63543577   0.406   5.890   1.520 -0.1118 -0.0047  0.0584
   52MOL   C63643578   0.344   6.028   1.531 -0.0243 -0.3838 -0.3463
   52MOL   C63743579   0.194   6.034   1.517 -0.3298  0.6308  0.8609
   52MOL   C63843580   0.141   6.178   1.546  0.1131 -0.5567  0.4165
   52MOL   C63943581   0.189   6.287   1.452 -0.0270  0.0364  0.2398
   52MOL   C64043582   0.133   6.429   1.481 -0.1502 -0.0873  0.3707
   52MOL   C64143583   0.167   6.531   1.368  0.5313  0.3260 -0.3266
   52MOL   C64243584   0.119   6.671   1.408 -0.2498 -0.1391  0.1594
   52MOL   C64343585   0.113   6.779   1.297  0.6683 -0.5120  0.2625
   52MOL   C64443586   0.039   6.907   1.340 -0.8573  0.1576 -0.4074
   52MOL   C64543587   7.695   6.999   1.225  0.2874  0.2031  0.0609
   52MOL   H64643588   0.828   5.803   1.527  1.8334  1.4451  1.8822
   52MOL   H64743589   0.781   5.817   1.682 -0.1659 -1.2366  1.5871
   52MOL   H64843590   0.551   5.699   1.606  0.3037 -0.0591 -1.3314
   52MOL   H64943591   0.570   5.946   1.633 -2.1259  1.0172 -0.3661
   52MOL   H65043592   0.606   5.954   1.469  0.4967 -3.4766 -3.3950
   52MOL   H65143593   0.349   5.824   1.585  3.0267 -2.5522  0.3178
   52MOL   H65243594   0.383   5.841   1.425 -1.0974  1.8348 -0.6842
   52MOL   H65343595   0.384   6.087   1.449  0.1199 -0.8585 -0.6196
   52MOL   H65443596   0.368   6.079   1.625  1.0794  0.1514 -0.9165
   52MOL   H65543597   0.155   5.989   1.426 -3.1112 -2.2984  3.3515
   52MOL   H65643598   0.142   5.963   1.581 -1.4454  1.0998  0.4813
   52MOL   H65743599   0.032   6.172   1.549 -0.1193  2.9450  1.1130
   52MOL   H65843600   0.158   6.207   1.650 -1.0477 -3.3581  1.4360
   52MOL   H65943601   0.155   6.257   1.352  0.5131  2.1614 -0.6153
   52MOL   H66043602   0.297   6.277   1.462 -0.1428 -0.0208  1.4309
   52MOL   H66143603   0.158   6.468   1.580  0.3200  0.5526  0.0016
   52MOL   H66243604   0.024   6.425   1.472 -0.0064 -0.4294 -1.4033
   52MOL   H66343605   0.275   6.539   1.357  0.9604 -2.2965  1.2997
   52MOL   H66443606   0.131   6.504   1.269 -0.1496  2.5185 -0.7007
   52MOL   H66543607   0.017   6.674   1.446 -0.3366  1.5258 -0.1604
   52MOL   H66643608   0.175   6.706   1.494  0.7661  1.2094 -1.0257
   52MOL   H66743609   0.045   6.742   1.220 -0.7057 -0.1847  1.2996
   52MOL   H66843610   0.208   6.804   1.250  0.6572 -0.7291  0.1249
   52MOL   H66943611   0.099   6.968   1.407 -0.9741 -0.2312  0.0530
   52MOL   H67043612   7.641   6.887   1.391 -0.7082 -0.6906 -0.4614
   52MOL   H67143613   0.089   7.030   1.172  1.8764 -0.4682  2.2630
   52MOL   H67243614   7.623   6.953   1.157  2.7353 -3.2929 -0.3215
   52MOL   H67343615   7.647   7.085   1.272 -2.5256 -2.3843  2.1214
   52MOL   C67443616   0.606   5.677   1.393 -0.5305  0.1830 -0.2089
   52MOL   C67543617   0.486   5.576   1.382  0.0461 -0.0254  0.1303
   52MOL   C67643618   0.464   5.550   1.227  0.0203  0.1311 -0.0311
   52MOL   C67743619   0.380   5.663   1.162 -0.4090 -0.0701  0.6780
   52MOL   C67843620   0.416   5.673   1.020  0.3784  0.2240 -0.2682
   52MOL   C67943621   0.556   5.738   0.986 -0.8266  0.7631 -0.2356
   52MOL   C68043622   0.562   5.755   0.828 -0.1579  0.0140  0.7631
   52MOL   C68143623   0.701   5.796   0.789  0.4869 -0.1952  0.2553
   52MOL   C68243624   0.733   5.800   0.640  0.1288 -0.0609  0.0402
   52MOL   C68343625   0.748   5.668   0.565 -0.3348 -0.0743 -0.6547
   52MOL   C68443626   0.810   5.680   0.426  0.9306 -0.3231 -0.6165
   52MOL   C68543627   0.709   5.736   0.320  0.7272 -0.4238 -0.1345
   52MOL   C68643628   0.777   5.746   0.179  0.0181 -0.2127  0.3056
   52MOL   C68743629   0.818   5.611   0.126 -0.6539  0.9336 -0.4001
   52MOL   H68843630   0.699   5.626   1.369 -0.6815 -1.3730  2.4040
   52MOL   H68943631   0.591   5.755   1.318  3.1954  1.8699  0.7073
   52MOL   H69043632   0.396   5.612   1.432  0.1859  0.1589  0.2482
   52MOL   H69143633   0.560   5.545   1.174 -0.5552  0.6651 -1.1497
   52MOL   H69243634   0.414   5.455   1.212 -1.4026  1.3113 -3.3160
   52MOL   H69343635   0.273   5.641   1.170 -0.3201 -0.7610  0.0224
   52MOL   H69443636   0.393   5.762   1.206 -0.5572 -0.1414  0.8835
   52MOL   H69543637   0.423   5.573   0.978 -1.0885 -1.0433  2.3974
   52MOL   H69643638   0.333   5.715   0.964 -0.8856  1.1468  2.2422
   52MOL   H69743639   0.571   5.835   1.032 -1.7935 -0.0951  1.9555
   52MOL   H69843640   0.638   5.678   1.024  0.6477  2.6127 -0.4360
   52MOL   H69943641   0.539   5.663   0.775 -0.0136 -1.2407  2.8147
   52MOL   H70043642   0.488   5.829   0.797 -0.9854 -1.1767 -0.1612
   52MOL   H70143643   0.723   5.892   0.836  0.0397  1.3134 -2.5558
   52MOL   H70243644   0.765   5.722   0.837  0.1313 -2.2398 -2.3418
   52MOL   H70343645   0.662   5.860   0.585  0.5643  0.4533  0.0373
   52MOL   H70443646   0.822   5.862   0.625 -2.0939  3.3244  0.4195
   52MOL   H70543647   0.653   5.616   0.554 -1.3564  1.3204  1.2935
   52MOL   H70643648   0.814   5.616   0.635 -0.4201 -0.6453 -0.9964
   52MOL   H70743649   0.841   5.577   0.405 -1.3138 -1.3982  1.0559
   52MOL   H70843650   0.897   5.744   0.440  1.2706 -1.1785  1.2996
   52MOL   H70943651   0.687   5.838   0.353  0.6388 -0.4182 -0.2089
   52MOL   H71043652   0.612   5.688   0.314 -0.4357  1.9173 -0.5198
   52MOL   H71143653   0.721   5.807   0.109 -0.8818 -0.0013  1.1940
   52MOL   H71243654   0.854   5.822   0.189  0.2118 -0.1565 -1.4376
   52MOL   H71343655   0.868   5.535   0.187  0.2576  1.1186 -0.9106
   52MOL   H71443656   0.726   5.562   0.095  0.0372 -1.2424  0.8781
   52MOL   H71543657   0.861   5.621   0.027  1.6305  1.4251  0.5979
   52MOL   C71643658   0.522   5.448   1.451 -0.1698 -0.2828  0.8244
   52MOL   C71743659   0.403   5.372   1.510  0.1662  0.1999  0.1422
   52MOL   C71843660   0.434   5.226   1.548 -0.6325 -0.7409  0.0565
   52MOL   C71943661   0.452   5.116   1.442  1.3237  0.6479  0.3341
   52MOL   C72043662   0.474   4.976   1.509 -0.2203  0.5179  0.2271
   52MOL   C72143663   0.555   4.878   1.420  0.1007 -0.2021 -0.1224
   52MOL   C72243664   0.523   4.741   1.471 -0.9113 -0.1271 -0.6782
   52MOL   C72343665   0.591   4.623   1.407 -0.4676 -0.3058  0.2534
   52MOL   C72443666   0.534   4.488   1.454  0.2739 -0.1586 -0.5478
   52MOL   C72543667   0.604   4.370   1.378 -0.1255 -0.9573  0.1498
   52MOL   C72643668   0.755   4.366   1.376 -0.2433 -0.1474 -0.2697
   52MOL   C72743669   0.822   4.333   1.506  0.5488  0.5206 -0.9354
   52MOL   C72843670   0.980   4.330   1.497 -0.0385 -0.0514 -0.7434
   52MOL   C72943671   1.053   4.297   1.628 -0.0178 -0.3979  0.1673
   52MOL   H73043672   0.584   5.375   1.400  0.0388 -0.5139  1.4016
   52MOL   H73143673   0.592   5.473   1.531  0.1090 -1.3565  0.9274
   52MOL   H73243674   0.323   5.367   1.436  0.8344 -3.4201 -0.4525
   52MOL   H73343675   0.351   5.191   1.610 -0.2348 -0.7793  0.5642
   52MOL   H73443676   0.523   5.228   1.610  0.9292  2.9852 -2.1039
   52MOL   H73543677   0.358   5.106   1.388  0.8193  0.3369  1.2570
   52MOL   H73643678   0.532   5.139   1.371  0.0533  1.5982 -0.8288
   52MOL   H73743679   0.523   5.002   1.603 -1.5398  1.9434  0.5468
   52MOL   H73843680   0.384   4.932   1.552  0.7065 -1.3813  0.2709
   52MOL   H73943681   0.512   4.891   1.320 -3.1835 -2.1002  0.9884
   52MOL   H74043682   0.659   4.912   1.421  0.0350  0.1710 -2.2270
   52MOL   H74143683   0.549   4.736   1.577 -0.4164  0.1143 -0.7846
   52MOL   H74243684   0.415   4.726   1.465 -1.4861  2.5522  1.9404
   52MOL   H74343685   0.694   4.633   1.441  0.0673 -2.8735 -0.5049
   52MOL   H74443686   0.591   4.621   1.298 -0.2474  1.5153  0.2059
   52MOL   H74543687   0.553   4.473   1.560  1.1305 -0.2301 -0.7063
   52MOL   H74643688   0.427   4.472   1.440  0.1794 -0.4487  0.4727
   52MOL   H74743689   0.551   4.278   1.406 -4.0536  0.9539 -0.6672
   52MOL   H74843690   0.570   4.380   1.275  1.5485  1.4310 -0.1916
   52MOL   H74943691   0.788   4.292   1.303 -2.8487 -1.3081 -0.3218
   52MOL   H75043692   0.793   4.460   1.335  0.3305 -1.0635 -1.8954
   52MOL   H75143693   0.779   4.392   1.587  2.1155  3.1954 -1.9673
   52MOL   H75243694   0.787   4.234   1.533  1.0851  0.7397  0.6257
   52MOL   H75343695   1.013   4.417   1.442 -0.2721  1.5697  1.6206
   52MOL   H75443696   0.999   4.247   1.429  1.5775 -0.8867  0.6758
   52MOL   H75543697   1.041   4.387   1.688 -0.6002 -1.6130  1.9359
   52MOL   H75643698   1.161   4.291   1.624  0.1195  2.2752 -0.6430
   52MOL   H75743699   1.012   4.213   1.685 -0.4308  0.1506  0.6844
   52MOL   C75843700   0.360   5.447   1.638  0.1565  0.1160 -0.6035
   52MOL   C75943701   0.247   5.396   1.739 -0.5186 -0.5538 -0.7224
   52MOL   C76043702   0.226   5.493   1.863 -0.5172 -0.0929  0.1800
   52MOL   C76143703   0.171   5.420   1.979  0.2883 -0.3592  0.3087
   52MOL   C76243704   0.132   5.510   2.099  0.2434  0.6634  0.3423
   52MOL   C76343705   0.040   5.633   2.066 -0.1185 -0.6367  0.0247
   52MOL   C76443706   7.655   5.690   2.187 -0.1882 -0.1299 -0.9015
   52MOL   C76543707   0.040   5.785   2.282 -0.0082  0.3377 -0.0514
   52MOL   C76643708   0.040   5.927   2.234  0.1219 -0.3474 -0.0792
   52MOL   C76743709   0.144   6.016   2.309 -0.5121 -0.0812 -0.2051
   52MOL   C76843710   0.159   6.150   2.234 -0.2009 -0.0540  0.0155
   52MOL   C76943711   0.262   6.251   2.298 -0.6279  0.3960 -0.1424
   52MOL   C77043712   0.257   6.379   2.233 -0.1085 -0.4222  0.5912
   52MOL   C77143713   0.139   6.460   2.277 -0.2334  0.6072 -0.4170
   52MOL   H77243714   0.446   5.474   1.699 -1.4233 -1.0469  2.2609
   52MOL   H77343715   0.323   5.547   1.615 -0.6890  0.2595  1.2833
   52MOL   H77443716   0.294   5.306   1.779  0.2906 -0.0426 -0.4894
   52MOL   H77543717   0.321   5.539   1.891 -0.5930  0.0887  0.1399
   52MOL   H77643718   0.155   5.572   1.840  0.2928  1.5401  3.0237
   52MOL   H77743719   0.087   5.356   1.954 -1.3152  2.3662 -1.4969
   52MOL   H77843720   0.240   5.345   2.019  0.7611 -0.4066 -0.5859
   52MOL   H77943721   0.226   5.545   2.143  2.2476 -2.6508 -1.0759
   52MOL   H78043722   0.094   5.447   2.179  0.0423 -1.3980 -1.3294
   52MOL   H78143723   7.671   5.606   1.983 -0.6996  3.0166 -0.7746
   52MOL   H78243724   0.100   5.716   2.031  3.2131 -2.2360  1.7115
   52MOL   H78343725   7.561   5.735   2.157  0.0408  0.2317 -1.0793
   52MOL   H78443726   7.639   5.601   2.248  1.5170  1.1369  1.4578
   52MOL   H78543727   0.142   5.748   2.294 -0.1237 -0.0820 -0.3410
   52MOL   H78643728   7.683   5.783   2.378  0.4392  0.4843  0.1957
   52MOL   H78743729   7.634   5.966   2.242  0.8355  1.5170  0.1402
   52MOL   H78843730   0.057   5.918   2.127 -0.9640  0.2513 -0.3188
   52MOL   H78943731   0.243   5.970   2.310 -0.4337  0.1062  0.5746
   52MOL   H79043732   0.108   6.043   2.408  1.5820 -1.0972  0.8640
   52MOL   H79143733   0.196   6.118   2.136  1.4150  2.5144 -0.2498
   52MOL   H79243734   0.061   6.197   2.227  0.8953  2.1074 -1.2343
   52MOL   H79343735   0.236   6.271   2.402 -0.4785 -1.1000  0.1905
   52MOL   H79443736   0.362   6.209   2.310 -0.8895 -0.0284  0.5762
   52MOL   H79543737   0.346   6.438   2.252 -0.2952  0.4276 -1.0788
   52MOL   H79643738   0.253   6.365   2.124  1.5002 -0.5965  0.5492
   52MOL   H79743739   0.156   6.500   2.377 -1.5487  0.0550  0.0424
   52MOL   H79843740   0.115   6.539   2.206 -3.8680 -1.5963 -1.8272
   52MOL   H79943741   0.049   6.398   2.285  0.5866 -0.6797 -0.9768
   52MOL   C80043742   0.115   5.360   1.667  0.0163  0.1030 -0.2473
   52MOL   C80143743   0.037   5.475   1.617  0.3430 -0.2032 -0.6833
   52MOL   C80243744   7.603   5.449   1.545 -0.2148 -0.4236  0.1308
   52MOL   C80343745   7.554   5.574   1.471  0.2970 -0.0866 -0.5380
   52MOL   C80443746   7.441   5.541   1.369 -0.7708 -0.1726 -0.4695
   52MOL   C80543747   7.465   5.422   1.269 -0.3690 -0.4722 -0.1889
   52MOL   C80643748   7.366   5.418   1.154 -0.0524  0.1608  0.4521
   52MOL   C80743749   7.343   5.273   1.096  0.2802 -0.6820  0.1671
   52MOL   C80843750   7.433   5.219   0.986  1.0603 -0.2322 -0.4422
   52MOL   C80943751   7.404   5.277   0.848 -0.0602 -0.2314  0.2313
   52MOL   C81043752   7.479   5.196   0.736  0.8124 -0.1207  0.7703
   52MOL   C81143753   7.567   5.275   0.641 -0.4199  0.0251  0.2601
   52MOL   C81243754   7.652   5.178   0.551 -0.0699 -0.2050  0.2983
   52MOL   C81343755   0.058   5.263   0.465 -0.3520 -0.0977  0.4865
   52MOL   H81443756   0.057   5.298   1.737 -2.3794  1.1817 -1.2236
   52MOL   H81543757   0.137   5.286   1.590  2.3765  0.7373 -0.2196
   52MOL   H81643758   0.105   5.534   1.555  0.8120  0.8727  0.8447
   52MOL   H81743759   7.529   5.410   1.615 -1.0801 -0.3297 -0.7390
   52MOL   H81843760   7.620   5.370   1.472  1.4355 -0.2137  0.2538
   52MOL   H81943761   7.642   5.595   1.409  1.5429 -1.9384  0.5219
   52MOL   H82043762   7.534   5.662   1.532  0.1957 -0.4227 -0.0791
   52MOL   H82143763   7.344   5.525   1.417 -1.4776  4.3366 -0.1485
   52MOL   H82243764   7.444   5.631   1.307  0.0272 -0.9405 -1.5732
   52MOL   H82343765   7.463   5.331   1.329  0.0709  0.4338  1.2187
   52MOL   H82443766   7.564   5.438   1.226 -0.5870  1.5799  0.0172
   52MOL   H82543767   7.270   5.460   1.181  0.4258  2.1018 -0.8167
   52MOL   H82643768   7.389   5.478   1.066 -1.0312 -2.1819 -1.4621
   52MOL   H82743769   7.353   5.206   1.182 -1.1329 -1.2003 -0.0644
   52MOL   H82843770   7.239   5.255   1.067 -0.0995  0.5294  0.7548
   52MOL   H82943771   7.539   5.230   1.010  1.3304  0.2009 -1.7775
   52MOL   H83043772   7.410   5.113   0.988 -1.3592  0.2537 -1.0493
   52MOL   H83143773   7.425   5.384   0.841  0.6008 -0.3066  1.0655
   52MOL   H83243774   7.298   5.270   0.822  0.0030 -0.0645 -0.0746
   52MOL   H83343775   7.537   5.107   0.762  2.3313 -0.4294 -3.3124
   52MOL   H83443776   7.401   5.156   0.671  0.3694 -0.4847  1.5127
   52MOL   H83543777   7.648   5.323   0.696  0.7834 -0.9063 -0.6562
   52MOL   H83643778   7.518   5.346   0.575  0.2107 -0.4849 -0.7698
   52MOL   H83743779   0.017   5.100   0.597  2.5512  1.2790 -0.5182
   52MOL   H83843780   7.577   5.132   0.486  1.3411 -1.7368 -0.2811
   52MOL   H83943781   0.116   5.339   0.517  1.1880 -1.8185  1.3191
   52MOL   H84043782   0.128   5.200   0.409 -0.2332 -0.3762  0.9461
   52MOL   H84143783   0.005   5.318   0.387 -2.1408 -0.2821  1.5418
   52MOL   H84243784   0.007   5.541   1.698  2.0557  1.8501 -1.6692
   53MOL     C143785   4.540   2.750   5.931 -0.0710  0.9501  0.4145
   53MOL     C243786   4.642   2.657   6.008  0.2740  0.5518 -0.0062
   53MOL     C343787   4.761   2.613   5.920  0.5643 -0.2344  0.0295
   53MOL     C443788   4.867   2.726   5.904 -0.1895 -0.1073  0.0351
   53MOL     C543789   4.975   2.693   5.809 -0.2089 -0.1632  0.5164
   53MOL     C643790   5.085   2.798   5.827  0.1012 -0.3940 -0.4313
   53MOL     C743791   5.212   2.757   5.761  0.8926  0.4344  0.5387
   53MOL     C843792   5.327   2.863   5.793  1.0674  0.1183 -0.0634
   53MOL     C943793   5.434   2.865   5.679  0.1601  0.4422 -0.2204
   53MOL    C1043794   5.556   2.953   5.716  0.5478  0.0444 -0.6168
   53MOL    C1143795   5.656   2.893   5.811 -0.8623  0.3764 -0.5361
   53MOL    C1243796   5.636   2.909   5.960 -0.1639  0.3845 -0.1256
   53MOL    C1343797   5.605   3.049   6.015 -0.5666 -0.4484 -0.0659
   53MOL    C1443798   5.710   3.145   5.977  0.4932  0.3291 -0.8410
   53MOL    H1543799   4.567   2.856   5.938  2.3479  0.4156 -0.5656
   53MOL    H1643800   4.439   2.739   5.970 -1.1882 -0.9769 -2.8235
   53MOL    H1743801   4.587   2.564   6.021  0.9275  0.1614  0.0219
   53MOL    H1843802   4.803   2.522   5.963  1.3298  0.0673 -0.0618
   53MOL    H1943803   4.724   2.587   5.821  1.1851  1.3050 -0.6170
   53MOL    H2043804   4.898   2.743   6.007 -0.1480  0.1445 -0.0179
   53MOL    H2143805   4.813   2.815   5.874  1.7365  1.7388  1.8400
   53MOL    H2243806   4.932   2.690   5.709 -0.1792  1.5184  0.4335
   53MOL    H2343807   5.020   2.598   5.838 -3.6231 -1.4005  2.0049
   53MOL    H2443808   5.103   2.807   5.934  2.6849  2.5156 -1.0554
   53MOL    H2543809   5.049   2.892   5.784 -2.2127 -1.2657 -0.4936
   53MOL    H2643810   5.230   2.654   5.792 -1.5078  0.0141  0.6191
   53MOL    H2743811   5.194   2.745   5.654 -3.1122 -0.2566  1.2204
   53MOL    H2843812   5.367   2.851   5.893 -0.9812 -2.3904  0.5001
   53MOL    H2943813   5.273   2.957   5.803  0.4416 -0.1330 -1.0026
   53MOL    H3043814   5.473   2.765   5.665 -0.3296  0.2732 -0.3787
   53MOL    H3143815   5.381   2.886   5.586 -1.9848 -2.0287  0.3865
   53MOL    H3243816   5.608   2.974   5.623 -0.6372  1.5045 -0.9753
   53MOL    H3343817   5.521   3.054   5.736 -0.5219  0.0714 -2.4372
   53MOL    H3443818   5.668   2.787   5.787  0.6523 -0.0586  1.9289
   53MOL    H3543819   5.744   2.951   5.783 -1.1402  1.3720  0.6066
   53MOL    H3643820   5.732   2.877   6.001 -0.8544  0.9406  1.9954
   53MOL    H3743821   5.559   2.838   5.994  1.7619 -2.2442 -1.1206
   53MOL    H3843822   5.519   3.087   5.959 -0.8602  0.1740  0.8025
   53MOL    H3943823   5.584   3.063   6.121  1.3842  3.0033 -0.0452
   53MOL    H4043824   5.806   3.110   6.016 -0.0918 -1.1805 -0.7454
   53MOL    H4143825   5.714   3.160   5.869 -1.9475  1.3725 -0.8192
   53MOL    H4243826   5.697   3.246   6.016  0.2690  1.1705 -3.0278
   53MOL    H4343827   4.533   2.718   5.827 -2.9167  0.1531  0.8031
   53MOL    C4443828   4.672   2.710   6.156 -0.1333  0.1993  0.0186
   53MOL    C4543829   4.728   2.602   6.251 -0.9395 -0.2778 -0.2910
   53MOL    C4643830   4.610   2.511   6.296  0.0809 -0.1174  0.0353
   53MOL    C4743831   4.645   2.380   6.369 -0.3879  0.3932 -0.9975
   53MOL    C4843832   4.514   2.321   6.435 -0.6539  0.7778  0.4417
   53MOL    C4943833   4.542   2.176   6.500 -0.1152 -0.5198  0.5347
   53MOL    C5043834   4.416   2.091   6.532 -0.0780 -0.2424  0.1300
   53MOL    C5143835   4.323   2.051   6.420 -0.0019 -0.0929 -0.1114
   53MOL    C5243836   4.207   1.968   6.471 -1.0955 -0.6849  0.3132
   53MOL    C5343837   4.103   1.921   6.368  0.4697 -0.5054  0.0562
   53MOL    C5443838   4.016   1.808   6.409 -0.2650  0.1490  0.3796
   53MOL    C5543839   3.959   1.724   6.284 -0.1815 -0.0530 -0.7751
   53MOL    C5643840   3.863   1.618   6.329 -0.6035  0.6818  0.2386
   53MOL    C5743841   3.804   1.538   6.207 -0.1972 -0.1824 -0.4109
   53MOL    H5843842   4.736   2.797   6.145 -0.2714  0.3022  0.0284
   53MOL    H5943843   4.579   2.751   6.196 -1.0678  0.9164 -2.7505
   53MOL    H6043844   4.804   2.548   6.195  1.3748  0.5213  1.9722
   53MOL    H6143845   4.558   2.584   6.359  1.1002  0.8586 -0.2475
   53MOL    H6243846   4.541   2.490   6.214  0.3176  2.4046 -0.8814
   53MOL    H6343847   4.722   2.391   6.445 -0.8697 -0.5819 -0.3576
   53MOL    H6443848   4.692   2.308   6.301  0.5230  0.2841 -0.2559
   53MOL    H6543849   4.442   2.300   6.356  1.2042 -1.3317 -0.7438
   53MOL    H6643850   4.461   2.391   6.500 -0.0410  1.0971  0.5992
   53MOL    H6743851   4.612   2.120   6.438  3.8877  1.7188  2.8234
   53MOL    H6843852   4.598   2.202   6.590 -1.8125  0.9703  1.2115
   53MOL    H6943853   4.432   2.004   6.595 -2.7213 -1.3111 -0.6429
   53MOL    H7043854   4.361   2.153   6.604 -0.3924  0.4866 -0.7287
   53MOL    H7143855   4.374   2.004   6.337  0.5916 -1.2922  0.9121
   53MOL    H7243856   4.282   2.141   6.373  0.3137 -0.2981 -0.7818
   53MOL    H7343857   4.254   1.880   6.515 -2.8026 -2.2091 -0.8262
   53MOL    H7443858   4.165   2.020   6.557  0.8610  1.3580  0.0715
   53MOL    H7543859   4.158   1.883   6.282  0.6984 -1.3469  0.5713
   53MOL    H7643860   4.049   2.011   6.336  0.4771  0.5920  2.9717
   53MOL    H7743861   3.922   1.844   6.450 -1.3986 -2.2086 -0.0623
   53MOL    H7843862   4.057   1.735   6.479  0.3344 -1.3072 -1.4636
   53MOL    H7943863   3.894   1.793   6.229 -0.1177  1.6948  1.2921
   53MOL    H8043864   4.038   1.682   6.221 -1.2692 -1.8497 -0.9740
   53MOL    H8143865   3.779   1.668   6.378 -2.2351  0.3883 -2.1901
   53MOL    H8243866   3.917   1.554   6.399 -0.8219 -0.3730 -0.5438
   53MOL    H8343867   3.763   1.588   6.120 -1.3864 -0.4036  0.0095
   53MOL    H8443868   3.726   1.468   6.237 -0.1308  0.2475  0.8071
   53MOL    H8543869   3.882   1.474   6.167  0.9182  0.3938  0.8109
   53MOL    C8643870   4.797   2.669   6.369  0.0561 -0.1232  0.1892
   53MOL    C8743871   4.927   2.747   6.345  0.2622  0.3039 -0.3752
   53MOL    C8843872   5.046   2.652   6.333  0.3384  0.6278 -0.7773
   53MOL    C8943873   5.117   2.645   6.197  0.0817 -0.3835 -0.1122
   53MOL    C9043874   5.248   2.556   6.188  0.5452  0.3304 -0.9351
   53MOL    C9143875   5.301   2.562   6.040  0.6628  0.4756  0.7324
   53MOL    C9243876   5.427   2.477   6.020  0.3044 -0.6490 -0.2850
   53MOL    C9343877   5.494   2.497   5.883  0.0392 -0.3977 -0.6462
   53MOL    C9443878   5.626   2.415   5.848  0.0442  0.3471 -0.1828
   53MOL    C9543879   5.708   2.479   5.733  0.2125  0.1368  0.5997
   53MOL    C9643880   5.808   2.379   5.669 -0.1236 -0.4290  0.0055
   53MOL    C9743881   5.895   2.448   5.564 -0.4205 -0.3260 -0.1282
   53MOL    C9843882   5.988   2.355   5.479 -0.5671  0.1260  0.2258
   53MOL    C9943883   6.111   2.430   5.431 -0.2964  0.8723  1.1212
   53MOL   H10043884   4.728   2.732   6.424  1.4318  1.8152 -0.2807
   53MOL   H10143885   4.823   2.598   6.448 -0.1446  0.3941  0.7176
   53MOL   H10243886   4.907   2.784   6.244  2.2402  0.9864 -0.5514
   53MOL   H10343887   5.121   2.675   6.408 -2.1820 -1.5840  2.5756
   53MOL   H10443888   5.026   2.551   6.367  0.0783  0.9711  0.1263
   53MOL   H10543889   5.048   2.598   6.127 -1.7274  1.2887  0.5017
   53MOL   H10643890   5.136   2.747   6.164  0.1821  0.2425  1.8130
   53MOL   H10743891   5.234   2.453   6.220  0.2809  0.4378 -0.7076
   53MOL   H10843892   5.325   2.583   6.261 -2.7641  0.3101  2.6994
   53MOL   H10943893   5.332   2.664   6.019 -0.0921  0.7194  0.7829
   53MOL   H11043894   5.222   2.536   5.969 -0.6222  1.3299  1.8046
   53MOL   H11143895   5.506   2.494   6.093 -0.8150 -2.2287  1.3231
   53MOL   H11243896   5.397   2.373   6.027  0.7316 -0.7817 -0.4236
   53MOL   H11343897   5.515   2.604   5.885 -0.2070 -0.3720  0.5063
   53MOL   H11443898   5.422   2.485   5.802 -1.5286  0.9955  0.5316
   53MOL   H11543899   5.683   2.393   5.938  2.1199 -1.2511 -1.8366
   53MOL   H11643900   5.596   2.318   5.808 -1.1797  1.3700 -1.8116
   53MOL   H11743901   5.760   2.568   5.770  1.3045  0.6298 -2.0067
   53MOL   H11843902   5.638   2.521   5.660  0.4228  1.1128  0.9513
   53MOL   H11943903   5.871   2.332   5.744  0.5321  0.8865  0.2941
   53MOL   H12043904   5.756   2.292   5.629  1.9693 -2.8805  2.4435
   53MOL   H12143905   5.835   2.497   5.487  0.0334  3.1422  1.6052
   53MOL   H12243906   5.948   2.528   5.615 -4.2794  1.1113  1.8246
   53MOL   H12343907   5.950   2.315   5.385  0.8925  1.1125 -0.8083
   53MOL   H12443908   6.012   2.268   5.541 -0.2975 -0.4117 -0.6365
   53MOL   H12543909   6.190   2.377   5.378 -0.8857  1.5066 -0.3923
   53MOL   H12643910   6.090   2.522   5.377  0.3065 -0.2882 -1.1297
   53MOL   H12743911   6.146   2.461   5.530 -2.2592  2.1189  1.4606
   53MOL   C12843912   4.955   2.869   6.442  0.3748  0.6406  0.4226
   53MOL   C12943913   5.052   2.973   6.380  0.0357 -0.2220  0.1624
   53MOL   C13043914   4.981   3.043   6.263 -0.3941 -0.4201 -0.1852
   53MOL   C13143915   5.076   3.104   6.161  0.2096  1.1276 -0.0858
   53MOL   C13243916   5.012   3.141   6.034 -0.0891 -0.2025 -0.2439
   53MOL   C13343917   5.110   3.197   5.933 -0.2665  0.2871 -0.1062
   53MOL   C13443918   5.047   3.210   5.794  0.7946  0.2441  0.8284
   53MOL   C13543919   5.150   3.239   5.688  0.1695  0.9081 -0.3473
   53MOL   C13643920   5.091   3.240   5.549 -0.4799  0.6952  0.1890
   53MOL   C13743921   5.201   3.294   5.456 -0.5183 -0.1964  0.1635
   53MOL   C13843922   5.333   3.208   5.447 -0.2973 -0.0220  0.2394
   53MOL   C13943923   5.447   3.284   5.374  0.3153  0.6645 -0.0182
   53MOL   C14043924   5.567   3.189   5.341 -0.4313  0.4102  0.1795
   53MOL   C14143925   5.690   3.247   5.266 -0.0721 -0.4666 -0.6476
   53MOL   H14243926   4.855   2.909   6.460  0.4151  0.7768  0.3484
   53MOL   H14343927   4.996   2.825   6.533 -0.5209 -1.4155 -0.1276
   53MOL   H14443928   5.134   2.921   6.330 -0.4339  0.6896 -1.6246
   53MOL   H14543929   4.908   2.981   6.211  0.5512  0.0955 -2.1937
   53MOL   H14643930   4.931   3.131   6.304  0.9075  0.4287 -0.3844
   53MOL   H14743931   5.118   3.195   6.205  0.6042  0.0813  1.7403
   53MOL   H14843932   5.165   3.042   6.152  0.6653  1.4863  1.6588
   53MOL   H14943933   4.961   3.055   5.990  1.2510 -0.7938 -0.6851
   53MOL   H15043934   4.936   3.217   6.052 -0.9656 -1.4775  1.6584
   53MOL   H15143935   5.148   3.294   5.967  1.2169  0.8880 -3.3066
   53MOL   H15243936   5.190   3.124   5.919 -0.0534  0.4110  0.4201
   53MOL   H15343937   4.998   3.113   5.779 -2.7524  1.9446  0.7861
   53MOL   H15443938   4.960   3.276   5.797 -1.2429 -2.3774  2.1393
   53MOL   H15543939   5.205   3.327   5.720  1.3223 -0.0642  0.3612
   53MOL   H15643940   5.212   3.151   5.694  0.1524  0.7953 -1.7145
   53MOL   H15743941   5.074   3.140   5.509 -0.4575 -0.2685  2.4860
   53MOL   H15843942   5.000   3.297   5.529 -0.6560 -0.0805 -1.2590
   53MOL   H15943943   5.229   3.397   5.479 -1.3482  0.5874 -2.1441
   53MOL   H16043944   5.161   3.293   5.354  0.0061 -1.6146 -0.0406
   53MOL   H16143945   5.374   3.189   5.546  0.5821 -1.8688 -0.4553
   53MOL   H16243946   5.312   3.112   5.399 -1.4257 -0.5116  1.6565
   53MOL   H16343947   5.416   3.320   5.276 -0.6317  0.9275  0.3725
   53MOL   H16443948   5.478   3.367   5.438  0.5381 -0.5856  1.5211
   53MOL   H16543949   5.597   3.134   5.430 -0.6916  0.3437  0.2271
   53MOL   H16643950   5.538   3.113   5.267  2.9462  0.0524 -0.8697
   53MOL   H16743951   5.651   3.302   5.180  1.2711 -0.1765 -1.0866
   53MOL   H16843952   5.737   3.311   5.340  0.0508 -1.0896 -0.1776
   53MOL   H16943953   5.760   3.169   5.236 -0.1270  1.1367 -5.5240
   53MOL   C17043954   5.095   3.077   6.488 -0.1465 -0.2260  0.2629
   53MOL   C17143955   5.227   3.026   6.560  0.6634  0.1028  0.5120
   53MOL   C17243956   5.352   3.029   6.471  0.3384  0.7309 -0.0696
   53MOL   C17343957   5.441   2.907   6.495  0.3002  0.1547 -0.0500
   53MOL   C17443958   5.538   2.883   6.382  0.8864 -0.6578  0.7070
   53MOL   C17543959   5.639   2.772   6.415 -0.0424 -0.2972  0.6295
   53MOL   C17643960   5.689   2.712   6.278  0.1253 -0.0658  0.3325
   53MOL   C17743961   5.786   2.591   6.295 -0.2698  0.4777 -0.2619
   53MOL   C17843962   5.836   2.524   6.168  0.4496  0.1170 -0.2395
   53MOL   C17943963   5.956   2.430   6.183  0.5077 -0.0922 -0.8824
   53MOL   C18043964   5.987   2.349   6.053 -0.0530  0.6318  0.3633
   53MOL   C18143965   6.111   2.254   6.061 -0.0395 -0.4522  0.2990
   53MOL   C18243966   6.123   2.179   5.930 -0.2248 -0.8068  0.7456
   53MOL   C18343967   6.199   2.048   5.947  0.0079  0.2088 -0.4021
   53MOL   H18443968   5.020   3.097   6.564  1.2568  1.0596  1.3453
   53MOL   H18543969   5.109   3.173   6.439 -0.2499 -0.5893 -0.5052
   53MOL   H18643970   5.214   2.921   6.586 -1.4564  0.2891  0.2404
   53MOL   H18743971   5.316   3.032   6.368  1.1229  1.1905 -0.3321
   53MOL   H18843972   5.425   3.109   6.478 -0.3850  1.3063  0.8961
   53MOL   H18943973   5.495   2.926   6.588 -1.4259  1.6590  0.6789
   53MOL   H19043974   5.372   2.823   6.509 -0.9927  0.9001 -1.7965
   53MOL   H19143975   5.485   2.846   6.294  0.3454  0.6949  0.4523
   53MOL   H19243976   5.583   2.978   6.353 -1.0882 -0.4108 -1.7314
   53MOL   H19343977   5.592   2.707   6.489 -0.7611 -0.0370  0.4026
   53MOL   H19443978   5.719   2.815   6.475 -1.2078  0.9901  1.2794
   53MOL   H19543979   5.741   2.789   6.221  0.6177  1.9907  3.4654
   53MOL   H19643980   5.609   2.691   6.207 -0.8374  0.5922  1.2147
   53MOL   H19743981   5.738   2.516   6.358 -0.8439  0.9913 -0.0745
   53MOL   H19843982   5.878   2.629   6.339 -0.4737  0.6370  0.0335
   53MOL   H19943983   5.853   2.601   6.094  3.8742 -0.6164 -0.2789
   53MOL   H20043984   5.748   2.464   6.142 -0.2096  1.0657 -0.2188
   53MOL   H20143985   5.930   2.358   6.261  0.1070  2.0517  1.0021
   53MOL   H20243986   6.044   2.489   6.208  0.1037  0.9251 -1.8357
   53MOL   H20343987   6.011   2.424   5.978 -1.0949  1.1820  0.5785
   53MOL   H20443988   5.895   2.297   6.027 -0.8474  1.2396  1.8954
   53MOL   H20543989   6.205   2.307   6.076  1.5225 -2.4738 -2.0292
   53MOL   H20643990   6.103   2.174   6.135 -1.1304 -2.1888 -1.6428
   53MOL   H20743991   6.023   2.160   5.891 -0.6500  1.3240  0.7633
   53MOL   H20843992   6.179   2.241   5.860 -0.1401 -1.4081  0.2791
   53MOL   H20943993   6.306   2.070   5.955  0.4119 -1.0970 -1.7892
   53MOL   H21043994   6.201   1.983   5.860 -1.0213 -1.1711  0.5981
   53MOL   H21143995   6.186   1.975   6.026  0.7274  0.1193 -0.3585
   53MOL   C21243996   5.253   3.102   6.700 -0.1976 -0.3429 -0.2505
   53MOL   C21343997   5.140   3.098   6.804  0.1420 -0.3326  0.3274
   53MOL   C21443998   5.106   2.956   6.846 -0.5309 -0.1933  0.0405
   53MOL   C21543999   5.221   2.878   6.921 -0.3747 -0.2977  1.1917
   53MOL   C21644000   5.156   2.772   6.999  0.3945 -0.5651 -0.3385
   53MOL   C21744001   5.249   2.668   7.072  0.3885 -0.6163  0.2359
   53MOL   C21844002   5.176   2.553   7.130  0.6447  0.2513 -0.1206
   53MOL   C21944003   5.083   2.587   7.246  0.1669  0.1505  0.3177
   53MOL   C22044004   4.998   2.464   7.281  0.7503 -0.4952  0.1573
   53MOL   C22144005   4.931   2.473   7.416 -0.3536 -0.1949 -0.0738
   53MOL   C22244006   4.817   2.375   7.432 -0.0750  0.1491  0.3459
   53MOL   C22344007   4.757   2.381   7.580  0.9697  0.3277 -0.4523
   53MOL   C22444008   4.698   2.519   7.613  0.0227 -0.3628 -0.3075
   53MOL   C22544009   4.649   2.524   0.063  0.0922 -0.2127  0.0122
   53MOL   H22644010   5.295   3.201   6.683  0.5928 -0.8698 -1.4899
   53MOL   H22744011   5.337   3.048   6.744 -1.0791 -1.0690  0.5556
   53MOL   H22844012   5.050   3.147   6.767  1.7193 -0.3103 -3.6501
   53MOL   H22944013   5.021   2.956   6.915  1.3399  2.1936  2.4365
   53MOL   H23044014   5.077   2.909   6.752  0.5139 -0.5863 -0.0852
   53MOL   H23144015   5.268   2.947   6.992  2.0449  0.0805 -0.7017
   53MOL   H23244016   5.307   2.850   6.860 -1.3102 -0.5167 -0.0451
   53MOL   H23344017   5.104   2.723   6.917  0.6422 -0.1967 -0.7153
   53MOL   H23444018   5.075   2.808   7.063  0.9827  0.7638 -0.3207
   53MOL   H23544019   5.311   2.718   7.147 -0.5465 -1.2873  1.4620
   53MOL   H23644020   5.321   2.631   6.999  0.0991  0.4267 -0.5959
   53MOL   H23744021   5.114   2.505   7.054  0.3378 -0.1358  0.3702
   53MOL   H23844022   5.249   2.478   7.160  0.2975  0.5308  1.4837
   53MOL   H23944023   5.148   2.623   7.326  1.4325 -1.0147 -0.1588
   53MOL   H24044024   5.013   2.664   7.213 -0.2486 -1.1177 -1.9055
   53MOL   H24144025   5.049   2.370   7.265  0.6908 -0.2092 -1.8252
   53MOL   H24244026   4.922   2.460   7.203  1.5649  1.8211 -0.8032
   53MOL   H24344027   5.012   2.454   7.487  2.6746  1.1587 -3.0315
   53MOL   H24444028   4.901   2.576   7.434 -1.8014 -0.7125  0.5517
   53MOL   H24544029   4.852   2.276   7.402  0.7958  0.3107  0.8205
   53MOL   H24644030   4.737   2.400   7.363  0.8304  1.6247 -0.1934
   53MOL   H24744031   4.834   2.371   7.656  0.9664 -2.4379 -0.7685
   53MOL   H24844032   4.687   2.299   7.594 -0.4644  1.7058  0.6208
   53MOL   H24944033   4.620   2.549   7.544 -0.5398  0.5135  0.6900
   53MOL   H25044034   4.769   2.601   7.607 -0.0577 -0.1393  1.4165
   53MOL   H25144035   4.589   2.613   0.080  0.0180 -0.4733  1.1279
   53MOL   H25244036   4.603   2.430   0.091  0.6619 -0.9316 -1.3917
   53MOL   H25344037   4.723   2.533   0.143 -1.5246 -0.6961  1.5785
   53MOL   C25444038   5.175   3.197   6.923 -0.5851 -0.6717 -0.3886
   53MOL   C25544039   5.128   3.343   6.909 -0.3973  0.7277  0.1531
   53MOL   C25644040   5.167   3.418   7.042  0.0244 -0.3609  0.3158
   53MOL   C25744041   5.053   3.412   7.149  0.7454 -0.2549  1.2108
   53MOL   C25844042   5.077   3.480   7.279  0.0802  0.5715 -0.2008
   53MOL   C25944043   4.943   3.500   7.352  0.3085 -0.2302 -0.2325
   53MOL   C26044044   4.874   3.373   7.400 -0.2376 -0.6987  0.0577
   53MOL   C26144045   4.738   3.406   7.453 -0.2011 -0.5270 -0.0933
   53MOL   C26244046   4.657   3.289   7.518  0.5475  1.0024 -0.7840
   53MOL   C26344047   4.564   3.206   7.427  0.1516  0.3417  0.2949
   53MOL   C26444048   4.431   3.270   7.385  0.1971  0.0448 -0.5539
   53MOL   C26544049   4.338   3.195   7.294 -0.3824  0.0549  0.1610
   53MOL   C26644050   4.287   3.051   7.347 -0.6541  1.0388 -0.1686
   53MOL   C26744051   4.182   2.997   7.257 -0.0243  0.0058  0.3281
   53MOL   H26844052   5.280   3.185   6.952 -0.5549 -0.0288 -0.2357
   53MOL   H26944053   5.128   3.145   7.007 -2.0543 -1.0425 -1.4179
   53MOL   H27044054   5.019   3.345   6.904 -0.4665 -0.5521  0.8626
   53MOL   H27144055   5.179   3.525   7.023 -2.6981  0.1373  1.1515
   53MOL   H27244056   5.256   3.382   7.092  0.9597  3.1543  1.3404
   53MOL   H27344057   5.031   3.307   7.169  1.6657 -0.1178  3.1077
   53MOL   H27444058   4.962   3.453   7.106  1.8923  2.2441  1.0614
   53MOL   H27544059   5.106   3.579   7.245 -1.0392  1.3621  1.1273
   53MOL   H27644060   5.159   3.435   7.335 -1.1790  0.3873  1.5416
   53MOL   H27744061   4.881   3.566   7.292 -1.5870  0.2412  2.1255
   53MOL   H27844062   4.957   3.554   7.446  0.8431  0.6951 -0.8450
   53MOL   H27944063   4.855   3.299   7.322 -0.5610 -2.3081  1.6201
   53MOL   H28044064   4.939   3.322   7.472 -0.3474  0.1909  0.7929
   53MOL   H28144065   4.672   3.447   7.376  0.1060 -0.0919 -0.1214
   53MOL   H28244066   4.746   3.493   7.518  1.4893  0.8197 -2.0882
   53MOL   H28344067   4.724   3.217   7.565  0.7086  2.1666  0.8283
   53MOL   H28444068   4.591   3.334   7.592  0.5464 -0.6597  0.2534
   53MOL   H28544069   4.535   3.118   7.484  1.2370 -1.8492 -2.3873
   53MOL   H28644070   4.615   3.177   7.335  0.2450 -2.4023  1.1762
   53MOL   H28744071   4.454   3.369   7.345  1.4057 -0.2977 -0.7331
   53MOL   H28844072   4.392   3.280   7.486  1.3761  1.3272 -0.2148
   53MOL   H28944073   4.244   3.245   7.271 -0.8719 -0.1270  1.7258
   53MOL   H29044074   4.374   3.179   7.192  2.3688  0.1402  1.0914
   53MOL   H29144075   4.370   2.982   7.358 -0.5594  1.5612  2.8628
   53MOL   H29244076   4.240   3.057   7.445 -2.1677 -1.7346 -0.6778
   53MOL   H29344077   4.096   3.063   7.248 -0.5693 -0.5779  1.2124
   53MOL   H29444078   4.134   2.910   7.301  1.9661 -1.6154 -0.6279
   53MOL   H29544079   4.213   2.981   7.154 -0.4248 -2.1511  0.5231
   53MOL   C29644080   5.183   3.419   6.789  0.1691  0.8484  0.1707
   53MOL   C29744081   5.151   3.568   6.778  0.9262  0.4320 -0.2099
   53MOL   C29844082   5.197   3.620   6.640  0.7624 -0.6356 -0.6764
   53MOL   C29944083   5.349   3.619   6.621 -0.0028  0.7849 -0.8436
   53MOL   C30044084   5.393   3.707   6.501 -0.1096  0.1039 -0.7046
   53MOL   C30144085   5.334   3.673   6.357  0.5525  0.2396 -0.2225
   53MOL   C30244086   5.382   3.533   6.304 -0.0558  0.1845 -0.0484
   53MOL   C30344087   5.309   3.492   6.176 -0.3380 -0.2402 -0.0952
   53MOL   C30444088   5.353   3.568   6.048  0.5502 -0.4112 -0.5948
   53MOL   C30544089   5.460   3.490   5.960 -0.0380 -0.1249 -0.3745
   53MOL   C30644090   5.450   3.536   5.815 -0.4785  0.3660 -0.3198
   53MOL   C30744091   5.521   3.446   5.717 -0.2016  0.6190  0.2892
   53MOL   C30844092   5.666   3.404   5.748 -0.0046  0.4132 -0.1543
   53MOL   C30944093   5.767   3.509   5.698  0.1843 -0.3860  0.7735
   53MOL   H31044094   5.140   3.375   6.699  2.2720 -0.7668 -0.0778
   53MOL   H31144095   5.290   3.403   6.786  0.6164  3.1946  1.8706
   53MOL   H31244096   5.203   3.627   6.854 -1.0301 -0.1137  1.5851
   53MOL   H31344097   5.156   3.720   6.626  1.4560 -0.5670 -2.1973
   53MOL   H31444098   5.144   3.567   6.561  1.2807 -0.9071 -0.8435
   53MOL   H31544099   5.395   3.521   6.608 -0.5040  0.7572 -2.5151
   53MOL   H31644100   5.410   3.655   6.704  2.3794  0.7829 -2.5279
   53MOL   H31744101   5.356   3.807   6.525  0.8100 -0.1187  1.8155
   53MOL   H31844102   5.500   3.715   6.486  0.1482 -0.5384  0.6814
   53MOL   H31944103   5.363   3.762   6.301  0.6429  1.0538  1.1089
   53MOL   H32044104   5.226   3.685   6.353  0.4837  0.4685  1.9623
   53MOL   H32144105   5.491   3.528   6.302  0.0064 -0.5663  2.9237
   53MOL   H32244106   5.371   3.454   6.378  1.2306 -0.1695 -0.2304
   53MOL   H32344107   5.206   3.524   6.192 -0.8498 -1.9357  0.1542
   53MOL   H32444108   5.312   3.383   6.173  2.0845 -0.1665 -2.0581
   53MOL   H32544109   5.261   3.586   5.990 -1.3297  0.0669  2.4385
   53MOL   H32644110   5.380   3.673   6.061  2.5135 -0.7936 -1.4908
   53MOL   H32744111   5.435   3.384   5.959  0.2146 -0.1756 -1.2956
   53MOL   H32844112   5.558   3.496   6.008 -0.5927 -1.2234  0.9181
   53MOL   H32944113   5.493   3.636   5.812  1.4393 -0.3761  1.1868
   53MOL   H33044114   5.344   3.536   5.790 -0.5788 -3.1858 -0.1898
   53MOL   H33144115   5.503   3.472   5.613 -0.5559  1.3509  0.5277
   53MOL   H33244116   5.472   3.349   5.717 -0.5765  0.8074 -0.6451
   53MOL   H33344117   5.694   3.309   5.702 -1.3433  0.8337 -1.8999
   53MOL   H33444118   5.670   3.390   5.856  2.7839 -0.8606 -0.3852
   53MOL   H33544119   5.867   3.471   5.717  0.5261  0.5130  0.8224
   53MOL   H33644120   5.769   3.553   5.598 -0.4274  0.3383  1.0708
   53MOL   H33744121   5.765   3.591   5.771 -1.7283  0.4547 -0.1718
   53MOL   C33844122   5.002   3.595   6.793  0.6732 -0.2614 -0.3162
   53MOL   C33944123   4.958   3.741   6.840 -0.7289 -0.2592 -0.3412
   53MOL   C34044124   4.810   3.768   6.809  0.0215 -0.4150  0.0749
   53MOL   C34144125   4.700   3.705   6.897  0.3304 -1.0144 -0.0365
   53MOL   C34244126   4.563   3.735   6.836  0.9541 -0.3436  0.6983
   53MOL   C34344127   4.528   3.888   6.839 -0.1167 -0.1613 -0.2755
   53MOL   C34444128   4.382   3.919   6.838 -0.4187  0.6000 -0.5775
   53MOL   C34544129   4.354   4.066   6.869  0.3763 -0.9141 -0.4835
   53MOL   C34644130   4.201   4.087   6.887 -0.1126  0.4241 -0.8768
   53MOL   C34744131   4.158   4.222   6.953  0.4262  0.4258 -0.1198
   53MOL   C34844132   4.020   4.262   6.896  0.4214  0.6595  1.1237
   53MOL   C34944133   3.905   4.183   6.972  0.3196 -0.0952  0.2473
   53MOL   C35044134   3.765   4.195   6.906  0.2111  0.3390  0.6389
   53MOL   C35144135   3.754   4.119   6.775  0.4122 -0.4182  0.2116
   53MOL   H35244136   4.948   3.575   6.701  0.3395  1.7141 -0.5583
   53MOL   H35344137   4.950   3.524   6.858 -0.1019  0.4873 -0.0990
   53MOL   H35444138   5.008   3.808   6.770 -0.8632  2.3422  1.9829
   53MOL   H35544139   4.791   3.876   6.805  0.7649 -0.1134  3.0954
   53MOL   H35644140   4.801   3.732   6.707 -1.4266 -0.7976  0.3330
   53MOL   H35744141   4.704   3.736   7.001  2.4131  2.0464 -0.9628
   53MOL   H35844142   4.720   3.598   6.906  2.2890 -0.5471  1.3909
   53MOL   H35944143   4.485   3.690   6.897 -0.3740  1.9467  0.7579
   53MOL   H36044144   4.556   3.694   6.735  2.2653  0.1109  0.4162
   53MOL   H36144145   4.568   3.935   6.928 -2.1163  1.6049 -0.2660
   53MOL   H36244146   4.582   3.941   6.761  0.5048  0.9621  0.9051
   53MOL   H36344147   4.345   3.902   6.737 -0.0006  0.5176 -0.7173
   53MOL   H36444148   4.317   3.863   6.906  2.1236 -1.8986 -0.1368
   53MOL   H36544149   4.403   4.093   6.962  1.5292  0.4417 -1.4677
   53MOL   H36644150   4.404   4.133   6.799 -3.0224 -0.0133 -2.1807
   53MOL   H36744151   4.150   4.069   6.793 -1.7465  0.5996 -0.0439
   53MOL   H36844152   4.168   4.012   6.959 -0.2854  1.3572  0.0366
   53MOL   H36944153   4.165   4.224   7.062  0.3267 -0.6361 -0.0883
   53MOL   H37044154   4.236   4.293   6.925  1.4206 -0.7392 -0.3418
   53MOL   H37144155   4.003   4.251   6.789  0.7569 -0.4716  1.1843
   53MOL   H37244156   4.002   4.366   6.924 -0.6150  0.7434  0.1637
   53MOL   H37344157   3.892   4.225   7.071  1.0911  1.0837 -0.1468
   53MOL   H37444158   3.933   4.078   6.982 -0.3450 -0.7156 -3.4306
   53MOL   H37544159   3.695   4.150   6.977  1.3890 -1.1750  0.8791
   53MOL   H37644160   3.739   4.300   6.900  0.0445  0.2661  0.0845
   53MOL   H37744161   3.754   4.013   6.800  2.3514 -0.3091  0.7778
   53MOL   H37844162   3.654   4.138   6.736  0.3425 -0.0296  0.5798
   53MOL   H37944163   3.817   4.142   6.689 -2.2702 -2.0350 -2.2689
   53MOL   C38044164   4.991   3.771   6.991 -0.3832  0.0584  0.4428
   53MOL   C38144165   4.941   3.907   7.054  0.4667  0.7004  0.5027
   53MOL   C38244166   4.961   3.893   7.208  0.4899 -0.1042  0.5442
   53MOL   C38344167   4.905   4.013   7.283 -0.5058  0.2271  0.0880
   53MOL   C38444168   4.911   4.005   7.435  0.0879 -0.6288 -0.4036
   53MOL   C38544169   4.812   3.906   7.508  0.1902  0.5486 -0.3883
   53MOL   C38644170   4.780   3.940   7.654  0.2831  0.0659 -0.4049
   53MOL   C38744171   4.669   3.864   0.019  0.1256  0.1714  0.3308
   53MOL   C38844172   4.683   3.713   7.693  1.0602 -0.0086 -1.1311
   53MOL   C38944173   4.576   3.616   0.065  0.1340 -0.1109 -0.3303
   53MOL   C39044174   4.441   3.630   0.002  0.0778 -0.3406  0.4488
   53MOL   C39144175   4.345   3.512   0.011  0.1256  0.6589  0.1031
   53MOL   C39244176   4.203   3.532   7.660  0.1908  0.1276  0.0970
   53MOL   C39344177   4.108   3.424   0.006  0.4703  1.0058  0.2083
   53MOL   H39444178   5.096   3.757   7.014 -0.3363  1.8697  1.4445
   53MOL   H39544179   4.952   3.691   7.055  0.6726 -1.0112 -0.2356
   53MOL   H39644180   4.836   3.926   7.031  0.5084  0.7124  0.3201
   53MOL   H39744181   5.068   3.891   7.224  0.6110 -1.6893 -0.4050
   53MOL   H39844182   4.931   3.798   7.251 -1.2652 -1.5925 -3.6724
   53MOL   H39944183   4.805   4.044   7.251  0.6877  1.3754 -2.6863
   53MOL   H40044184   4.968   4.101   7.267  0.9917 -0.7229  0.6529
   53MOL   H40144185   4.899   4.107   7.471  1.8275 -0.3429 -0.5997
   53MOL   H40244186   5.015   3.978   7.452  0.1129  0.3460  1.0803
   53MOL   H40344187   4.833   3.801   7.486  2.2151  0.8646  0.0350
   53MOL   H40444188   4.721   3.915   7.449  0.1079  1.8886 -0.0674
   53MOL   H40544189   4.873   3.922   0.012  0.2938 -1.0118 -0.7755
   53MOL   H40644190   4.764   4.046   7.669  1.1561  0.6900 -3.6096
   53MOL   H40744191   4.684   3.874   0.126 -0.6171 -2.9919  0.7847
   53MOL   H40844192   4.574   3.910   7.688  0.2208  0.9366  1.3023
   53MOL   H40944193   4.675   3.698   7.585 -1.5649  0.1689 -0.9957
   53MOL   H41044194   4.781   3.678   0.032  0.6980 -0.7036 -0.8012
   53MOL   H41144195   4.577   3.627   0.174  1.2513  1.9903 -0.5391
   53MOL   H41244196   4.605   3.511   0.053 -1.6709 -0.6888  0.1669
   53MOL   H41344197   4.396   3.715   0.052 -2.9430 -0.9725 -1.1214
   53MOL   H41444198   4.452   3.658   7.592  0.1818  1.9826  1.0509
   53MOL   H41544199   4.335   3.474   0.113 -0.5845 -0.4026 -0.3567
   53MOL   H41644200   4.388   3.436   7.641  0.9535  0.2273  1.1400
   53MOL   H41744201   4.159   3.625   0.001 -0.1936  0.1866 -0.5010
   53MOL   H41844202   4.211   3.527   7.551 -2.8943 -1.0410 -0.1270
   53MOL   H41944203   4.063   3.431   0.104 -0.1474  0.3386 -0.0288
   53MOL   H42044204   4.159   3.328   0.016  0.2506  0.7549 -0.9424
   53MOL   H42144205   4.023   3.423   7.633  2.0514 -0.0036 -1.7990
   53MOL   C42244206   5.032   4.032   7.006 -0.6146 -0.3491 -0.4244
   53MOL   C42344207   4.990   4.095   6.870 -0.1200 -0.2175  0.2279
   53MOL   C42444208   4.842   4.157   6.863  0.1571 -0.2497  0.4727
   53MOL   C42544209   4.820   4.268   6.966 -0.6535 -0.2315 -0.5104
   53MOL   C42644210   4.680   4.340   6.951 -0.5691  0.3101 -0.4081
   53MOL   C42744211   4.685   4.467   7.036 -0.2974  0.3689 -0.1047
   53MOL   C42844212   4.570   4.564   6.993  0.2410 -0.1370  0.3450
   53MOL   C42944213   4.563   4.687   7.088  0.0168 -0.4231 -0.0207
   53MOL   C43044214   4.440   4.772   7.065  0.2209  0.2789  0.1316
   53MOL   C43144215   4.319   4.733   7.150 -0.0490 -0.4135  0.4489
   53MOL   C43244216   4.187   4.808   7.100 -0.1023  0.4888 -0.0071
   53MOL   C43344217   4.057   4.739   7.163 -0.3910  0.6607  0.6633
   53MOL   C43444218   4.035   4.595   7.109  0.6159 -0.7637 -0.1877
   53MOL   C43544219   3.889   4.555   7.136 -0.2519  0.2776  0.3103
   53MOL   H43644220   5.133   3.991   7.006  0.4639  2.1782  0.2547
   53MOL   H43744221   5.042   4.114   7.077  0.4905 -2.2174  1.6416
   53MOL   H43844222   4.991   4.016   6.795 -1.5164 -1.3667  1.3847
   53MOL   H43944223   4.766   4.085   6.893 -0.8774  1.2955  1.6765
   53MOL   H44044224   4.817   4.195   6.764 -2.4397 -0.5918  0.9585
   53MOL   H44144225   4.821   4.223   7.065  2.1645  0.8322 -0.0041
   53MOL   H44244226   4.905   4.336   6.968  0.1954 -1.2218 -2.0576
   53MOL   H44344227   4.599   4.279   6.991  0.1422  0.5142  1.3559
   53MOL   H44444228   4.644   4.370   6.852 -0.8340 -1.5138 -0.8828
   53MOL   H44544229   4.778   4.522   7.022  0.3451 -0.4064  1.1181
   53MOL   H44644230   4.688   4.448   7.143  0.8904  0.6382 -0.0847
   53MOL   H44744231   4.586   4.603   6.893 -0.7711  0.8119  0.5383
   53MOL   H44844232   4.476   4.513   7.013 -0.7586  1.6459  0.3349
   53MOL   H44944233   4.577   4.655   7.191 -0.8375 -1.8916 -0.3468
   53MOL   H45044234   4.655   4.740   7.066 -0.6480  0.6212 -0.3037
   53MOL   H45144235   4.464   4.876   7.086 -1.3787  1.2179 -2.4811
   53MOL   H45244236   4.421   4.779   6.958 -0.7469  0.5707  0.3188
   53MOL   H45344237   4.302   4.625   7.141 -2.0037 -0.1821  0.9201
   53MOL   H45444238   4.328   4.750   7.257 -1.9432  1.7676  0.2902
   53MOL   H45544239   4.183   4.913   7.128  0.8609  0.7217 -0.7044
   53MOL   H45644240   4.173   4.798   6.992  0.8902 -1.8010  0.0576
   53MOL   H45744241   3.971   4.793   7.122 -1.8104 -1.8196  0.2873
   53MOL   H45844242   4.049   4.739   7.272  2.8778 -1.1942  0.9588
   53MOL   H45944243   4.062   4.579   7.005 -1.0456  1.3124 -0.9780
   53MOL   H46044244   4.094   4.528   7.170  0.9830  1.8221  2.4109
   53MOL   H46144245   3.874   4.567   7.243 -1.8853  2.1255 -0.0955
   53MOL   H46244246   3.891   4.449   7.114  0.2346  0.3025  0.2268
   53MOL   H46344247   3.817   4.606   7.071  0.2730 -0.7185 -1.0758
   53MOL   C46444248   5.085   4.195   6.811  0.6343 -0.2851  0.0491
   53MOL   C46544249   5.187   4.142   6.716  0.1127 -0.2867  0.3299
   53MOL   C46644250   5.243   4.244   6.613  0.5689 -0.6144 -0.3421
   53MOL   C46744251   5.130   4.318   6.528 -0.5311 -0.6577 -0.0055
   53MOL   C46844252   5.182   4.371   6.392  0.0659  0.4106  0.2956
   53MOL   C46944253   5.084   4.464   6.317 -0.5913  0.1915 -0.5944
   53MOL   C47044254   5.159   4.552   6.214  0.1384  0.2273  0.9832
   53MOL   C47144255   5.058   4.644   6.151 -0.0396  0.2825  0.3541
   53MOL   C47244256   5.123   4.728   6.038  0.2463 -0.5084 -1.0790
   53MOL   C47344257   5.032   4.838   5.979  0.4204 -1.0710  0.3930
   53MOL   C47444258   5.104   4.951   5.899  1.1110  0.0577 -0.7080
   53MOL   C47544259   5.105   4.917   5.749 -0.0863  0.7691 -0.9735
   53MOL   C47644260   5.189   5.026   5.674  0.1119  0.4332  0.5396
   53MOL   C47744261   5.195   4.994   5.523 -1.3607  1.0267 -0.5487
   53MOL   H47844262   5.136   4.248   6.892 -2.5734  1.1702  1.2384
   53MOL   H47944263   5.032   4.271   6.754  0.1326  0.0276  0.9124
   53MOL   H48044264   5.130   4.068   6.659 -1.2850  0.7883  0.3162
   53MOL   H48144265   5.316   4.305   6.665  1.1107 -0.9223 -0.7423
   53MOL   H48244266   5.300   4.186   6.540  0.9866 -1.2945  0.5248
   53MOL   H48344267   5.098   4.405   6.586  0.8156 -1.4940  2.0004
   53MOL   H48444268   5.056   4.239   6.516  0.2209 -1.4355  0.4162
   53MOL   H48544269   5.207   4.289   6.326 -0.9374  1.8369 -1.9343
   53MOL   H48644270   5.278   4.420   6.407  1.0050 -0.7269 -1.8984
   53MOL   H48744271   5.011   4.409   6.258 -0.3143 -0.9875  0.1483
   53MOL   H48844272   5.031   4.527   6.388  0.0285  0.2687 -0.1939
   53MOL   H48944273   5.244   4.595   6.267 -0.4306  0.1377  1.9801
   53MOL   H49044274   5.192   4.484   6.135 -0.6453  0.1269  0.7331
   53MOL   H49144275   4.980   4.585   6.102 -0.8721  1.1828  0.5564
   53MOL   H49244276   5.003   4.700   6.227 -1.7532  0.6927 -1.1458
   53MOL   H49344277   5.208   4.783   6.080 -0.7857  0.3682 -0.1059
   53MOL   H49444278   5.169   4.666   5.961  1.5617 -0.2888 -0.4873
   53MOL   H49544279   4.969   4.784   5.908 -0.2333 -2.4902  2.0364
   53MOL   H49644280   4.969   4.885   6.055 -1.7748 -4.1078  0.5636
   53MOL   H49744281   5.044   5.040   5.915  1.8825  0.2347  1.3454
   53MOL   H49844282   5.198   4.977   5.948  1.3116 -0.2078 -0.9466
   53MOL   H49944283   5.003   4.901   5.712  0.5474 -2.9484 -1.2903
   53MOL   H50044284   5.153   4.820   5.736 -0.1844  0.3700  1.4736
   53MOL   H50144285   5.145   5.125   5.667  2.4829  1.3848 -2.2493
   53MOL   H50244286   5.291   5.034   5.711  0.0886 -1.6080  1.0931
   53MOL   H50344287   5.095   4.985   5.480 -1.8474  1.4945  0.4616
   53MOL   H50444288   5.240   5.077   5.469  0.6399  1.3753  1.6054
   53MOL   H50544289   5.245   4.900   5.497 -3.1673 -0.3191  0.6836
   53MOL   C50644290   5.300   4.059   6.781  0.3058  0.0640  0.1493
   53MOL   C50744291   5.404   4.142   6.863 -0.0545  0.1598 -0.1406
   53MOL   C50844292   5.373   4.125   7.017 -0.2516 -0.2318  0.2934
   53MOL   C50944293   5.391   3.988   7.091 -0.3313 -0.0229 -0.8362
   53MOL   C51044294   5.380   3.997   7.246  0.1725 -0.1114  0.0869
   53MOL   C51144295   5.463   3.886   7.313 -0.2564  0.1395 -0.4556
   53MOL   C51244296   5.425   3.865   7.457  0.1379 -0.1786  0.4290
   53MOL   C51344297   5.319   3.756   7.467 -0.8719  0.3653 -0.5043
   53MOL   C51444298   5.286   3.713   7.616  0.0694 -0.0606  0.1867
   53MOL   C51544299   5.193   3.585   7.630  0.1141  0.2843 -0.1894
   53MOL   C51644300   5.203   3.525   0.075  0.0209 -0.8005 -0.5755
   53MOL   C51744301   5.110   3.404   0.100  0.5504 -0.0705 -0.2656
   53MOL   C51844302   4.972   3.459   0.130  0.3566  0.0278 -0.7403
   53MOL   C51944303   4.868   3.336   0.136  0.3105  0.4389  0.8390
   53MOL   H52044304   5.367   4.003   6.716  0.3865 -1.8900  1.8505
   53MOL   H52144305   5.253   3.982   6.842 -1.1838  0.0542 -0.9813
   53MOL   H52244306   5.383   4.248   6.856 -0.2555  0.0456 -1.4578
   53MOL   H52344307   5.415   4.205   7.078 -1.1015  0.7654 -0.4189
   53MOL   H52444308   5.268   4.155   7.021 -1.0173 -2.5640 -1.3964
   53MOL   H52544309   5.333   3.903   7.053 -1.1079 -0.2606  0.7977
   53MOL   H52644310   5.498   3.971   7.084  0.2620  2.4911  1.3222
   53MOL   H52744311   5.279   3.969   7.277  0.9209 -0.0145  2.7735
   53MOL   H52844312   5.410   4.098   7.275  2.8563 -1.4175  2.0474
   53MOL   H52944313   5.565   3.922   7.320 -0.8848  1.5474  1.8810
   53MOL   H53044314   5.458   3.793   7.256 -0.8683 -0.0413 -0.1141
   53MOL   H53144315   5.508   3.840   7.523 -0.5393  0.3685  1.5105
   53MOL   H53244316   5.380   3.957   7.494  2.2903  0.3391  1.8570
   53MOL   H53344317   5.359   3.672   7.411  1.7313  1.0947  0.1906
   53MOL   H53444318   5.225   3.787   7.422  0.2613 -0.6127 -3.6762
   53MOL   H53544319   5.240   3.797   7.667 -1.0917 -2.0379  2.4830
   53MOL   H53644320   5.384   3.707   7.663  0.3004 -3.8966 -0.6143
   53MOL   H53744321   5.090   3.607   7.604  0.2123  1.5316  0.4300
   53MOL   H53844322   5.234   3.503   7.572 -1.7975 -0.3359 -0.6648
   53MOL   H53944323   5.308   3.502   0.091  0.1695  1.2957  1.7955
   53MOL   H54044324   5.177   3.590   0.159  0.0419  1.2459 -2.0883
   53MOL   H54144325   5.142   3.356   0.193 -1.2404  0.6029  0.7123
   53MOL   H54244326   5.112   3.327   0.023  0.7498 -0.1819 -0.1499
   53MOL   H54344327   4.940   3.527   0.051 -1.7168  0.7515  0.7032
   53MOL   H54444328   4.975   3.515   0.223  0.7195  3.2125 -2.5826
   53MOL   H54544329   4.763   3.357   0.153  0.4826  1.0118  1.1891
   53MOL   H54644330   4.880   3.276   0.045  1.3618 -0.1307  1.3379
   53MOL   H54744331   4.910   3.276   0.216  0.4052  1.0516  1.2483
   53MOL   C54844332   5.556   4.119   6.852  0.5658  0.0635 -0.2171
   53MOL   C54944333   5.622   4.153   6.716  0.2364 -0.0662 -0.1440
   53MOL   C55044334   5.637   4.308   6.697 -0.2657  0.5182  1.0449
   53MOL   C55144335   5.637   4.344   6.543 -0.4814 -0.3601 -0.2396
   53MOL   C55244336   5.632   4.491   6.504 -0.7176  0.1470 -0.2018
   53MOL   C55344337   5.624   4.503   6.352  0.2423  0.9144  0.4083
   53MOL   C55444338   5.552   4.627   6.299 -0.2421  0.8740 -0.6369
   53MOL   C55544339   5.575   4.632   6.145  0.0734  0.0117  0.3182
   53MOL   C55644340   5.573   4.769   6.095 -0.2592  0.7471  0.6629
   53MOL   C55744341   5.575   4.785   5.943  0.5634  0.3748 -1.0132
   53MOL   C55844342   5.558   4.928   5.893 -0.3787  0.2835 -0.4019
   53MOL   C55944343   5.632   4.950   5.770 -0.0559 -0.2113 -0.0766
   53MOL   C56044344   5.595   4.867   5.650  0.1159  0.6786  0.5593
   53MOL   C56144345   5.707   4.787   5.580  0.3222  0.4830  0.0780
   53MOL   H56244346   5.614   4.171   6.928  0.5332 -1.2250  0.7093
   53MOL   H56344347   5.568   4.014   6.879 -0.0607 -0.3363 -1.4625
   53MOL   H56444348   5.553   4.120   6.639 -0.6122  0.0692  0.5554
   53MOL   H56544349   5.557   4.362   6.747 -1.7145  0.0875 -0.7568
   53MOL   H56644350   5.730   4.342   6.742  0.2580  1.2857 -0.6083
   53MOL   H56744351   5.543   4.313   6.497 -1.3019  0.5206  0.8311
   53MOL   H56844352   5.724   4.294   6.500 -1.3655 -1.5012 -0.7452
   53MOL   H56944353   5.539   4.527   6.548 -0.9057 -0.1171 -0.3842
   53MOL   H57044354   5.704   4.556   6.555 -0.5918 -0.6061  0.5738
   53MOL   H57144355   5.572   4.421   6.303  2.1461 -0.5126  0.7704
   53MOL   H57244356   5.724   4.498   6.309 -0.5813 -3.1079 -1.2431
   53MOL   H57344357   5.450   4.642   6.332 -0.1037 -0.6096  0.5159
   53MOL   H57444358   5.598   4.717   6.341 -1.6616  0.3045  2.2539
   53MOL   H57544359   5.508   4.564   6.093 -0.0804  0.2726  0.1730
   53MOL   H57644360   5.675   4.597   6.119  1.2068  2.0769  1.7765
   53MOL   H57744361   5.667   4.816   6.124 -1.1931  3.3806 -0.4294
   53MOL   H57844362   5.484   4.820   6.131 -2.0032 -0.8291 -1.3371
   53MOL   H57944363   5.670   4.741   5.913  0.9980  0.8188 -0.2857
   53MOL   H58044364   5.499   4.721   5.898 -0.9365  2.1951 -1.1495
   53MOL   H58144365   5.600   4.997   5.965 -0.5482  0.4354 -0.4491
   53MOL   H58244366   5.452   4.950   5.885 -0.3705  0.3298 -0.3709
   53MOL   H58344367   5.639   5.053   5.734 -2.8429  0.4150  1.0430
   53MOL   H58444368   5.733   4.919   5.798  0.7633  0.3399 -2.2722
   53MOL   H58544369   5.519   4.791   5.671  1.6506 -1.4198 -1.1481
   53MOL   H58644370   5.560   4.939   5.577 -0.4716 -1.7559 -1.6543
   53MOL   H58744371   5.677   4.727   5.494  2.8944 -0.7622 -0.0038
   53MOL   H58844372   5.795   4.850   5.568 -0.0342  0.9712  0.0315
   53MOL   H58944373   5.755   4.715   5.647 -1.0661  0.6604  1.2920
   53MOL   C59044374   5.757   4.078   6.711  0.1037  0.0999 -0.2524
   53MOL   C59144375   5.748   3.918   6.700 -0.3168  0.0428  0.1806
   53MOL   C59244376   5.763   3.866   6.546 -0.1379 -0.4444  0.3370
   53MOL   C59344377   5.672   3.947   6.452  0.3091  0.4512  0.0208
   53MOL   C59444378   5.667   3.887   6.304 -0.1514  0.0244  0.1927
   53MOL   C59544379   5.573   3.961   6.201 -0.6601  0.2487 -0.3006
   53MOL   C59644380   5.607   4.109   6.178 -0.8597  0.6423 -0.1626
   53MOL   C59744381   5.751   4.128   6.120  1.1523  0.1778 -0.3143
   53MOL   C59844382   5.755   4.264   6.052  0.2797  0.3121  0.0513
   53MOL   C59944383   5.891   4.306   5.994  0.4435  0.1800  0.0044
   53MOL   C60044384   5.890   4.441   5.923 -0.6290 -0.5787  0.0093
   53MOL   C60144385   6.034   4.494   5.913 -1.0916  0.7101 -0.1113
   53MOL   C60244386   6.031   4.623   5.839 -0.8775  0.1155 -0.3103
   53MOL   C60344387   6.162   4.652   5.760  0.3996  0.2286 -0.0523
   53MOL   H60444388   5.798   4.107   6.807 -0.1861 -0.2180 -0.0341
   53MOL   H60544389   5.822   4.113   6.631  1.6120  0.3456  1.0675
   53MOL   H60644390   5.650   3.889   6.737 -0.4532 -0.9399 -0.9050
   53MOL   H60744391   5.737   3.760   6.538 -1.6493 -0.0862  0.3085
   53MOL   H60844392   5.866   3.883   6.514  0.1397 -0.2514  1.3007
   53MOL   H60944393   5.701   4.052   6.447  0.5559  0.4053  0.4523
   53MOL   H61044394   5.574   3.947   6.500 -1.8312 -0.8651 -4.0710
   53MOL   H61144395   5.642   3.781   6.299  0.2258 -0.0462 -0.2263
   53MOL   H61244396   5.767   3.897   6.262 -0.7410  3.5448 -0.5753
   53MOL   H61344397   5.474   3.971   6.244 -0.5812 -1.5194  0.3592
   53MOL   H61444398   5.565   3.907   6.106 -0.5034 -0.8360  0.2874
   53MOL   H61544399   5.532   4.135   6.103  0.0115  0.6445 -1.0277
   53MOL   H61644400   5.598   4.173   6.266 -0.4949 -2.2747  2.0765
   53MOL   H61744401   5.837   4.113   6.186 -0.8316 -0.4708  2.2092
   53MOL   H61844402   5.770   4.058   6.040 -1.9683 -0.0964 -0.8925
   53MOL   H61944403   5.673   4.269   5.980 -0.9844 -1.5157  1.3070
   53MOL   H62044404   5.744   4.338   6.131 -0.1212  2.1413 -1.6947
   53MOL   H62144405   5.952   4.318   6.083  0.9672 -0.2300 -0.2923
   53MOL   H62244406   5.926   4.228   5.926  0.6103 -0.9143  1.3166
   53MOL   H62344407   5.827   4.514   5.973 -0.2439  1.7469 -2.7581
   53MOL   H62444408   5.847   4.429   5.824  1.0924 -2.5694 -0.5493
   53MOL   H62544409   6.079   4.411   5.859 -0.4368  0.2896  1.0697
   53MOL   H62644410   6.073   4.506   6.014 -0.4156  1.2362 -0.4282
   53MOL   H62744411   5.947   4.617   5.769  0.0313 -1.5087 -1.2851
   53MOL   H62844412   6.008   4.706   5.905 -0.3891 -0.2252  0.2932
   53MOL   H62944413   6.158   4.740   5.696 -0.3406 -0.1993 -0.5812
   53MOL   H63044414   6.207   4.566   5.710  1.0136 -0.4007  1.5424
   53MOL   H63144415   6.233   4.680   5.838  1.2641  0.6977 -0.9946
   53MOL   C63244416   5.856   3.845   6.783  0.0304  0.0283  0.7273
   53MOL   C63344417   5.835   3.859   6.938  0.4543  0.5479 -0.4268
   53MOL   C63444418   5.811   3.717   6.998 -0.5371 -0.4486 -0.3104
   53MOL   C63544419   5.664   3.673   6.955 -0.3775  0.0431  0.2736
   53MOL   C63644420   5.627   3.532   6.988  0.4000 -0.9362 -0.2561
   53MOL   C63744421   5.576   3.510   7.132 -0.4883 -0.1677 -0.0393
   53MOL   C63844422   5.549   3.365   7.151 -0.0124  0.2124  0.7197
   53MOL   C63944423   5.499   3.349   7.296 -0.4737 -0.2144 -0.1600
   53MOL   C64044424   5.474   3.209   7.343 -0.0674  0.2498 -0.2443
   53MOL   C64144425   5.341   3.160   7.292 -0.4097  0.6363  0.2492
   53MOL   C64244426   5.295   3.019   7.339  0.1740 -0.6732  0.1774
   53MOL   C64344427   5.148   2.971   7.314 -0.2302  0.1497  0.5959
   53MOL   C64444428   5.056   3.051   7.408 -0.8013 -0.2026 -0.5064
   53MOL   C64544429   4.909   2.997   7.404 -0.2443  0.6915  0.1067
   53MOL   H64644430   5.954   3.877   6.747 -0.2525 -1.0395 -1.0536
   53MOL   H64744431   5.860   3.742   6.748 -1.0579 -0.2093  1.2827
   53MOL   H64844432   5.748   3.921   6.959 -0.2142 -0.4638 -0.1368
   53MOL   H64944433   5.884   3.637   6.984 -0.7802 -0.7052 -0.1078
   53MOL   H65044434   5.792   3.726   7.105 -0.9566 -2.2164 -0.2292
   53MOL   H65144435   5.643   3.684   6.849  3.7677  0.6913 -0.5733
   53MOL   H65244436   5.590   3.747   6.988  0.5144 -0.2332  3.0485
   53MOL   H65344437   5.714   3.471   6.966  1.4871  0.3238  0.4350
   53MOL   H65444438   5.540   3.502   6.929 -0.1656 -2.4711  1.3192
   53MOL   H65544439   5.651   3.545   7.203 -0.2248  0.4167 -0.6005
   53MOL   H65644440   5.478   3.552   7.156  0.9114  2.3063  1.6472
   53MOL   H65744441   5.474   3.333   7.079  1.7482 -2.0447 -0.1685
   53MOL   H65844442   5.634   3.298   7.138 -0.2812  0.1017 -0.5177
   53MOL   H65944443   5.406   3.405   7.305  0.5575  1.2216  1.9513
   53MOL   H66044444   5.573   3.390   7.364  1.1996 -4.4450  0.7535
   53MOL   H66144445   5.486   3.200   7.451 -0.1646  2.5599 -0.0160
   53MOL   H66244446   5.555   3.141   7.320  0.2195  0.8744 -1.1066
   53MOL   H66344447   5.261   3.227   7.326 -0.9207  0.1286  0.0606
   53MOL   H66444448   5.356   3.152   7.184 -1.9155 -0.8359  0.1222
   53MOL   H66544449   5.360   2.959   7.277  0.4157  1.5015 -1.7304
   53MOL   H66644450   5.321   3.008   7.444 -1.0382  0.4252  0.6155
   53MOL   H66744451   5.124   2.865   7.328 -1.0260  0.0887 -1.1478
   53MOL   H66844452   5.125   2.998   7.211 -2.5453 -1.2449  0.7099
   53MOL   H66944453   5.053   3.151   7.363 -0.3146  0.6324  1.2879
   53MOL   H67044454   5.092   3.047   7.510  0.8423 -1.5085 -1.1073
   53MOL   H67144455   4.838   3.022   7.326  0.1276 -1.1747 -0.8613
   53MOL   H67244456   4.918   2.889   7.421  0.9955  1.0461  1.8697
   53MOL   H67344457   4.862   3.034   7.495 -0.3005  1.9140 -0.4226
   53MOL   C67444458   5.959   3.930   6.986 -0.8523 -0.1539 -0.7276
   53MOL   C67544459   5.936   4.004   7.125 -0.2875 -1.0084  0.3955
   53MOL   C67644460   6.078   4.052   7.162 -0.7828 -0.0079 -0.0116
   53MOL   C67744461   6.122   4.177   7.082 -1.0370  0.1081 -0.1981
   53MOL   C67844462   6.255   4.244   7.119  0.4212 -0.7663  0.4078
   53MOL   C67944463   6.276   4.299   7.261  0.7810 -0.2266 -0.6686
   53MOL   C68044464   6.425   4.330   7.287 -0.4958  0.0847 -0.2479
   53MOL   C68144465   6.452   4.427   7.404 -0.5360  0.2046 -0.4287
   53MOL   C68244466   6.610   4.433   7.431  0.3949  0.3187  0.6681
   53MOL   C68344467   6.645   4.504   7.554 -0.3015 -0.6599 -0.6240
   53MOL   C68444468   6.594   4.648   7.576  0.4340 -0.4921  0.1716
   53MOL   C68544469   6.648   4.732   7.459  0.0579 -0.2050 -0.0429
   53MOL   C68644470   6.612   4.882   7.479 -0.3716 -0.2721 -0.0876
   53MOL   C68744471   6.710   4.975   7.397 -1.0585 -0.2560  0.6777
   53MOL   H68844472   5.989   4.007   6.915 -1.9481 -0.2059 -1.2588
   53MOL   H68944473   6.041   3.858   6.995 -0.4601  0.4204  0.3163
   53MOL   H69044474   5.882   3.930   7.185 -1.5860  0.0773  0.6043
   53MOL   H69144475   6.081   4.078   7.268 -0.4617 -2.7751  0.6844
   53MOL   H69244476   6.157   3.979   7.146 -2.6726 -2.1661  0.2883
   53MOL   H69344477   6.129   4.157   6.975  1.6084  1.0993 -0.2669
   53MOL   H69444478   6.046   4.251   7.104  0.0028  0.4224  2.5720
   53MOL   H69544479   6.340   4.179   7.099  0.2005 -0.9962  0.2196
   53MOL   H69644480   6.282   4.326   7.052  2.5324 -0.8038  1.1660
   53MOL   H69744481   6.226   4.396   7.271 -1.2965 -1.5211  1.9352
   53MOL   H69844482   6.228   4.245   7.342 -0.2467  2.6513  0.7045
   53MOL   H69944483   6.467   4.232   7.311  0.1622 -0.0127 -1.7948
   53MOL   H70044484   6.467   4.368   7.194 -1.1895 -0.0052 -0.6025
   53MOL   H70144485   6.425   4.526   7.367 -0.5294  0.7143  0.9296
   53MOL   H70244486   6.411   4.387   7.496 -2.1624  0.0577 -1.1947
   53MOL   H70344487   6.658   4.335   7.441  1.8022  1.2211  3.5370
   53MOL   H70444488   6.651   4.485   7.345  1.1238 -1.3745 -0.0320
   53MOL   H70544489   6.752   4.505   7.578 -0.5675 -1.3557  0.6499
   53MOL   H70644490   6.602   4.445   7.635  0.7255  0.6284  0.9126
   53MOL   H70744491   6.635   4.685   7.669  0.4524 -1.8881  0.7305
   53MOL   H70844492   6.485   4.650   7.585  0.3770  0.3682 -0.6315
   53MOL   H70944493   6.617   4.697   7.361  1.2414  1.3041 -0.9716
   53MOL   H71044494   6.755   4.714   7.468 -0.1805 -2.3217 -1.2554
   53MOL   H71144495   6.511   4.914   7.455 -0.1984  1.8956  1.8986
   53MOL   H71244496   6.621   4.909   7.584 -0.1974 -3.1405  0.6651
   53MOL   H71344497   6.671   4.976   7.295  0.4705 -0.9530  0.0727
   53MOL   H71444498   6.712   5.076   7.436  0.8949  0.6175 -1.5280
   53MOL   H71544499   6.811   4.933   7.403 -0.5454  0.6700 -1.0043
   53MOL   C71644500   5.825   4.109   7.130  0.0186 -0.1390  0.5763
   53MOL   C71744501   5.831   4.201   7.264  0.3402 -0.8779 -0.0654
   53MOL   C71844502   5.734   4.322   7.261 -0.1561 -0.1539  0.1022
   53MOL   C71944503   5.805   4.455   7.198 -0.6467  0.3034  0.1404
   53MOL   C72044504   5.707   4.568   7.164  0.3208  0.1629  0.1807
   53MOL   C72144505   5.658   4.650   7.283 -1.0657  0.2814  0.4587
   53MOL   C72244506   5.581   4.774   7.247  0.0547 -0.5511  0.0625
   53MOL   C72344507   5.507   4.840   7.362  0.0392 -0.2252 -1.0494
   53MOL   C72444508   5.404   4.944   7.319 -0.1064  0.0488  0.3818
   53MOL   C72544509   5.337   5.014   7.432  0.1289  0.1670  0.1405
   53MOL   C72644510   5.209   5.097   7.388  0.4387  0.2749 -0.0858
   53MOL   C72744511   5.175   5.212   7.490  0.3333 -0.3800  0.7479
   53MOL   C72844512   5.047   5.279   7.444  0.6726  0.1313 -0.9193
   53MOL   C72944513   5.034   5.337   7.302 -0.2180 -0.1614  0.1409
   53MOL   H73044514   5.830   4.178   7.045 -2.4228 -2.0023 -1.1551
   53MOL   H73144515   5.728   4.060   7.123 -1.2564  2.0757  1.8945
   53MOL   H73244516   5.931   4.241   7.277 -1.0539  2.6152  0.5696
   53MOL   H73344517   5.684   4.337   7.357 -0.0359  2.2682 -0.1717
   53MOL   H73444518   5.661   4.290   7.187 -0.5771  1.1797 -0.0790
   53MOL   H73544519   5.889   4.484   7.261 -0.1209  0.7396 -0.7526
   53MOL   H73644520   5.841   4.438   7.097 -0.1646  4.1581 -0.4185
   53MOL   H73744521   5.754   4.638   7.095 -0.0393  0.9293  0.6958
   53MOL   H73844522   5.621   4.526   7.111  1.1027  0.3250 -1.2235
   53MOL   H73944523   5.610   4.585   7.356 -0.3317 -2.1055 -1.1136
   53MOL   H74044524   5.755   4.686   7.316 -0.2642 -0.1430 -1.3703
   53MOL   H74144525   5.640   4.846   7.189  0.0004 -1.8621 -1.6715
   53MOL   H74244526   5.505   4.742   7.176  0.8492 -0.2992 -0.9228
   53MOL   H74344527   5.586   4.890   7.419 -0.2226 -2.2125  1.1598
   53MOL   H74444528   5.466   4.764   7.430 -2.4913  1.0945 -1.0497
   53MOL   H74544529   5.463   5.013   7.258 -0.6749  0.0404 -0.1836
   53MOL   H74644530   5.331   4.901   7.250 -0.0153  2.1586 -1.0656
   53MOL   H74744531   5.306   4.946   7.512  0.0940 -1.3422 -1.1397
   53MOL   H74844532   5.409   5.064   7.497  2.5409 -3.0272  0.0664
   53MOL   H74944533   5.235   5.130   7.287  0.6065 -0.3429 -0.2495
   53MOL   H75044534   5.131   5.023   7.371  0.2122  0.0329  1.9022
   53MOL   H75144535   5.175   5.173   7.592  2.2653  0.1801  0.9745
   53MOL   H75244536   5.264   5.275   7.488 -0.0585  0.1919  1.1806
   53MOL   H75344537   5.018   5.357   7.515 -0.2457  0.9046 -2.1044
   53MOL   H75444538   4.966   5.208   7.460  1.2442  0.0621  1.8863
   53MOL   H75544539   5.011   5.260   7.229 -0.7615 -0.0168  0.1526
   53MOL   H75644540   5.119   5.390   7.260  0.9459 -1.2292  1.1288
   53MOL   H75744541   4.942   5.392   7.282  0.4611  0.5900 -0.9763
   53MOL   C75844542   5.792   4.114   7.392  0.8364  0.0115  0.7225
   53MOL   C75944543   5.830   4.168   7.535  0.1886  0.0744 -0.7410
   53MOL   C76044544   5.739   4.094   7.649  0.5687  0.1776 -0.2059
   53MOL   C76144545   5.598   4.157   7.682 -0.1573 -0.0524 -0.0528
   53MOL   C76244546   5.601   4.259   0.098  0.0045 -0.5811 -0.5273
   53MOL   C76344547   5.639   4.395   0.052 -0.6905 -0.6001 -0.4284
   53MOL   C76444548   5.608   4.499   0.161  0.2790  0.1940 -0.0792
   53MOL   C76544549   5.659   4.643   0.113  0.3858  0.3645 -0.7154
   53MOL   C76644550   5.638   4.757   0.216 -0.1876  0.1149 -0.3263
   53MOL   C76744551   5.696   4.888   0.163  0.4309  0.1881  0.2011
   53MOL   C76844552   5.725   4.993   0.271 -0.2158  0.4000  0.1827
   53MOL   C76944553   5.606   5.025   0.363  0.3134  0.3562  0.0303
   53MOL   C77044554   5.618   5.150   0.444  0.1029 -0.3730 -0.0456
   53MOL   C77144555   5.701   5.141   0.568  0.1871 -0.4081 -0.4790
   53MOL   H77244556   5.685   4.095   7.401  1.0606 -2.1039 -0.6963
   53MOL   H77344557   5.829   4.012   7.383 -2.8587 -1.3844  0.5117
   53MOL   H77444558   5.809   4.275   7.537 -0.1435  0.0172 -1.2043
   53MOL   H77544559   5.710   3.992   7.624 -3.1575  0.9738  0.6309
   53MOL   H77644560   5.796   4.085   0.046 -0.2281 -1.0477  0.1721
   53MOL   H77744561   5.550   4.209   7.599  1.1576 -0.8688 -1.3374
   53MOL   H77844562   5.537   4.074   0.024  0.3968  0.7072  2.6367
   53MOL   H77944563   5.664   4.223   0.179 -0.1336 -0.2786 -0.2825
   53MOL   H78044564   5.506   4.255   0.152  0.0231 -0.7059 -0.5048
   53MOL   H78144565   5.586   4.426   7.658  0.0905  1.0664 -0.3328
   53MOL   H78244566   5.742   4.410   0.019 -0.7792  0.6806 -0.1623
   53MOL   H78344567   5.500   4.498   0.170  0.4581  0.6116  2.2431
   53MOL   H78444568   5.639   4.474   0.262  1.9732  0.9851 -0.3891
   53MOL   H78544569   5.615   4.667   0.016  1.5980  4.1773 -0.3941
   53MOL   H78644570   5.765   4.623   0.101  0.3515  0.3256 -0.9475
   53MOL   H78744571   5.688   4.735   0.310  1.4103  0.2885 -1.1167
   53MOL   H78844572   5.533   4.777   0.235 -0.3116 -1.2423  0.5010
   53MOL   H78944573   5.641   4.929   0.078 -2.2491 -2.7981  0.3772
   53MOL   H79044574   5.787   4.860   0.110 -0.7317 -1.7098 -0.8515
   53MOL   H79144575   5.809   4.958   0.332 -2.0974 -2.7060  1.0855
   53MOL   H79244576   5.761   5.078   0.213  0.4722 -0.3171 -0.4569
   53MOL   H79344577   5.523   5.049   0.296 -0.5005 -0.8291  0.5975
   53MOL   H79444578   5.565   4.944   0.424  1.0709  1.0801  1.4967
   53MOL   H79544579   5.669   5.221   0.378  0.2973  1.2388  1.7874
   53MOL   H79644580   5.526   5.205   0.464 -0.3393 -0.9673 -0.4605
   53MOL   H79744581   5.673   5.066   0.642  1.6966 -1.5793 -1.0625
   53MOL   H79844582   5.805   5.117   0.544  0.4277  2.0958 -1.9965
   53MOL   H79944583   5.707   5.239   0.615 -2.0423  0.4366 -1.8953
   53MOL   C80044584   5.979   4.159   7.571  0.0038  0.5972  0.3589
   53MOL   C80144585   6.010   4.258   7.686 -0.1384 -0.0871  0.0959
   53MOL   C80244586   6.144   4.328   7.672 -0.4506  0.2812 -0.1037
   53MOL   C80344587   6.168   4.431   0.088 -0.1117 -0.8186  0.0782
   53MOL   C80444588   6.284   4.528   0.046  0.3292  0.3871  0.9126
   53MOL   C80544589   6.323   4.634   0.150  0.2543 -0.0424  0.3616
   53MOL   C80644590   6.208   4.734   0.169 -0.6215 -0.0302 -0.2858
   53MOL   C80744591   6.194   4.851   0.069  0.0208 -0.0716 -0.1766
   53MOL   C80844592   6.322   4.937   0.046  0.3515  0.0004  0.0764
   53MOL   C80944593   6.282   5.080   7.692 -0.2300  0.3803  0.3478
   53MOL   C81044594   6.399   5.176   7.674 -0.3105  0.2367  0.7038
   53MOL   C81144595   6.362   5.317   7.616  1.0699  0.2756 -0.0916
   53MOL   C81244596   6.368   5.333   7.467  0.0267 -0.9436 -0.2993
   53MOL   C81344597   6.352   5.475   7.419  0.2635  0.4899 -0.3525
   53MOL   H81444598   6.040   4.192   7.486  0.9997 -0.6068  0.5910
   53MOL   H81544599   6.025   4.062   7.593 -0.5334 -0.4476 -2.9002
   53MOL   H81644600   6.002   4.202   0.083 -1.9196 -0.8589 -0.4899
   53MOL   H81744601   6.138   4.381   7.577 -2.4425 -0.1213 -0.2380
   53MOL   H81844602   6.230   4.262   7.665 -2.0191 -1.8164 -0.1543
   53MOL   H81944603   6.198   4.378   0.178 -1.2272  2.3430  2.4461
   53MOL   H82044604   6.082   4.486   0.129  0.9322  1.6611 -0.9284
   53MOL   H82144605   6.371   4.462   0.034  0.0482  0.3164 -0.9318
   53MOL   H82244606   6.274   4.572   7.642  0.2623  0.4452  0.9440
   53MOL   H82344607   6.411   4.686   0.113 -0.8704  0.2375 -2.0782
   53MOL   H82444608   6.353   4.587   0.243  2.3967  0.2891 -0.1492
   53MOL   H82544609   6.112   4.683   0.164 -0.4882 -0.5056  1.4146
   53MOL   H82644610   6.215   4.778   0.269  0.3274  1.6512 -1.0794
   53MOL   H82744611   6.150   4.820   7.670 -0.2414 -0.9662  0.2412
   53MOL   H82844612   6.112   4.915   0.103 -0.2231 -1.2001  1.4038
   53MOL   H82944613   6.372   4.952   0.142  1.6989 -1.7375 -0.3319
   53MOL   H83044614   6.395   4.892   7.675  0.3043  0.1007 -0.0427
   53MOL   H83144615   6.199   5.118   0.057  0.3927  0.6382  1.0484
   53MOL   H83244616   6.253   5.072   7.587  1.6672  2.8122 -0.4152
   53MOL   H83344617   6.440   5.197   0.077  1.1542 -0.1399  0.1894
   53MOL   H83444618   6.479   5.132   7.614 -0.3048  0.0481  0.8516
   53MOL   H83544619   6.421   5.399   7.657  1.9472  0.0461 -0.9060
   53MOL   H83644620   6.264   5.345   7.655  0.1064 -1.5264 -1.1995
   53MOL   H83744621   6.456   5.292   7.418 -0.2817 -1.6817 -0.2416
   53MOL   H83844622   6.293   5.267   7.423 -1.6606 -0.5034  1.7901
   53MOL   H83944623   6.365   5.489   7.312 -1.8799  1.7309 -0.4685
   53MOL   H84044624   6.258   5.514   7.459 -0.1635 -0.4106 -0.4647
   53MOL   H84144625   6.424   5.540   7.468  2.4106 -1.0162 -1.4124
   53MOL   H84244626   5.929   4.331   7.691  1.1481  1.4727 -1.0093
   54MOL     C144627   0.476   6.221   6.636  0.6322 -0.0886 -0.0866
   54MOL     C244628   0.410   6.134   6.524 -0.4181  0.4400 -0.0160
   54MOL     C344629   0.504   6.012   6.500 -0.8161  0.3819 -0.1810
   54MOL     C444630   0.646   6.045   6.455 -0.1857 -0.1649  0.0209
   54MOL     C544631   0.735   5.928   6.418 -0.0764  0.3798 -0.7728
   54MOL     C644632   0.860   5.953   6.343 -0.0644  0.0693  0.2419
   54MOL     C744633   0.979   6.009   6.418 -0.0140  0.0935 -0.3302
   54MOL     C844634   1.090   6.057   6.313  0.4950 -0.7088 -0.5237
   54MOL     C944635   1.216   6.106   6.386 -0.0396  0.3703  0.1163
   54MOL    C1044636   1.337   6.136   6.286 -0.2069  0.7849 -0.2938
   54MOL    C1144637   1.479   6.151   6.351  0.0666  0.1123  0.0806
   54MOL    C1244638   1.482   6.257   6.463 -0.9089 -0.0389  0.5154
   54MOL    C1344639   1.624   6.262   6.520 -0.3567 -0.7566  0.5730
   54MOL    C1444640   1.655   6.359   6.627 -0.6314 -0.2099 -0.8283
   54MOL    H1544641   0.420   6.306   6.675  2.2886  0.2670  1.6367
   54MOL    H1644642   0.567   6.272   6.602  0.5171 -0.6560 -1.2906
   54MOL    H1744643   0.402   6.193   6.432  1.8225  2.5684  1.0798
   54MOL    H1844644   0.507   5.959   6.595 -0.1353 -0.6478 -0.7690
   54MOL    H1944645   0.455   5.944   6.430 -2.2956  0.8244  0.4105
   54MOL    H2044646   0.696   6.098   6.536 -1.5191  0.9658  0.1165
   54MOL    H2144647   0.640   6.118   6.373  0.6683  0.9651  0.9462
   54MOL    H2244648   0.668   5.871   6.354 -1.5136  1.7960 -0.5677
   54MOL    H2344649   0.755   5.869   6.508  2.4303  2.2948 -0.0107
   54MOL    H2444650   0.846   5.993   6.243  0.0450  0.2758  0.3083
   54MOL    H2544651   0.884   5.858   6.297 -0.0505  0.5060 -0.6501
   54MOL    H2644652   0.940   6.094   6.474 -0.4701 -0.0886 -0.3750
   54MOL    H2744653   1.025   5.940   6.488  1.5403  0.1138 -1.3146
   54MOL    H2844654   1.056   6.133   6.242  0.7740 -0.8902 -0.8559
   54MOL    H2944655   1.108   5.969   6.250 -0.4110 -2.6558  1.8828
   54MOL    H3044656   1.185   6.193   6.443 -0.1214  2.1559 -2.5800
   54MOL    H3144657   1.246   6.034   6.463  0.3133 -0.2074 -0.5482
   54MOL    H3244658   1.338   6.060   6.208  1.1301  1.5518 -1.0594
   54MOL    H3344659   1.303   6.227   6.236  0.5926  1.3108  0.1051
   54MOL    H3444660   1.509   6.053   6.387  2.2201  1.0844  1.0037
   54MOL    H3544661   1.543   6.170   6.265  1.0625 -0.0167  0.7887
   54MOL    H3644662   1.414   6.235   6.545 -0.7052 -2.6388  0.0162
   54MOL    H3744663   1.461   6.360   6.433  2.1690  0.3906 -0.3204
   54MOL    H3844664   1.653   6.162   6.551  1.1241 -0.8708 -1.0567
   54MOL    H3944665   1.689   6.266   6.432 -2.3147 -0.2632 -0.8848
   54MOL    H4044666   1.760   6.358   6.655 -0.6322 -2.6471 -0.7820
   54MOL    H4144667   1.619   6.459   6.601 -2.4893 -1.4654 -3.3307
   54MOL    H4244668   1.600   6.317   6.711 -1.0765  1.0571 -0.4789
   54MOL    H4344669   0.497   6.153   6.718 -1.1786  0.9752  1.2791
   54MOL    C4444670   0.270   6.088   6.569  0.2342 -0.1980  0.4481
   54MOL    C4544671   0.160   6.195   6.548 -0.3767  0.1990  0.2653
   54MOL    C4644672   0.117   6.261   6.682  0.2502 -0.1476 -0.0607
   54MOL    C4744673   0.069   6.404   6.657 -0.8477  0.0913 -0.0203
   54MOL    C4844674   0.054   6.488   6.790 -0.4355 -0.5512  1.1519
   54MOL    C4944675   7.639   6.428   6.875 -0.4145 -0.1372  0.0197
   54MOL    C5044676   7.607   6.520   6.999  0.5209  0.3313  0.0376
   54MOL    C5144677   7.489   6.469   7.083  0.0070  0.0239  0.4156
   54MOL    C5244678   7.471   6.551   7.205 -0.8132  0.2124 -0.0875
   54MOL    C5344679   7.347   6.510   7.288  0.4417 -0.2072  0.0745
   54MOL    C5444680   7.373   6.391   7.388 -0.5268 -0.1734 -0.3880
   54MOL    C5544681   7.276   6.351   7.498  0.4994  0.1858 -0.4782
   54MOL    C5644682   7.149   6.288   7.461  0.1101 -0.1939  1.1964
   54MOL    C5744683   7.033   6.301   7.560  0.9725  0.0731 -0.3438
   54MOL    H5844684   0.245   6.004   6.505 -0.4530  1.6075 -1.7385
   54MOL    H5944685   0.277   6.042   6.667  0.6172 -0.6388  0.2167
   54MOL    H6044686   0.208   6.273   6.489 -0.7899  0.4379  0.2458
   54MOL    H6144687   0.044   6.210   6.745 -1.4372  1.7826 -0.3638
   54MOL    H6244688   0.202   6.269   6.750 -0.5055  0.5847  0.8134
   54MOL    H6344689   7.669   6.399   6.605 -1.2683 -1.7159  0.8828
   54MOL    H6444690   0.125   6.457   6.580 -2.5624  0.4085 -1.0795
   54MOL    H6544691   0.031   6.592   6.771 -0.2090 -0.4290  1.5414
   54MOL    H6644692   0.143   6.496   6.852  0.1398  2.2383  0.0086
   54MOL    H6744693   7.543   6.431   6.825 -1.2117 -0.0382  1.5192
   54MOL    H6844694   7.655   6.324   6.901  2.8165 -0.2848 -2.2551
   54MOL    H6944695   0.001   6.529   7.060  0.2537  0.9285  0.3441
   54MOL    H7044696   7.581   6.620   6.965  0.0630  0.1934 -0.0299
   54MOL    H7144697   7.498   6.364   7.112 -1.1248  0.5142  2.6702
   54MOL    H7244698   7.405   6.491   7.017  0.4202 -2.0807 -0.8790
   54MOL    H7344699   7.562   6.537   7.264  0.4669 -1.3213 -2.3530
   54MOL    H7444700   7.462   6.652   7.166 -3.2621 -0.2787 -0.8588
   54MOL    H7544701   7.264   6.487   7.222 -0.7403 -0.6605  1.6703
   54MOL    H7644702   7.316   6.593   7.353 -0.6576 -1.0503  0.6588
   54MOL    H7744703   7.461   6.423   7.444 -0.4784 -2.2815  0.8096
   54MOL    H7844704   7.398   6.305   7.326  0.2487 -0.2914  0.0869
   54MOL    H7944705   7.321   6.290   7.578  1.3682  0.2124 -0.9400
   54MOL    H8044706   7.246   6.442   7.549  0.7901  1.4349 -2.5165
   54MOL    H8144707   7.162   6.184   7.431  1.0318  0.9273 -2.6648
   54MOL    H8244708   7.124   6.343   7.370  0.9299  1.2963  1.8666
   54MOL    H8344709   7.002   6.405   7.566  0.9600  0.1324 -1.2991
   54MOL    H8444710   7.062   6.261   7.657 -1.0016  1.0392  0.6735
   54MOL    H8544711   6.942   6.258   7.518  0.2817  0.4517  0.7323
   54MOL    C8644712   0.046   6.145   6.470  0.8629 -0.3794  0.3044
   54MOL    C8744713   0.070   6.117   6.317 -0.2149  0.1371 -0.6000
   54MOL    C8844714   0.086   6.238   6.233  0.4059  0.0611 -0.4441
   54MOL    C8944715   0.191   6.223   6.114 -0.1750  0.2609 -0.3334
   54MOL    C9044716   0.178   6.338   6.013  0.1207 -0.8627 -0.2118
   54MOL    C9144717   0.300   6.369   5.931  0.3362 -0.2313  0.1341
   54MOL    C9244718   0.281   6.481   5.832 -0.1535  0.0660  0.3102
   54MOL    C9344719   0.404   6.523   5.746  0.9030  0.3264 -0.1073
   54MOL    C9444720   0.436   6.414   5.637 -0.7999 -0.4465 -0.1465
   54MOL    C9544721   0.559   6.459   5.558  0.0045 -0.5739  0.1273
   54MOL    C9644722   0.595   6.367   5.450  0.4365  0.2802  0.8238
   54MOL    C9744723   0.716   6.395   5.369 -0.1544  0.0706 -0.3373
   54MOL    C9844724   0.747   6.543   5.342 -0.4624  0.7764  0.4293
   54MOL    C9944725   0.872   6.574   5.253 -0.2457  0.9995  0.0365
   54MOL   H10044726   0.018   6.056   6.526  0.7657  0.3002  1.3654
   54MOL   H10144727   7.650   6.202   6.487  0.6253 -0.3616 -1.0062
   54MOL   H10244728   0.158   6.055   6.303  0.6147  1.0110  0.6331
   54MOL   H10344729   7.691   6.286   6.195 -0.4703 -1.4434 -0.2590
   54MOL   H10444730   0.132   6.318   6.292  0.2674  0.2641 -0.6099
   54MOL   H10544731   0.293   6.215   6.149 -0.3016  0.5918  0.1115
   54MOL   H10644732   0.172   6.133   6.055 -1.9818 -0.3360  1.1016
   54MOL   H10744733   0.144   6.429   6.062  4.1857  1.1026 -0.8523
   54MOL   H10844734   0.095   6.320   5.945 -0.0865  0.7491 -0.4059
   54MOL   H10944735   0.322   6.278   5.874  1.1044  0.2270 -0.3134
   54MOL   H11044736   0.387   6.377   5.995  1.0496  1.7633 -1.0378
   54MOL   H11144737   0.185   6.462   5.784 -0.2585  0.4778  0.3589
   54MOL   H11244738   0.259   6.570   5.890  0.4099 -0.0563  0.7099
   54MOL   H11344739   0.479   6.530   5.824 -1.5391 -0.9144  2.4339
   54MOL   H11444740   0.400   6.627   5.713 -1.0524  0.7132  1.2606
   54MOL   H11544741   0.458   6.319   5.687 -0.1335 -0.7026 -0.9142
   54MOL   H11644742   0.348   6.409   5.574  0.3040  0.3373 -1.7790
   54MOL   H11744743   0.646   6.474   5.622 -0.0019 -0.6895  0.1628
   54MOL   H11844744   0.539   6.562   5.528  0.8866 -0.7004 -0.9316
   54MOL   H11944745   0.616   6.267   5.489  0.8459  0.8405  2.0585
   54MOL   H12044746   0.509   6.354   5.385 -0.9159 -0.5555  2.7198
   54MOL   H12144747   0.804   6.353   5.418 -0.4733  1.2407  1.2777
   54MOL   H12244748   0.709   6.339   5.275 -2.7328  0.8239 -0.6238
   54MOL   H12344749   0.743   6.606   5.431  0.0222  2.5144 -0.7581
   54MOL   H12444750   0.656   6.570   5.289 -1.7681 -1.6212  1.3703
   54MOL   H12544751   0.869   6.511   5.164 -2.7966 -0.6051  1.1820
   54MOL   H12644752   0.869   6.677   5.218  0.1161  0.4811 -1.5301
   54MOL   H12744753   0.968   6.563   5.303 -0.0392  0.5882 -0.4448
   54MOL   C12844754   7.641   6.024   6.272  0.4894 -0.4437  0.4956
   54MOL   C12944755   7.639   5.881   6.345 -0.3906 -0.2603  0.7785
   54MOL   C13044756   7.521   5.863   6.450 -0.5566 -0.1570 -0.3076
   54MOL   C13144757   7.366   5.851   6.416  0.2230  0.4203  0.0281
   54MOL   C13244758   7.264   5.840   6.534 -0.5689 -0.2981  0.0995
   54MOL   C13344759   7.288   5.710   6.617 -0.5961 -0.0345 -0.6132
   54MOL   C13444760   7.153   5.660   6.674  0.9456  0.1596  0.0084
   54MOL   C13544761   7.163   5.534   6.765 -0.0109  0.3838 -0.2542
   54MOL   C13644762   7.199   5.574   6.914 -0.1772  0.8640  0.6521
   54MOL   C13744763   7.218   5.458   7.004 -0.0388  1.0702  0.5123
   54MOL   C13844764   7.323   5.345   6.978  0.2111  0.5742 -0.2826
   54MOL   C13944765   7.462   5.404   6.972 -0.2988 -0.4344  0.2479
   54MOL   C14044766   7.567   5.289   6.937 -0.1876 -0.3704 -0.1131
   54MOL   C14144767   0.012   5.344   6.924 -0.1545  0.0336  0.1960
   54MOL   H14244768   7.546   6.074   6.292 -0.2704 -1.4110 -0.6310
   54MOL   H14344769   7.645   6.020   6.163 -2.5424  1.6180  0.2686
   54MOL   H14444770   0.035   5.870   6.403  1.0367  1.6505 -1.0118
   54MOL   H14544771   7.548   5.779   6.513  0.5350 -0.5199 -1.2630
   54MOL   H14644772   7.527   5.950   6.516  1.1455 -0.6176  0.1526
   54MOL   H14744773   7.339   5.942   6.363 -0.9364  0.9298  1.4797
   54MOL   H14844774   7.349   5.767   6.349  0.6182  0.2623  0.1229
   54MOL   H14944775   7.273   5.928   6.597  0.4645 -0.2117 -0.1512
   54MOL   H15044776   7.163   5.840   6.494  0.0877  0.0925 -1.6428
   54MOL   H15144777   7.330   5.627   6.560 -0.6612  0.3138 -1.1709
   54MOL   H15244778   7.362   5.730   6.694  1.4386  0.1000 -2.5561
   54MOL   H15344779   7.116   5.746   6.729 -1.0390 -0.9453  0.4555
   54MOL   H15444780   7.082   5.650   6.591  0.3157 -0.0427  0.5630
   54MOL   H15544781   7.063   5.489   6.766  0.3440 -0.5457 -2.6142
   54MOL   H15644782   7.235   5.459   6.733 -0.7213 -1.0595  1.4474
   54MOL   H15744783   7.287   5.638   6.908 -0.2901  0.8182 -2.4539
   54MOL   H15844784   7.118   5.643   6.941 -1.6219 -0.1965 -0.8519
   54MOL   H15944785   7.120   5.413   7.021 -0.0722  2.0263  3.0075
   54MOL   H16044786   7.254   5.498   7.099  0.5422  0.0560  0.7315
   54MOL   H16144787   7.327   5.264   7.050  2.3289  0.7148 -0.2186
   54MOL   H16244788   7.303   5.285   6.890  0.2869 -2.2615  1.5756
   54MOL   H16344789   7.456   5.476   6.890 -1.5057  1.8851  2.3233
   54MOL   H16444790   7.483   5.451   7.067 -0.3615 -1.5246  0.8118
   54MOL   H16544791   7.564   5.210   7.011  0.7239 -0.3618 -0.0602
   54MOL   H16644792   7.547   5.247   6.839 -3.8979  1.8908 -0.4573
   54MOL   H16744793   0.020   5.421   6.847 -0.5958  1.5066  1.5995
   54MOL   H16844794   0.050   5.382   7.018 -1.2019  1.4685  0.0556
   54MOL   H16944795   0.074   5.255   6.912 -0.2431 -0.0879  0.6461
   54MOL   C17044796   7.641   5.771   6.244 -1.2942 -0.6895 -0.0561
   54MOL   C17144797   0.072   5.762   6.156 -0.1676  0.2851 -0.8582
   54MOL   C17244798   0.196   5.733   6.246  0.3563  0.4589  0.7973
   54MOL   C17344799   0.331   5.737   6.170  0.6930  0.4890 -0.2706
   54MOL   C17444800   0.364   5.877   6.113 -0.4723  0.2635  0.4514
   54MOL   C17544801   0.500   5.881   6.052 -0.1428  0.2287  0.3020
   54MOL   C17644802   0.558   6.025   6.055  0.4929  1.0518 -0.6765
   54MOL   C17744803   0.696   6.044   5.990 -0.1725 -0.8274  0.1319
   54MOL   C17844804   0.690   6.059   5.837  0.1711  0.7072 -0.3650
   54MOL   C17944805   0.835   6.029   5.787  0.2890  0.1625 -0.7651
   54MOL   C18044806   0.868   6.114   5.656 -0.0677  0.1916  0.0186
   54MOL   C18144807   1.016   6.092   5.603  0.3106 -0.4705 -0.1051
   54MOL   C18244808   1.045   6.175   5.470  0.0622  0.7073 -0.0183
   54MOL   C18344809   1.196   6.182   5.439  0.3944 -0.1274 -0.3482
   54MOL   H18444810   7.554   5.789   6.181 -0.4356  0.7800 -0.8497
   54MOL   H18544811   7.632   5.683   6.308 -0.9546 -1.1118 -0.5831
   54MOL   H18644812   0.085   5.863   6.118  0.0689  0.2185 -0.9542
   54MOL   H18744813   0.198   5.806   6.326 -2.0511  1.9411 -0.4242
   54MOL   H18844814   0.180   5.636   6.294  0.7505 -0.1699 -0.3179
   54MOL   H18944815   0.414   5.722   6.238  0.6688 -0.0121 -0.3509
   54MOL   H19044816   0.342   5.656   6.098 -0.4183 -0.6688  0.8427
   54MOL   H19144817   0.290   5.900   6.037 -0.2530 -1.0076 -0.1776
   54MOL   H19244818   0.364   5.955   6.188  0.9823  0.1214  0.6179
   54MOL   H19344819   0.486   5.856   5.947  2.9718  1.2056 -0.4137
   54MOL   H19444820   0.575   5.813   6.093  3.1928  3.4806 -0.0915
   54MOL   H19544821   0.559   6.063   6.158  0.0153 -1.7887  0.4257
   54MOL   H19644822   0.487   6.090   6.003  0.4066 -0.0121 -1.8979
   54MOL   H19744823   0.766   5.969   6.027  0.9272 -0.7475 -1.6706
   54MOL   H19844824   0.747   6.133   6.026 -1.7003 -0.1594  0.6745
   54MOL   H19944825   0.651   6.159   5.814 -0.2739  0.2344 -1.7098
   54MOL   H20044826   0.623   5.992   5.784  0.1071  0.0165  0.5786
   54MOL   H20144827   0.859   5.924   5.769 -1.5295 -0.7137  1.7116
   54MOL   H20244828   0.914   6.066   5.852 -1.6927  1.3401  1.0225
   54MOL   H20344829   0.861   6.220   5.678  1.1438  0.2029  0.3969
   54MOL   H20444830   0.796   6.075   5.585 -0.3442  0.1618  0.3182
   54MOL   H20544831   1.088   6.123   5.679 -0.0776 -0.7093  0.3601
   54MOL   H20644832   1.044   5.987   5.596 -1.8886 -0.9418 -2.7833
   54MOL   H20744833   0.995   6.130   5.384  2.0020  2.9748 -2.4192
   54MOL   H20844834   1.000   6.273   5.485  3.3062  2.3477 -0.5988
   54MOL   H20944835   1.249   6.093   5.472 -0.8935 -1.4759 -1.7874
   54MOL   H21044836   1.224   6.267   5.501 -1.5183  0.4460 -0.2396
   54MOL   H21144837   1.226   6.220   5.341  0.4881  1.3629  0.2463
   54MOL   C21244838   0.046   5.651   6.054 -0.4986 -0.5227  1.1016
   54MOL   C21344839   0.006   5.688   5.907 -0.7880  0.1386 -0.1194
   54MOL   C21444840   0.104   5.628   5.806 -0.3429  0.6809  0.1653
   54MOL   C21544841   0.233   5.708   5.799 -0.5617 -0.1038  0.1984
   54MOL   C21644842   0.331   5.649   5.696  0.1884  0.9598  0.3469
   54MOL   C21744843   0.467   5.715   5.676 -0.5209  0.4840  0.9728
   54MOL   C21844844   0.531   5.685   5.536  0.0238  0.1464 -0.7239
   54MOL   C21944845   0.668   5.738   5.529 -0.5177  0.1172 -0.4246
   54MOL   C22044846   0.743   5.723   5.400 -0.2033  0.4753 -0.0385
   54MOL   C22144847   0.872   5.802   5.408  0.6881  0.1394  0.0454
   54MOL   C22244848   0.964   5.796   5.284  0.4052  0.2577  0.7322
   54MOL   C22344849   1.107   5.856   5.306  0.7316  0.3500 -0.2959
   54MOL   C22444850   1.196   5.826   5.186  0.2045 -0.8717 -0.3153
   54MOL   C22544851   1.332   5.901   5.191  0.2056  0.0269  0.4759
   54MOL   H22644852   7.679   5.572   6.095 -0.6763 -0.8467  0.2139
   54MOL   H22744853   0.144   5.605   6.044 -0.6313 -0.5789 -0.0110
   54MOL   H22844854   0.013   5.797   5.905 -2.3443  0.2581  0.5877
   54MOL   H22944855   0.119   5.522   5.826 -1.0222 -0.1102 -3.2009
   54MOL   H23044856   0.067   5.617   5.704  1.0448 -1.5225 -0.1258
   54MOL   H23144857   0.286   5.696   5.894  0.1457  0.1518 -0.1593
   54MOL   H23244858   0.209   5.814   5.787 -1.9352 -0.2345  1.5943
   54MOL   H23344859   0.286   5.655   5.597 -1.6972  0.5423  1.1596
   54MOL   H23444860   0.340   5.541   5.704  2.0047  0.9952 -0.9662
   54MOL   H23544861   0.543   5.682   5.747  0.0780  0.8954  0.5333
   54MOL   H23644862   0.456   5.823   5.689 -0.0610  0.9092 -1.8147
   54MOL   H23744863   0.533   5.577   5.528  0.8126  0.0671  0.4031
   54MOL   H23844864   0.474   5.730   5.456 -0.5746  1.6108  0.4908
   54MOL   H23944865   0.655   5.846   5.539 -0.1389  0.1990 -0.8059
   54MOL   H24044866   0.728   5.696   5.610 -0.5685  0.8589 -0.0037
   54MOL   H24144867   0.681   5.744   5.313 -1.6269 -0.5601  0.7136
   54MOL   H24244868   0.775   5.620   5.382  1.3262  1.1491 -1.3740
   54MOL   H24344869   0.855   5.907   5.431 -2.0522 -0.3410  0.3479
   54MOL   H24444870   0.915   5.759   5.499 -1.2309  1.4467  1.6198
   54MOL   H24544871   0.907   5.851   5.209  0.9025  0.5150  0.5426
   54MOL   H24644872   0.985   5.690   5.270  0.9921  0.5542 -0.7052
   54MOL   H24744873   1.146   5.817   5.400 -0.5548  3.0332  1.4180
   54MOL   H24844874   1.115   5.962   5.328  2.3625  0.7568 -2.6050
   54MOL   H24944875   1.156   5.843   5.086 -4.1963  2.0200  1.7717
   54MOL   H25044876   1.219   5.720   5.177  1.5511 -0.9471  3.0359
   54MOL   H25144877   1.308   6.006   5.210  5.1492  1.4290 -0.4334
   54MOL   H25244878   1.397   5.866   5.270  0.0876 -0.1958  0.4752
   54MOL   H25344879   1.374   5.891   5.091 -0.4092  2.2037 -0.0413
   54MOL   C25444880   7.558   5.626   5.881  0.7009 -0.2550  0.1966
   54MOL   C25544881   7.473   5.683   5.765  0.2073  0.6829 -0.6815
   54MOL   C25644882   7.375   5.573   5.714  0.3070  0.1327 -0.3391
   54MOL   C25744883   7.272   5.517   5.818  1.0815 -0.2843 -0.1844
   54MOL   C25844884   7.141   5.472   5.767 -0.5428  0.0090  0.2134
   54MOL   C25944885   7.038   5.462   5.879  0.0314 -0.4810  0.2796
   54MOL   C26044886   6.905   5.406   5.820  0.1888  0.2554  0.1889
   54MOL   C26144887   6.782   5.405   5.913  0.3463 -0.1586  0.3873
   54MOL   C26244888   6.666   5.332   5.855 -0.6734 -0.3531 -0.7838
   54MOL   C26344889   6.533   5.327   5.930  0.0200 -0.3093 -0.3069
   54MOL   C26444890   6.537   5.258   6.073  0.4267 -0.5298  0.2105
   54MOL   C26544891   6.403   5.251   6.144  0.7062 -0.3024 -1.3481
   54MOL   C26644892   6.422   5.170   6.285  0.0495 -0.0380  0.0655
   54MOL   C26744893   6.290   5.130   6.336  0.1713 -0.5780  0.1857
   54MOL   H26844894   7.494   5.642   5.968 -1.8012 -0.7595 -1.5296
   54MOL   H26944895   7.560   5.517   5.881  0.2997 -0.2616 -0.1056
   54MOL   H27044896   7.546   5.702   5.686  1.7963 -1.7750  0.1138
   54MOL   H27144897   7.428   5.485   5.675  0.6637 -0.5588  1.6216
   54MOL   H27244898   7.315   5.623   5.638 -0.9746  1.4478  1.5209
   54MOL   H27344899   7.259   5.592   5.896 -1.0981  0.6254 -1.3798
   54MOL   H27444900   7.321   5.433   5.869 -0.9651 -1.6203 -0.3331
   54MOL   H27544901   7.152   5.384   5.705 -1.2323  0.3251 -0.3639
   54MOL   H27644902   7.112   5.552   5.699  1.1920  0.9950  0.5842
   54MOL   H27744903   7.012   5.557   5.925  0.1988  0.6517 -1.8816
   54MOL   H27844904   7.076   5.396   5.957  2.0877 -0.3829 -0.6068
   54MOL   H27944905   6.889   5.463   5.729 -1.2484 -1.8817 -0.9425
   54MOL   H28044906   6.927   5.307   5.780 -1.2528 -1.0476  2.5219
   54MOL   H28144907   6.745   5.507   5.926 -0.0781 -0.1899 -0.5663
   54MOL   H28244908   6.821   5.361   6.005  2.8908  0.2838 -0.4322
   54MOL   H28344909   6.641   5.373   5.757 -2.3078 -0.3679 -0.3957
   54MOL   H28444910   6.700   5.228   5.853 -2.0316 -0.8293  0.2931
   54MOL   H28544911   6.465   5.268   5.868  0.2610 -2.1786  1.1391
   54MOL   H28644912   6.482   5.423   5.941 -0.4263 -0.6018  0.2211
   54MOL   H28744913   6.596   5.311   6.147  1.2008 -1.5884  0.3710
   54MOL   H28844914   6.582   5.159   6.064  0.1974 -0.6182  0.0279
   54MOL   H28944915   6.351   5.344   6.168 -0.3917 -0.6918 -2.1439
   54MOL   H29044916   6.326   5.203   6.084 -0.5381  1.8744 -1.5472
   54MOL   H29144917   6.487   5.083   6.281 -1.6735 -1.2567 -2.1575
   54MOL   H29244918   6.453   5.231   6.370 -0.1280 -0.1136  0.1821
   54MOL   H29344919   6.236   5.213   6.380  1.5603  2.4243 -3.4856
   54MOL   H29444920   6.308   5.045   6.403  3.3374 -1.6545 -1.9178
   54MOL   H29544921   6.230   5.084   6.258 -0.1861 -0.5713  0.4551
   54MOL   C29644922   7.403   5.820   5.803  0.2945 -0.0503  0.3402
   54MOL   C29744923   7.310   5.885   5.709  0.1224  0.2718 -0.1717
   54MOL   C29844924   7.184   5.944   5.780 -0.1876  0.7254  0.1460
   54MOL   C29944925   7.068   5.838   5.791 -0.7866 -0.8611  0.2612
   54MOL   C30044926   6.924   5.896   5.788 -0.3222  0.7061 -0.1031
   54MOL   C30144927   6.818   5.784   5.769  0.4364  0.5379  0.6110
   54MOL   C30244928   6.671   5.826   5.758 -0.2459 -0.0620  0.1698
   54MOL   C30344929   6.618   5.924   5.872 -0.0244  1.0780 -0.1694
   54MOL   C30444930   6.463   5.970   5.858  0.3965 -0.6941 -0.0132
   54MOL   C30544931   6.410   6.053   5.980 -0.2925  0.0079  0.3112
   54MOL   C30644932   6.274   6.116   5.962 -0.1031  0.0695 -0.4753
   54MOL   C30744933   6.268   6.250   5.890 -0.0450  0.3623 -0.9843
   54MOL   C30844934   6.130   6.318   5.872 -0.1190  0.2327  0.2901
   54MOL   C30944935   6.134   6.455   5.800  0.2764  0.2752 -0.3631
   54MOL   H31044936   7.473   5.895   5.839  0.5993  1.0580 -2.4619
   54MOL   H31144937   7.339   5.794   5.887  0.3917 -2.7683 -0.3821
   54MOL   H31244938   7.270   5.816   5.634  1.8015  0.4308 -1.2302
   54MOL   H31344939   7.128   6.019   5.724 -1.4238  1.7206  2.6188
   54MOL   H31444940   7.201   5.986   5.879 -0.2544 -1.2104  1.0074
   54MOL   H31544941   7.088   5.767   5.872 -0.5408 -0.5745  0.4546
   54MOL   H31644942   7.069   5.764   5.711 -2.6043  0.6371 -1.1559
   54MOL   H31744943   6.907   5.956   5.877 -1.2367  0.8121 -0.3359
   54MOL   H31844944   6.905   5.966   5.707 -2.5467  0.5713  0.2694
   54MOL   H31944945   6.827   5.712   5.850 -0.7669  1.5368  1.6553
   54MOL   H32044946   6.835   5.710   5.691  0.8157  0.5383  0.6926
   54MOL   H32144947   6.658   5.858   5.654  0.9413  0.3071  0.1306
   54MOL   H32244948   6.606   5.739   5.771 -0.1701 -0.0296  0.7873
   54MOL   H32344949   6.683   6.011   5.867  1.1085  0.2873  0.5316
   54MOL   H32444950   6.633   5.871   5.966 -2.0291 -0.0615 -0.4561
   54MOL   H32544951   6.450   6.044   5.779  2.2586  2.7916  2.8064
   54MOL   H32644952   6.393   5.888   5.845 -2.3282  0.8734  3.9418
   54MOL   H32744953   6.478   6.132   6.010  1.6480 -0.4696 -2.6669
   54MOL   H32844954   6.403   5.983   6.063 -0.4865  0.0136  0.2992
   54MOL   H32944955   6.225   6.134   6.057  3.0417  2.9873  0.6998
   54MOL   H33044956   6.210   6.048   5.906  0.3558  0.4930 -1.5423
   54MOL   H33144957   6.324   6.241   5.797  0.2486 -0.7318 -0.7106
   54MOL   H33244958   6.315   6.316   5.963 -1.8224  0.6624 -0.1024
   54MOL   H33344959   6.087   6.329   5.971 -1.5672 -3.5399  0.1785
   54MOL   H33444960   6.066   6.246   5.820 -0.6361  0.2943  0.8398
   54MOL   H33544961   6.213   6.523   5.830 -0.6853  0.7977  1.0151
   54MOL   H33644962   6.152   6.421   5.698 -0.3825  0.2933 -0.4891
   54MOL   H33744963   6.039   6.508   5.807 -0.0573 -0.3666  0.0686
   54MOL   C33844964   7.368   6.011   5.626 -0.1768  0.8968 -0.3584
   54MOL   C33944965   7.487   5.980   5.536  0.3737  0.5045  0.7380
   54MOL   C34044966   7.439   5.892   5.416 -0.0432  0.4279  0.5336
   54MOL   C34144967   7.541   5.832   5.317  0.3442 -0.8691  0.2778
   54MOL   C34244968   7.662   5.765   5.382  0.0807  0.4184  0.6216
   54MOL   C34344969   0.068   5.714   5.287  0.3150 -0.2281  0.1072
   54MOL   C34444970   0.038   5.594   5.185  0.4848 -0.1362  0.7644
   54MOL   C34544971   0.168   5.561   5.107  0.5154 -0.0896 -0.7231
   54MOL   C34644972   0.141   5.428   5.033  0.1249 -0.1063  0.2095
   54MOL   C34744973   0.254   5.396   4.937  0.2033  0.2622  0.2080
   54MOL   C34844974   0.252   5.253   4.884 -0.5220 -0.0564  0.3638
   54MOL   C34944975   0.375   5.230   4.794  0.0860 -0.2328 -0.0198
   54MOL   C35044976   0.503   5.212   4.883  0.5412 -0.6093 -0.0333
   54MOL   C35144977   0.608   5.115   4.826  0.1207 -0.2055 -0.6090
   54MOL   H35244978   7.289   6.056   5.566 -1.8927 -0.9043  0.4966
   54MOL   H35344979   7.392   6.079   5.708 -0.9541 -1.0367  1.5292
   54MOL   H35444980   7.563   5.924   5.590  0.7297  1.6375  1.4133
   54MOL   H35544981   7.382   5.806   5.451 -0.0272  0.2291  0.0792
   54MOL   H35644982   7.371   5.947   5.350  0.2837 -1.4421 -1.4233
   54MOL   H35744983   7.593   5.910   5.263  0.4628  1.0109  3.0021
   54MOL   H35844984   7.496   5.768   5.241  0.6749  0.7360 -1.3136
   54MOL   H35944985   7.634   5.677   5.441 -0.6253 -1.3798 -2.2942
   54MOL   H36044986   0.018   5.834   5.449  2.1845  0.4315 -0.9773
   54MOL   H36144987   0.102   5.803   5.232 -1.5838 -0.6124 -1.7418
   54MOL   H36244988   0.156   5.667   5.331  0.8157 -1.6532 -2.2947
   54MOL   H36344989   0.007   5.506   5.241  1.0953 -0.3050  0.8327
   54MOL   H36444990   7.665   5.626   5.105  1.3686 -1.8792 -0.7131
   54MOL   H36544991   0.195   5.641   5.037  0.1873 -0.0147 -0.7649
   54MOL   H36644992   0.252   5.552   5.176 -0.0491  0.5378  0.0628
   54MOL   H36744993   0.121   5.345   5.100 -3.5759 -0.3602 -1.0937
   54MOL   H36844994   0.052   5.437   4.971  1.7179  2.4681 -1.8815
   54MOL   H36944995   0.229   5.457   4.850 -0.3650  1.2982  1.0650
   54MOL   H37044996   0.347   5.424   4.986  0.2631 -1.0538  0.8698
   54MOL   H37144997   0.161   5.226   4.830 -0.4920  1.3366 -0.4380
   54MOL   H37244998   0.237   5.191   4.972  0.2728  1.5705  1.6891
   54MOL   H37344999   0.385   5.315   4.728  0.8000 -1.3865 -1.4337
   54MOL   H37445000   0.365   5.139   4.734 -2.1334  0.7693 -1.2112
   54MOL   H37545001   0.542   5.313   4.897  0.6562 -0.2383 -2.8402
   54MOL   H37645002   0.476   5.171   4.981  4.8137  0.7612  1.8542
   54MOL   H37745003   0.642   5.112   4.723  0.4230 -1.1185 -0.4923
   54MOL   H37845004   0.694   5.138   4.889  1.1258 -1.0622 -1.6590
   54MOL   H37945005   0.582   5.010   4.840 -2.6361  0.5826  0.4348
   54MOL   C38045006   7.547   6.112   5.473 -0.3429 -0.0181 -0.0267
   54MOL   C38145007   7.643   6.188   5.572  0.4380 -0.1230  0.3866
   54MOL   C38245008   0.084   6.121   5.601  0.3168  0.6996 -0.7527
   54MOL   C38345009   0.186   6.116   5.483 -0.4443  0.5879 -0.6896
   54MOL   C38445010   0.323   6.052   5.511 -0.1133  0.3272  0.1007
   54MOL   C38545011   0.418   6.048   5.387 -0.3352  0.1821  0.2786
   54MOL   C38645012   0.392   5.941   5.280 -0.3547 -0.3680  0.3182
   54MOL   C38745013   0.491   5.938   5.159  0.5983 -0.3622  0.2382
   54MOL   C38845014   0.470   5.820   5.065  0.5160 -0.6736  0.5075
   54MOL   C38945015   0.571   5.817   4.955 -0.0765  0.3653  0.1260
   54MOL   C39045016   0.576   5.688   4.865 -0.2349  0.0812 -0.3345
   54MOL   C39145017   0.444   5.657   4.783 -0.4614 -0.5894  0.2565
   54MOL   C39245018   0.424   5.725   4.649  0.4768  0.2105  0.1730
   54MOL   C39345019   0.530   5.683   4.547  0.0275  0.2770 -0.0016
   54MOL   H39445020   7.471   6.179   5.433  1.2196 -0.1312 -3.3236
   54MOL   H39545021   7.613   6.089   5.390  0.2846  0.1354  0.4248
   54MOL   H39645022   7.578   6.187   5.660 -0.3830 -4.0994 -0.1872
   54MOL   H39745023   0.072   6.024   5.649  0.8646  0.4840 -1.0484
   54MOL   H39845024   0.122   6.189   5.678  0.6260 -0.6896  0.3549
   54MOL   H39945025   0.199   6.215   5.440  0.7333  1.6267  2.0330
   54MOL   H40045026   0.148   6.054   5.401 -1.1568  3.1308 -2.3467
   54MOL   H40145027   0.307   5.953   5.555  2.0020 -1.5232 -3.0731
   54MOL   H40245028   0.367   6.108   5.593  2.5340  0.9222 -1.6727
   54MOL   H40345029   0.514   6.027   5.434 -1.1331  0.2455  1.9724
   54MOL   H40445030   0.425   6.150   5.347 -2.4367  0.4052  0.3981
   54MOL   H40545031   0.397   5.842   5.325 -0.0035  0.3107  1.7840
   54MOL   H40645032   0.289   5.951   5.247  0.3154 -0.4395 -1.9169
   54MOL   H40745033   0.498   6.035   5.111  1.2587 -0.7499 -0.4511
   54MOL   H40845034   0.586   5.921   5.210 -0.2932 -1.6597  1.5128
   54MOL   H40945035   0.460   5.725   5.118 -3.2411 -1.5625 -1.6731
   54MOL   H41045036   0.374   5.826   5.014  0.5889  1.3103  0.5636
   54MOL   H41145037   0.670   5.817   5.002 -0.5074  0.9214  1.0316
   54MOL   H41245038   0.563   5.907   4.893 -1.3909  0.7255  0.8040
   54MOL   H41345039   0.659   5.701   4.795 -1.7516  1.4721 -1.9354
   54MOL   H41445040   0.601   5.600   4.924  0.5767  0.1142 -0.6234
   54MOL   H41545041   0.359   5.687   4.845 -0.4742  2.4804 -1.1547
   54MOL   H41645042   0.428   5.550   4.772  0.1697 -0.6311 -0.2443
   54MOL   H41745043   0.324   5.711   4.608 -0.7450 -2.7188  3.8578
   54MOL   H41845044   0.428   5.832   4.669  0.2123 -0.0449  1.6590
   54MOL   H41945045   0.632   5.703   4.581  0.6005  0.4508 -1.7853
   54MOL   H42045046   0.525   5.731   4.449 -2.9837 -0.4952 -0.2957
   54MOL   H42145047   0.531   5.575   4.532  0.2691  0.6554 -3.0124
   54MOL   C42245048   7.673   6.335   5.522  0.5891 -0.1453 -0.4792
   54MOL   C42345049   7.546   6.426   5.520 -0.0170 -0.7954  0.7834
   54MOL   C42445050   7.475   6.432   5.658 -0.4298 -0.4217 -0.3446
   54MOL   C42545051   7.580   6.466   5.766 -0.4093 -0.7385 -0.4661
   54MOL   C42645052   7.522   6.525   5.899  0.3799 -0.6058  1.4485
   54MOL   C42745053   7.463   6.416   5.989  0.2696  0.1162 -0.0858
   54MOL   C42845054   7.418   6.463   6.129  0.6864  0.0333  0.2589
   54MOL   C42945055   7.372   6.345   6.228  0.1338 -0.1546 -0.2358
   54MOL   C43045056   7.367   6.395   6.374 -0.0427  0.4726  0.1931
   54MOL   C43145057   7.346   6.279   6.475  0.7040 -0.4773 -0.0500
   54MOL   C43245058   7.338   6.331   6.616 -0.1851  0.4227  0.4901
   54MOL   C43345059   7.311   6.226   6.721  0.4240  0.2364 -0.2102
   54MOL   C43445060   7.172   6.163   6.722 -0.0288  0.0113 -0.1353
   54MOL   C43545061   7.055   6.252   6.771  0.2611 -1.0489 -0.0615
   54MOL   H43645062   0.001   6.317   5.417  0.9024 -1.2687 -0.2246
   54MOL   H43745063   0.061   6.380   5.576 -0.6091  2.8037 -1.0151
   54MOL   H43845064   7.474   6.377   5.454 -1.5835 -0.0927  1.9286
   54MOL   H43945065   7.425   6.336   5.674 -1.1057 -0.3013 -1.6602
   54MOL   H44045066   7.399   6.510   5.663  1.1123  0.9894  2.0406
   54MOL   H44145067   7.649   6.384   5.783  0.2811 -0.1332 -0.2902
   54MOL   H44245068   7.647   6.542   5.726 -1.8418  1.0034  0.3419
   54MOL   H44345069   7.448   6.601   5.875 -0.3075 -1.0473  2.1649
   54MOL   H44445070   7.607   6.571   5.950  0.8700 -0.0488  0.1676
   54MOL   H44545071   7.539   6.341   6.012  0.2757  0.1623  0.0458
   54MOL   H44645072   7.380   6.363   5.943 -1.0529  1.6955  0.4249
   54MOL   H44745073   7.506   6.516   6.165 -0.0285  2.5161 -1.5231
   54MOL   H44845074   7.340   6.539   6.134  1.4170  0.9774 -2.2409
   54MOL   H44945075   7.277   6.293   6.211  0.3053 -0.6450  0.2867
   54MOL   H45045076   7.450   6.269   6.225 -0.5491 -0.8674 -0.1542
   54MOL   H45145077   7.464   6.442   6.393  0.3035  0.1393 -0.7372
   54MOL   H45245078   7.282   6.463   6.376 -1.6246 -1.4670  0.7452
   54MOL   H45345079   7.246   6.237   6.464  0.7177 -0.7799  0.9068
   54MOL   H45445080   7.426   6.206   6.465  1.0654 -0.4426  2.3589
   54MOL   H45545081   7.436   6.365   6.648  0.9287 -0.4176 -1.9305
   54MOL   H45645082   7.270   6.416   6.627  1.0050  1.3311  0.8795
   54MOL   H45745083   7.331   6.256   6.824 -0.0724 -0.1675  0.0079
   54MOL   H45845084   7.384   6.147   6.702 -0.4081 -0.8790  1.1753
   54MOL   H45945085   7.145   6.136   6.620  1.1934 -0.8374 -0.2547
   54MOL   H46045086   7.188   6.068   6.773  0.9611  0.3930  0.2833
   54MOL   H46145087   6.964   6.195   6.791 -0.1378  0.4215  2.5086
   54MOL   H46245088   7.030   6.323   6.691  0.1184 -0.5444  0.4311
   54MOL   H46345089   7.086   6.323   6.847  0.5982 -1.1180 -0.1316
   54MOL   C46445090   7.598   6.560   5.463  0.4049  0.0051  0.4344
   54MOL   C46545091   7.577   6.569   5.312  0.2311 -0.2588  0.1900
   54MOL   C46645092   7.423   6.585   5.290  0.3726  0.3728  0.4310
   54MOL   C46745093   7.373   6.548   5.148 -0.4617 -0.4054 -0.2625
   54MOL   C46845094   7.373   6.395   5.134  0.6054 -0.1027 -0.5612
   54MOL   C46945095   7.300   6.352   5.005 -0.5354  0.1966  0.4138
   54MOL   C47045096   7.292   6.202   4.986 -0.1253  0.3698 -0.0943
   54MOL   C47145097   7.215   6.151   4.859 -0.0895  0.0614 -0.0738
   54MOL   C47245098   7.249   6.005   4.819 -0.2894  0.6376 -0.6092
   54MOL   C47345099   7.191   5.890   4.917 -0.0643 -0.1785 -1.1613
   54MOL   C47445100   7.199   5.748   4.857 -0.2572 -0.5666  0.2831
   54MOL   C47545101   7.139   5.640   4.946 -0.5454  0.5715  1.0018
   54MOL   C47645102   7.118   5.501   4.879 -0.9601 -0.2180 -0.1213
   54MOL   C47745103   7.251   5.441   4.809 -0.1524 -0.5386 -0.0903
   54MOL   H47845104   0.009   6.581   5.476  0.1151  0.8980  1.3492
   54MOL   H47945105   7.545   6.644   5.506 -1.4198 -0.9237  0.0511
   54MOL   H48045106   7.598   6.467   5.282  1.7010  0.2396 -0.4809
   54MOL   H48145107   7.353   6.537   5.359  0.2995 -0.5116 -0.2407
   54MOL   H48245108   7.391   6.687   5.309  1.7507  0.6169  1.6166
   54MOL   H48345109   7.440   6.598   5.078 -1.4022  0.3339 -0.6331
   54MOL   H48445110   7.275   6.586   5.123 -0.7002  0.0482  1.2889
   54MOL   H48545111   7.316   6.345   5.213  2.1409 -0.0341  0.6170
   54MOL   H48645112   7.468   6.343   5.141  0.8703  0.3545 -0.7567
   54MOL   H48745113   7.199   6.394   5.004 -0.5661  0.1174 -0.6553
   54MOL   H48845114   7.349   6.390   4.916  0.9664 -2.8316 -0.1037
   54MOL   H48945115   7.391   6.158   4.976 -0.0552  0.7648 -1.2590
   54MOL   H49045116   7.243   6.170   5.078 -0.6612  1.5263  0.0313
   54MOL   H49145117   7.107   6.153   4.873 -0.3957 -2.0635 -1.8518
   54MOL   H49245118   7.236   6.213   4.772 -0.0201  1.2152  0.7537
   54MOL   H49345119   7.210   5.989   4.718  2.5836  2.1359 -2.0326
   54MOL   H49445120   7.354   5.979   4.827 -0.6851 -0.5143  1.1410
   54MOL   H49545121   7.239   5.897   5.015  0.7156 -2.5214 -1.3470
   54MOL   H49645122   7.088   5.915   4.943  0.5750 -0.2171  1.6262
   54MOL   H49745123   7.150   5.740   4.760  0.3680 -0.6665 -0.0243
   54MOL   H49845124   7.300   5.721   4.827 -0.8924  0.3196 -2.8590
   54MOL   H49945125   7.045   5.671   4.992 -0.4279  2.1498  0.2106
   54MOL   H50045126   7.202   5.624   5.034 -0.2853  1.1154  0.9156
   54MOL   H50145127   7.098   5.427   4.957  1.1562  2.3688  2.9713
   54MOL   H50245128   7.033   5.491   4.811 -0.5463 -2.6199 -0.3390
   54MOL   H50345129   7.327   5.419   4.884  1.4041  3.4448 -0.4000
   54MOL   H50445130   7.227   5.348   4.757 -2.4495  0.6033 -1.1382
   54MOL   H50545131   7.286   5.512   4.734  1.6177 -0.9977  0.2633
   54MOL   C50645132   7.671   6.682   5.251  0.3583  0.1393  0.3026
   54MOL   C50745133   0.121   6.644   5.238 -0.0592  0.1073 -0.7640
   54MOL   C50845134   0.133   6.524   5.136  0.1636 -0.4682 -0.6969
   54MOL   C50945135   0.236   6.417   5.171  0.2571  0.2321  0.2011
   54MOL   C51045136   0.249   6.309   5.061  0.1105  0.5601  0.1998
   54MOL   C51145137   0.154   6.193   5.049  0.3578 -0.4206 -0.5917
   54MOL   C51245138   0.173   6.106   4.917 -0.1307  0.8140 -0.2403
   54MOL   C51345139   0.064   5.999   4.920 -0.4839 -0.4943  0.0740
   54MOL   C51445140   0.064   5.902   4.792  0.2921 -0.3774 -0.4957
   54MOL   C51545141   7.648   5.800   4.817 -0.1043  0.1466  0.5059
   54MOL   C51645142   7.684   5.667   4.762 -0.1560 -0.2281  0.1596
   54MOL   C51745143   0.004   5.656   4.609  0.0407 -0.4253 -0.4536
   54MOL   C51845144   0.043   5.519   4.558 -0.1000  0.4274  0.1428
   54MOL   C51945145   7.651   5.407   4.623  0.3464  0.9174  0.2780
   54MOL   H52045146   7.651   6.770   5.312 -2.6009 -1.5019  1.8121
   54MOL   H52145147   7.650   6.708   5.148  0.4762  1.1178  0.5249
   54MOL   H52245148   0.153   6.612   5.337 -1.5465  0.4648 -0.1444
   54MOL   H52345149   0.039   6.476   5.109  0.0073 -0.1892 -0.6535
   54MOL   H52445150   0.171   6.572   5.046 -1.0876 -0.1610 -1.0682
   54MOL   H52545151   0.333   6.466   5.181  0.4051  0.5126 -2.4050
   54MOL   H52645152   0.207   6.371   5.266  2.3224  1.6012  1.5398
   54MOL   H52745153   0.353   6.275   5.065 -0.1143 -0.3219 -1.2140
   54MOL   H52845154   0.245   6.366   4.967 -0.4322  1.3962  0.7197
   54MOL   H52945155   0.055   6.239   5.045  0.8028  0.4803 -1.3915
   54MOL   H53045156   0.155   6.137   5.143 -0.6637  0.5251 -0.0057
   54MOL   H53145157   0.161   6.169   4.829  1.1216  2.0010  0.4285
   54MOL   H53245158   0.272   6.061   4.907 -2.1746 -3.4693 -2.7907
   54MOL   H53345159   7.664   6.052   4.924 -1.0048 -1.4123  0.0813
   54MOL   H53445160   0.079   5.947   5.015  0.0385 -0.5565 -0.0435
   54MOL   H53545161   0.155   5.847   4.770 -1.0372 -2.1123 -1.8157
   54MOL   H53645162   0.050   5.958   4.699 -2.2007  0.9870  0.6188
   54MOL   H53745163   7.629   5.784   4.923 -2.0114 -0.1762  0.1274
   54MOL   H53845164   7.556   5.834   4.770  0.1912  1.9586  1.1910
   54MOL   H53945165   0.084   5.634   4.802 -0.1061  0.5731  0.6961
   54MOL   H54045166   7.601   5.602   4.789 -0.8713  0.1837 -1.0060
   54MOL   H54145167   0.077   5.730   4.576 -0.5083  0.5712  0.5293
   54MOL   H54245168   7.604   5.680   4.561  0.3655 -1.1396 -1.4705
   54MOL   H54345169   0.147   5.503   4.585 -0.4490  1.9778  2.5179
   54MOL   H54445170   0.038   5.509   4.449  0.3475 -1.0051  0.2339
   54MOL   H54545171   7.546   5.434   4.621  0.4218  1.1819 -0.0857
   54MOL   H54645172   7.654   5.312   4.570 -2.6831  0.2464  1.2552
   54MOL   H54745173   7.682   5.394   4.727 -0.6839  0.0732  0.4847
   54MOL   C54845174   0.199   6.763   5.187 -0.3433  0.2888  0.8143
   54MOL   C54945175   0.225   6.890   5.275  0.1238  0.0909 -0.8409
   54MOL   C55045176   0.299   6.863   5.410  0.3805  0.0572  0.0205
   54MOL   C55145177   0.203   6.815   5.527 -0.2592  0.0979  0.1503
   54MOL   C55245178   0.215   6.910   5.649  0.3939 -0.5487 -0.0650
   54MOL   C55345179   0.105   6.879   5.752  0.9441  0.1206 -0.3413
   54MOL   C55445180   0.092   6.980   5.858 -1.1153 -0.1142 -0.1164
   54MOL   C55545181   7.672   6.961   5.953  0.5530 -1.2375  0.0300
   54MOL   C55645182   7.682   7.052   6.073 -0.0671 -0.1084 -0.3512
   54MOL   C55745183   7.558   7.065   6.161 -0.4876  0.6952 -0.3846
   54MOL   C55845184   7.593   7.135   6.289 -0.2742 -0.4276 -0.1569
   54MOL   C55945185   7.479   7.127   6.389 -0.4872  0.7629  0.0232
   54MOL   C56045186   7.508   7.185   6.528  0.0879 -0.2357 -0.2540
   54MOL   C56145187   7.384   7.184   6.620 -0.4297  0.2399  0.5698
   54MOL   H56245188   0.296   6.733   5.147  0.0516  2.7385 -0.1208
   54MOL   H56345189   0.148   6.805   5.101 -0.8889  0.0234  1.0076
   54MOL   H56445190   0.128   6.936   5.294 -0.5107 -1.5299 -0.0664
   54MOL   H56545191   0.379   6.790   5.400 -0.1858 -0.5515 -0.0363
   54MOL   H56645192   0.357   6.947   5.449  1.5311 -0.6574 -0.1063
   54MOL   H56745193   0.234   6.711   5.542  2.1171  1.0725  2.3669
   54MOL   H56845194   0.105   6.817   5.479  0.0539  2.8888 -0.4839
   54MOL   H56945195   0.316   6.910   5.689  1.0600  1.6742 -1.6804
   54MOL   H57045196   0.191   7.007   5.605 -1.3795 -1.2945 -0.8176
   54MOL   H57145197   0.120   6.779   5.791 -1.3470 -0.5369 -1.0979
   54MOL   H57245198   0.008   6.885   5.703 -0.7323  0.2069  2.8782
   54MOL   H57345199   0.185   6.992   5.914 -0.9357  0.5773 -0.5451
   54MOL   H57445200   0.085   7.077   5.808  2.6477 -0.3743 -1.2303
   54MOL   H57545201   7.668   6.857   5.988 -1.7629 -1.0292  0.4736
   54MOL   H57645202   7.573   6.971   5.909  1.1684  2.0324 -0.7525
   54MOL   H57745203   0.022   7.152   6.050 -2.3112  1.2000  1.6238
   54MOL   H57845204   0.066   7.010   6.134 -0.2911 -1.7602 -1.1566
   54MOL   H57945205   7.478   7.114   6.106 -0.1647 -0.8301 -2.2775
   54MOL   H58045206   7.517   6.966   6.182  1.5736  0.2876  1.9674
   54MOL   H58145207   7.615   7.241   6.273  2.1317 -0.6489  1.4238
   54MOL   H58245208   7.683   7.095   6.336 -0.7318 -1.9264 -0.5439
   54MOL   H58345209   7.395   7.177   6.341 -1.5081 -1.1148 -0.1765
   54MOL   H58445210   7.456   7.021   6.393  0.4103  0.4271 -2.6276
   54MOL   H58545211   7.580   7.119   6.577  0.1593 -0.2747 -0.4123
   54MOL   H58645212   7.547   7.285   6.506 -1.6397  0.1291 -1.7621
   54MOL   H58745213   7.349   7.082   6.639  1.2471 -0.4873 -0.1281
   54MOL   H58845214   7.415   7.216   6.719  0.7390  0.0022  0.2860
   54MOL   H58945215   7.307   7.245   6.573 -0.3736 -0.8127 -0.9275
   54MOL   C59045216   0.301   6.997   5.193  0.5794  0.4660  0.2338
   54MOL   C59145217   0.274   7.145   5.231 -0.2797 -0.0812  0.7434
   54MOL   C59245218   0.388   7.237   5.188  0.0088  0.2343 -0.6545
   54MOL   C59345219   0.529   7.220   5.258 -0.6496 -0.1290 -0.1046
   54MOL   C59445220   0.633   7.330   5.213  0.7122  0.3799 -0.4852
   54MOL   C59545221   0.780   7.298   5.244  0.0091  0.0007 -0.4522
   54MOL   C59645222   0.875   7.387   5.172  0.0707  0.0691 -0.0283
   54MOL   C59745223   1.018   7.323   5.193 -0.3455 -0.4931 -0.3706
   54MOL   C59845224   1.127   7.433   5.162 -0.0094  0.3925 -0.5767
   54MOL   C59945225   1.265   7.378   5.159 -0.0065  0.2001  0.2009
   54MOL   C60045226   1.321   7.325   5.290 -0.0459 -0.2939 -0.3991
   54MOL   C60145227   1.423   7.213   5.263  0.0029  0.2461 -0.4851
   54MOL   C60245228   1.485   7.151   5.392  0.6336 -0.5082  0.2712
   54MOL   C60345229   1.370   7.092   5.475 -0.3403 -0.4837  0.1297
   54MOL   H60445230   0.266   6.985   5.091  0.6097 -1.7314  0.4624
   54MOL   H60545231   0.409   6.983   5.199  0.8001  2.4673  1.2443
   54MOL   H60645232   0.270   7.149   5.340 -1.3940 -2.9792  0.8620
   54MOL   H60745233   0.368   7.341   5.214 -1.2171  0.3038 -1.8168
   54MOL   H60845234   0.388   7.238   5.079  0.2153  0.8539 -0.6498
   54MOL   H60945235   0.568   7.126   5.219  1.7635  0.4388  0.8102
   54MOL   H61045236   0.521   7.207   5.366 -2.7689 -1.1741 -0.3778
   54MOL   H61145237   0.598   7.429   5.242 -1.1077 -0.7918  1.4441
   54MOL   H61245238   0.627   7.326   5.104  0.1596 -0.4941 -0.4215
   54MOL   H61345239   0.801   7.195   5.214  0.9208 -0.3376  1.3067
   54MOL   H61445240   0.803   7.299   5.350 -2.2713  0.8073  0.0611
   54MOL   H61545241   0.857   7.399   5.065 -0.6641 -1.7749 -0.1200
   54MOL   H61645242   0.867   7.486   5.217  1.5318 -0.5212  1.5543
   54MOL   H61745243   1.032   7.304   5.300  1.6387 -2.5364 -0.9502
   54MOL   H61845244   1.030   7.233   5.134  1.8429  0.1246 -0.9032
   54MOL   H61945245   1.099   7.472   5.064 -0.6536 -0.0655 -0.5797
   54MOL   H62045246   1.115   7.511   5.237 -0.6938 -0.8044  0.5819
   54MOL   H62145247   1.272   7.298   5.085  2.2143  1.7951 -1.4029
   54MOL   H62245248   1.335   7.456   5.129 -0.3205  0.2326 -0.4803
   54MOL   H62345249   1.235   7.295   5.350  0.8757 -0.4594  0.8593
   54MOL   H62445250   1.367   7.408   5.343 -0.9351 -0.1518  0.1591
   54MOL   H62545251   1.493   7.257   5.192 -0.0301  0.8536 -0.1476
   54MOL   H62645252   1.375   7.132   5.209  1.5556 -0.6681 -0.5424
   54MOL   H62745253   1.564   7.078   5.372 -0.4093 -1.0767 -1.9392
   54MOL   H62845254   1.538   7.228   5.448  2.3800  0.0197 -2.0447
   54MOL   H62945255   1.306   7.026   5.416 -0.6781  0.0739 -0.1269
   54MOL   H63045256   1.312   7.175   5.515  0.9945  0.5796 -0.1317
   54MOL   H63145257   1.405   7.025   5.554  1.5180  0.5356  0.1926
   54MOL   C63245258   0.142   7.197   5.169  0.4834 -0.0493 -0.3350
   54MOL   C63345259   0.052   7.288   5.267  0.3317 -0.5396 -0.1150
   54MOL   C63445260   7.672   7.393   5.182 -0.3979 -1.2588 -0.3634
   54MOL   C63545261   0.063   7.520   5.174 -0.4605  0.4365  0.1965
   54MOL   C63645262   0.031   7.596   5.043  0.0957 -0.6527  0.4387
   54MOL   C63745263   0.124   0.025   5.028 -0.2319 -0.1768  0.8441
   54MOL   C63845264   0.095   0.108   4.904 -0.4781 -0.1413  0.7108
   54MOL   C63945265   0.191   0.233   4.874  0.0542 -0.0807 -0.4948
   54MOL   C64045266   0.172   0.318   4.750 -0.2845  0.1362  0.0907
   54MOL   C64145267   0.268   0.443   4.745 -0.2852 -0.1571 -0.5872
   54MOL   C64245268   0.417   0.420   4.727 -0.0206  0.1956 -0.1009
   54MOL   C64345269   0.488   0.432   4.864  0.0068 -0.1361  0.7309
   54MOL   C64445270   0.640   0.421   4.843 -0.6488  0.4880 -0.1174
   54MOL   C64545271   0.726   0.483   4.951  0.1986 -0.0613 -0.6442
   54MOL   H64645272   0.076   7.122   5.125 -0.5474  0.4958  0.2671
   54MOL   H64745273   0.175   7.253   5.081  1.6028 -0.7956 -0.4044
   54MOL   H64845274   0.109   7.338   5.345  2.2394  0.0916 -1.8720
   54MOL   H64945275   7.641   7.348   5.088 -1.3851  1.6083 -1.4811
   54MOL   H65045276   7.576   7.425   5.222  0.3122  1.2780 -0.5703
   54MOL   H65145277   0.170   7.496   5.171 -0.4380  0.5998 -0.4308
   54MOL   H65245278   0.044   7.573   5.267  0.4357 -1.3804  1.4468
   54MOL   H65345279   7.624   7.629   5.051  1.1431  2.4717  1.4796
   54MOL   H65445280   0.032   7.532   4.954 -2.4930 -0.2059  0.0718
   54MOL   H65545281   0.123   0.087   5.118 -1.2577  0.7695  0.1976
   54MOL   H65645282   0.228   7.688   5.024 -0.4874 -1.0876  1.3290
   54MOL   H65745283   0.098   0.046   4.814  2.1704 -2.8326  2.5434
   54MOL   H65845284   7.689   0.144   4.919 -0.6404  0.1209 -0.8792
   54MOL   H65945285   0.294   0.198   4.875 -0.0301 -0.3185  0.2499
   54MOL   H66045286   0.189   0.303   4.957  1.2071 -1.8689  1.0758
   54MOL   H66145287   0.069   0.354   4.751 -0.4821 -0.2703 -2.4069
   54MOL   H66245288   0.177   0.252   4.663  0.0997 -1.1519  1.0815
   54MOL   H66345289   0.238   0.493   4.653 -1.1811  0.1546 -0.1350
   54MOL   H66445290   0.243   0.509   4.828 -1.9358  0.0607 -1.2466
   54MOL   H66545291   0.428   0.318   4.692 -0.2430 -0.5567  1.9127
   54MOL   H66645292   0.468   0.485   4.656  1.8143  0.1805  1.1578
   54MOL   H66745293   0.470   0.350   4.933  0.2196  0.4077  1.4309
   54MOL   H66845294   0.461   0.524   4.916 -0.6388  0.6029 -0.8541
   54MOL   H66945295   0.665   0.481   4.755  0.8338  0.7682  0.4776
   54MOL   H67045296   0.662   0.314   4.837 -1.9885  0.1912  0.1971
   54MOL   H67145297   0.833   0.464   4.939  0.4463  1.0809 -0.3136
   54MOL   H67245298   0.716   0.592   4.951 -1.3209 -0.1562  1.7862
   54MOL   H67345299   0.686   0.438   5.042  2.0450  1.5969  1.0221
   54MOL   C67445300   7.655   7.199   5.350  0.4014  0.2515 -0.3841
   54MOL   C67545301   7.599   7.268   5.477 -0.0991  0.2855  0.2347
   54MOL   C67645302   7.475   7.188   5.524 -0.1135 -0.2094 -0.0197
   54MOL   C67745303   7.506   7.047   5.579  0.8453 -0.6358  0.7190
   54MOL   C67845304   7.372   6.970   5.596 -0.4001  0.4504 -0.0421
   54MOL   C67945305   7.369   6.853   5.697 -0.0993  0.1878  0.2675
   54MOL   C68045306   7.223   6.829   5.745 -0.0431 -0.3598  0.0331
   54MOL   C68145307   7.186   6.928   5.859 -0.0091 -0.5310 -0.5266
   54MOL   C68245308   7.235   6.889   5.999  0.5692 -0.2542 -0.1459
   54MOL   C68345309   7.141   6.955   6.100  0.8584 -0.3775 -0.0129
   54MOL   C68445310   7.163   6.899   6.238  0.5235  0.4923  0.3699
   54MOL   C68545311   7.105   6.990   6.352  0.5139  0.7626  0.4060
   54MOL   C68645312   7.128   6.917   6.484  0.3087 -0.0970 -0.3358
   54MOL   C68745313   7.066   6.999   6.592 -1.0850  0.7928  0.2785
   54MOL   H68845314   0.022   7.113   5.376  2.1261  1.7160  0.4577
   54MOL   H68945315   7.579   7.170   5.277  0.8675 -0.8656 -0.4320
   54MOL   H69045316   7.565   7.364   5.437  1.2009  0.8062  0.3692
   54MOL   H69145317   7.436   7.250   5.605  0.8365 -1.5431  1.4893
   54MOL   H69245318   7.395   7.192   5.451 -1.9435  0.4148  1.9521
   54MOL   H69345319   7.570   6.984   5.517  1.3546 -0.0721  0.6725
   54MOL   H69445320   7.563   7.053   5.672  0.6670 -2.8628  0.9971
   54MOL   H69545321   7.286   7.034   5.614 -0.6833 -0.4797  2.0980
   54MOL   H69645322   7.342   6.921   5.504  3.6645 -1.9719 -0.2362
   54MOL   H69745323   7.412   6.768   5.644  3.3345  0.7919  1.9585
   54MOL   H69845324   7.433   6.873   5.783  0.2915 -0.3511  0.1071
   54MOL   H69945325   7.153   6.837   5.662  1.5148  0.1123 -1.2743
   54MOL   H70045326   7.231   6.728   5.785 -0.7893 -0.6649 -0.5848
   54MOL   H70145327   7.212   7.030   5.830 -2.0374 -0.3566 -1.8378
   54MOL   H70245328   7.077   6.933   5.857 -0.0514 -1.5886 -4.9296
   54MOL   H70345329   7.223   6.781   6.008  0.1452 -0.3288 -1.6017
   54MOL   H70445330   7.336   6.925   6.019 -0.2284  3.6660 -2.6311
   54MOL   H70545331   7.036   6.931   6.080  1.1202 -1.1488 -0.4761
   54MOL   H70645332   7.150   7.063   6.106  2.0259 -0.4617 -0.2762
   54MOL   H70745333   7.269   6.885   6.260  0.4520  1.2510  1.1979
   54MOL   H70845334   7.118   6.800   6.247 -1.0886  1.0615 -1.2730
   54MOL   H70945335   7.000   7.004   6.330  0.5110 -1.4869 -1.1881
   54MOL   H71045336   7.143   7.091   6.361  1.3735  0.7874 -2.9647
   54MOL   H71145337   7.085   6.817   6.484 -1.5807  0.6889 -0.3345
   54MOL   H71245338   7.237   6.921   6.492  0.2941  2.2612 -0.9208
   54MOL   H71345339   7.093   6.965   6.692 -0.0493 -0.2788 -0.3566
   54MOL   H71445340   7.090   7.105   6.591 -0.4916  0.6433 -1.1150
   54MOL   H71545341   6.958   6.997   6.580 -1.0730 -2.3436  0.4002
   54MOL   C71645342   0.002   7.318   5.588  0.0824 -0.2738 -0.5151
   54MOL   C71745343   7.665   7.454   5.658 -0.4533 -0.3438 -0.2019
   54MOL   C71845344   7.538   7.452   5.752  0.2282  0.0279  1.0580
   54MOL   C71945345   7.542   7.336   5.866  0.1906 -0.2526  0.2498
   54MOL   C72045346   7.434   7.372   5.969 -0.1789  0.5945  0.3252
   54MOL   C72145347   7.284   7.372   5.923  0.2634  0.2474  0.3194
   54MOL   C72245348   7.184   7.388   6.044 -0.6755  0.6483  0.7377
   54MOL   C72345349   7.034   7.379   6.013  0.1139  0.0695  0.0264
   54MOL   C72445350   6.932   7.404   6.125  0.0103 -0.0921 -0.1963
   54MOL   C72545351   6.922   7.289   6.237  0.3589 -1.1624 -0.0821
   54MOL   C72645352   6.789   7.302   6.318  0.1858 -0.2297  0.4609
   54MOL   C72745353   6.766   7.198   6.431  0.3936  0.2476 -1.2722
   54MOL   C72845354   6.620   7.177   6.471  0.3379 -0.2021 -0.3775
   54MOL   C72945355   6.603   7.039   6.536 -0.5116  0.5404 -0.3453
   54MOL   H73045356   0.022   7.240   5.661  0.9317  0.8254  0.4419
   54MOL   H73145357   0.100   7.320   5.539 -0.1068 -2.4431 -1.0351
   54MOL   H73245358   7.645   7.530   5.583  3.0406 -0.7338 -1.6121
   54MOL   H73345359   7.461   7.440   5.676 -0.3836 -0.8357  1.7887
   54MOL   H73445360   7.521   7.554   5.786 -0.2592  0.0922  0.6241
   54MOL   H73545361   7.528   7.238   5.820 -0.0373 -0.6508  1.1595
   54MOL   H73645362   7.642   7.337   5.909  0.8506 -2.1876 -1.1391
   54MOL   H73745363   7.463   7.309   6.053  1.7233  0.5188 -0.3571
   54MOL   H73845364   7.454   7.474   6.002 -0.1828  0.8402 -0.4166
   54MOL   H73945365   7.276   7.448   5.846 -1.2109 -1.7294 -1.5371
   54MOL   H74045366   7.263   7.270   5.888  0.8924  0.7068 -1.4433
   54MOL   H74145367   7.212   7.320   6.124  0.0838  0.5481  0.3928
   54MOL   H74245368   7.204   7.485   6.089 -1.4356  1.7054 -1.1642
   54MOL   H74345369   7.002   7.280   5.981 -1.0638  1.1368 -2.2633
   54MOL   H74445370   7.018   7.450   5.932 -3.0856 -0.9080 -0.2282
   54MOL   H74545371   6.963   7.496   6.175 -1.4309  0.8206 -0.9654
   54MOL   H74645372   6.840   7.411   6.067 -0.9348 -0.8728  1.1729
   54MOL   H74745373   6.925   7.189   6.195  0.5256 -1.0672 -0.2946
   54MOL   H74845374   7.005   7.295   6.306 -0.0417 -1.0568  0.3953
   54MOL   H74945375   6.786   7.400   6.366  0.2794 -0.2482  0.5053
   54MOL   H75045376   6.704   7.293   6.251  0.6440 -1.9922  0.1174
   54MOL   H75145377   6.803   7.100   6.399 -2.2399 -1.7932  1.6628
   54MOL   H75245378   6.815   7.226   6.524 -0.8880 -2.8749  0.4273
   54MOL   H75345379   6.538   7.182   6.399 -1.1861 -2.3994  1.1433
   54MOL   H75445380   6.592   7.248   6.549  0.2353  0.8727 -1.3903
   54MOL   H75545381   6.497   7.017   6.550 -0.3964 -0.1789 -0.5547
   54MOL   H75645382   6.661   7.031   6.628  0.1024  0.3540 -0.7439
   54MOL   H75745383   6.639   6.959   6.471 -0.7792  2.0485 -2.3754
   54MOL   C75845384   0.094   7.510   5.735  0.0079 -0.8840  0.6912
   54MOL   C75945385   0.209   7.557   5.637  0.4090 -0.3953  0.1642
   54MOL   C76045386   0.212   0.015   5.617 -0.3053 -0.1166 -0.3014
   54MOL   C76145387   0.280   0.080   5.488  0.0737 -0.6647  0.1810
   54MOL   C76245388   0.289   0.233   5.477  0.0311  0.3064  0.2184
   54MOL   C76345389   0.348   0.270   5.336 -0.4426 -0.0583  0.2341
   54MOL   C76445390   0.362   0.418   5.339  0.3021  0.2552 -0.1697
   54MOL   C76545391   0.452   0.461   5.222  0.9066  0.3229  0.2248
   54MOL   C76645392   0.450   0.617   5.216 -0.6162 -0.0969  0.3397
   54MOL   C76745393   0.511   0.704   5.334  0.3428 -0.2431  0.0190
   54MOL   C76845394   0.526   0.851   5.303 -0.1335  0.4286  0.0246
   54MOL   C76945395   0.630   0.894   5.198  0.1741  0.1047  0.7634
   54MOL   C77045396   0.563   0.924   5.058 -0.4917 -0.7663  0.2299
   54MOL   C77145397   0.506   1.071   5.059  0.1006 -0.3879 -0.0329
   54MOL   H77245398   0.065   7.594   5.797  2.1473  0.8467 -0.5764
   54MOL   H77345399   0.124   7.436   5.809 -0.4751  0.5079  2.2852
   54MOL   H77445400   0.203   7.515   5.536 -2.5756  2.3233 -0.8861
   54MOL   H77545401   0.108   0.047   5.613 -0.4707 -0.5819  0.1410
   54MOL   H77645402   0.257   0.052   5.709 -0.0819  0.5067 -0.6580
   54MOL   H77745403   0.372   0.028   5.463  0.3168 -0.2476  0.2091
   54MOL   H77845404   0.209   0.059   5.408 -0.0388 -1.7404  0.5520
   54MOL   H77945405   0.367   0.263   5.546  0.0650 -0.3271  0.4579
   54MOL   H78045406   0.188   0.272   5.488 -0.9332 -2.1271  0.2201
   54MOL   H78145407   0.272   0.242   5.264 -1.3814 -0.7440  1.4835
   54MOL   H78245408   0.437   0.209   5.324  1.2099  2.0453  1.3067
   54MOL   H78345409   0.266   0.468   5.325  0.0630  0.7090  2.8093
   54MOL   H78445410   0.399   0.461   5.432 -1.0801  3.3218 -0.9712
   54MOL   H78545411   0.412   0.420   5.130 -0.2700  0.9862  0.4270
   54MOL   H78645412   0.551   0.417   5.231  0.6145 -0.4986 -0.5926
   54MOL   H78745413   0.347   0.652   5.204 -0.4527 -0.0579 -1.0873
   54MOL   H78845414   0.480   0.643   5.114 -1.8493  0.0343 -0.0004
   54MOL   H78945415   0.612   0.668   5.350  0.3673 -0.1482  0.0727
   54MOL   H79045416   0.453   0.691   5.426 -3.2172  0.5652 -2.0235
   54MOL   H79145417   0.428   0.889   5.274 -1.0689 -0.9206  1.3683
   54MOL   H79245418   0.550   0.898   5.399 -0.2992 -0.9393  0.7416
   54MOL   H79345419   0.691   0.981   5.219  0.8460  0.0968 -1.0229
   54MOL   H79445420   0.702   0.814   5.178  0.9426  1.0578 -0.3508
   54MOL   H79545421   0.653   0.926   4.997 -1.5431 -0.2236 -1.3280
   54MOL   H79645422   0.495   0.843   5.031 -1.1244 -0.1311 -0.0871
   54MOL   H79745423   0.438   1.092   5.141  1.1585  0.5770  0.6037
   54MOL   H79845424   0.591   1.139   5.061  0.7426 -1.1154 -1.5493
   54MOL   H79945425   0.464   1.087   4.959 -0.2891  0.0188  0.1964
   54MOL   C80045426   0.341   7.508   5.691 -0.3651  0.5032 -0.2974
   54MOL   C80145427   0.354   7.352   5.684  0.7934  0.2590 -0.1252
   54MOL   C80245428   0.496   7.311   5.701 -0.8160 -0.1320 -0.5070
   54MOL   C80345429   0.497   7.155   5.683  0.2167 -0.0669 -0.3560
   54MOL   C80445430   0.635   7.090   5.672 -0.7342  0.7106  0.0500
   54MOL   C80545431   0.645   6.960   5.587  0.5882  0.2985 -0.1611
   54MOL   C80645432   0.786   6.910   5.572 -0.3307  0.1645  0.0827
   54MOL   C80745433   0.867   6.972   5.465  0.4494 -1.0098 -0.6283
   54MOL   C80845434   0.992   6.901   5.421  0.3230 -0.2513  0.4552
   54MOL   C80945435   1.040   6.956   5.284 -0.2573  0.4971 -0.0456
   54MOL   C81045436   1.136   6.857   5.222  0.6366 -0.2193 -0.1510
   54MOL   C81145437   1.179   6.915   5.081  0.2508  0.7361  0.4108
   54MOL   C81245438   1.243   6.812   4.982 -0.4016 -0.5828 -0.1732
   54MOL   C81345439   1.296   6.886   4.863  0.2545  0.5783  0.7815
   54MOL   H81445440   0.364   7.540   5.793  3.0022  0.8928 -1.1318
   54MOL   H81545441   0.418   7.551   5.627 -0.6669  1.3332 -0.1186
   54MOL   H81645442   0.330   7.322   5.582 -1.2428  0.5038  0.2634
   54MOL   H81745443   0.547   7.343   5.792 -0.0559  0.6105 -1.1870
   54MOL   H81845444   0.549   7.362   5.620  0.1190 -2.3542 -1.3302
   54MOL   H81945445   0.442   7.129   5.593  0.3230 -3.4639  0.5265
   54MOL   H82045446   0.443   7.109   5.765 -2.0977  0.5003 -1.4941
   54MOL   H82145447   0.689   7.167   5.616 -1.2681  0.6945 -0.4984
   54MOL   H82245448   0.674   7.076   5.772 -0.1440  1.2688 -0.0958
   54MOL   H82345449   0.609   6.985   5.487 -2.2862  1.9594  1.2276
   54MOL   H82445450   0.573   6.892   5.632  2.4654 -0.9827  0.9849
   54MOL   H82545451   0.851   6.913   5.660 -1.2913  1.7554  0.7523
   54MOL   H82645452   0.775   6.802   5.561 -0.5870  0.3383 -1.4927
   54MOL   H82745453   0.807   6.988   5.375  3.5537 -0.4660 -2.7018
   54MOL   H82845454   0.893   7.068   5.509  2.0048 -0.6763 -2.1943
   54MOL   H82945455   1.071   6.912   5.496  1.4715 -1.2932 -0.5807
   54MOL   H83045456   0.964   6.796   5.408 -0.0687 -0.1290  0.3085
   54MOL   H83145457   1.086   7.050   5.314  2.1917 -0.5047 -0.5544
   54MOL   H83245458   0.970   6.979   5.203 -0.5502  0.2806  0.1445
   54MOL   H83345459   1.220   6.844   5.289 -0.0757 -1.1989  0.5547
   54MOL   H83445460   1.081   6.764   5.208  0.5883 -0.0549 -1.1067
   54MOL   H83545461   1.257   6.988   5.103 -0.5846  1.3056  1.5220
   54MOL   H83645462   1.091   6.956   5.032  0.6438 -1.4001 -2.2047
   54MOL   H83745463   1.302   6.735   5.032 -0.7011 -1.4387 -1.1327
   54MOL   H83845464   1.153   6.763   4.946 -1.8486 -0.2157  2.8140
   54MOL   H83945465   1.337   6.983   4.892 -2.3758  1.4911  1.5408
   54MOL   H84045466   1.366   6.817   4.817 -0.7446  0.7932 -1.1199
   54MOL   H84145467   1.215   6.905   4.792  1.7076  2.2688 -0.4802
   54MOL   H84245468   0.279   7.305   5.748  0.1160  2.5609  0.8019
   55MOL     C145469   4.706   7.682   5.332 -0.2041  0.0851  0.6434
   55MOL     C245470   4.615   0.114   5.342  0.0248  0.5777 -0.1501
   55MOL     C345471   4.549   0.164   5.211 -0.0289  0.2713  0.5730
   55MOL     C445472   4.594   0.310   5.181  0.3532 -0.0965  0.7926
   55MOL     C545473   4.531   0.371   5.053 -0.0793 -0.0506  0.3765
   55MOL     C645474   4.575   0.508   5.015 -0.3251 -0.4409 -0.9746
   55MOL     C745475   4.476   0.582   4.912 -0.2324 -0.4991 -0.1165
   55MOL     C845476   4.534   0.713   4.850 -0.7185 -0.7647  0.0414
   55MOL     C945477   4.538   0.836   4.944 -0.4679 -0.8712 -0.2729
   55MOL    C1045478   4.595   0.974   4.897  0.4181  0.8191 -0.5228
   55MOL    C1145479   4.566   1.097   4.990 -0.5034  0.5736  0.4979
   55MOL    C1245480   4.628   1.224   4.940 -0.1335  0.5495 -0.2685
   55MOL    C1345481   4.590   1.346   5.025  0.5205  0.2241 -0.1839
   55MOL    C1445482   4.654   1.472   4.982  0.1444 -0.5500  0.1893
   55MOL    H1545483   4.651   7.597   5.291 -0.1103  0.1232  0.4403
   55MOL    H1645484   4.745   7.655   5.430  3.6645  3.6485  0.2009
   55MOL    H1745485   4.676   0.193   5.387 -0.4572  1.4650 -1.0321
   55MOL    H1845486   4.599   0.105   5.134 -0.3456  1.2680 -0.4067
   55MOL    H1945487   4.441   0.153   5.209  0.1017 -1.0248  0.1579
   55MOL    H2045488   4.701   0.317   5.162  0.1088 -0.1890 -0.6961
   55MOL    H2145489   4.564   0.367   5.269  0.0969 -1.2190  1.4422
   55MOL    H2245490   4.424   0.364   5.068 -0.0068  2.0681  2.0217
   55MOL    H2345491   4.543   0.303   4.968  0.6417 -1.5016  1.6157
   55MOL    H2445492   4.676   0.499   4.976  1.6703  1.2589  3.4745
   55MOL    H2545493   4.580   0.576   5.100 -0.3201  0.0183 -1.3401
   55MOL    H2645494   4.462   0.507   4.834 -0.3566 -1.0820  0.4603
   55MOL    H2745495   4.382   0.619   4.952  0.1108 -0.4386  0.6377
   55MOL    H2845496   4.469   0.740   4.767  2.0919 -2.1876 -2.6875
   55MOL    H2945497   4.634   0.706   4.809  0.2080 -0.2545  2.1399
   55MOL    H3045498   4.432   0.854   4.962 -0.2287  0.5755 -0.2028
   55MOL    H3145499   4.578   0.814   5.043 -1.8929 -0.5538  0.3878
   55MOL    H3245500   4.702   0.959   4.882  0.3769 -0.1448  0.1197
   55MOL    H3345501   4.558   0.983   4.795  2.9325 -0.6563 -1.6128
   55MOL    H3445502   4.458   1.103   4.994 -0.3862  2.2411  1.6956
   55MOL    H3545503   4.585   1.089   5.097  0.5614  1.0256  0.3583
   55MOL    H3645504   4.590   1.266   4.847 -2.2901  1.2382  0.8801
   55MOL    H3745505   4.737   1.223   4.937 -0.0903 -0.2999  1.3367
   55MOL    H3845506   4.483   1.362   5.039  0.2596 -0.3232 -1.5030
   55MOL    H3945507   4.633   1.319   5.121  2.0498  0.0534 -0.9192
   55MOL    H4045508   4.760   1.459   4.965 -0.0312  1.1659 -2.5122
   55MOL    H4145509   4.617   1.497   4.882 -1.0363 -1.2746  0.4285
   55MOL    H4245510   4.638   1.561   5.044  0.8800 -0.0934 -0.2704
   55MOL    H4345511   4.794   7.694   5.270 -0.1003 -2.2347  0.2987
   55MOL    C4445512   4.504   0.075   5.446 -0.4496 -0.0771  0.0178
   55MOL    C4545513   4.407   0.183   5.494  0.3315 -0.1596  0.2423
   55MOL    C4645514   4.477   0.317   5.559  0.2539  0.5401 -1.3362
   55MOL    C4745515   4.589   0.286   5.662  0.3730  0.0235  0.4534
   55MOL    C4845516   4.655   0.406   5.733  0.1834 -0.5744  0.5536
   55MOL    C4945517   4.782   0.365   5.813  0.4253 -1.0084 -0.2002
   55MOL    C5045518   4.841   0.463   5.914 -0.0736  0.7346 -0.0916
   55MOL    C5145519   4.740   0.495   6.024  0.3161  0.6209  0.0518
   55MOL    C5245520   4.799   0.568   6.140 -0.5701  0.0183 -0.2968
   55MOL    C5345521   4.805   0.720   6.130  0.2330 -1.0330  0.1085
   55MOL    C5445522   4.809   0.787   6.270  0.0798 -0.3483 -0.5056
   55MOL    C5545523   4.951   0.778   6.330 -0.4309  0.4159  0.1297
   55MOL    C5645524   4.974   0.885   6.447  0.8075  0.2986  0.2859
   55MOL    C5745525   4.878   0.858   6.565  0.1941  0.0448  0.3501
   55MOL    H5845526   4.437   0.001   5.403 -0.6454  0.2595 -0.2653
   55MOL    H5945527   4.550   0.030   5.533 -0.2237  0.3056  0.0968
   55MOL    H6045528   4.352   0.210   5.404  2.3560  2.2841 -0.3293
   55MOL    H6145529   4.517   0.365   5.470 -2.3445  0.3130 -2.6891
   55MOL    H6245530   4.417   0.394   5.608 -2.1686 -2.4931  0.6674
   55MOL    H6345531   4.663   0.233   5.602  0.9467  0.7285  0.5184
   55MOL    H6445532   4.568   0.208   5.735  1.5555 -1.7240 -1.0317
   55MOL    H6545533   4.586   0.453   5.803  1.9539 -0.0102  1.9840
   55MOL    H6645534   4.687   0.482   5.662 -1.6500 -0.3840 -0.0767
   55MOL    H6745535   4.776   0.264   5.852  0.7313 -0.8741  0.1891
   55MOL    H6845536   4.861   0.355   5.739  1.5942  0.8335  0.7486
   55MOL    H6945537   4.933   0.424   5.959  0.2899  3.6245  1.8447
   55MOL    H7045538   4.860   0.552   5.854 -0.1090 -1.3977 -3.3647
   55MOL    H7145539   4.708   0.399   6.066 -0.6307 -0.5232 -3.1685
   55MOL    H7245540   4.645   0.535   5.988  0.3585  1.0484  0.4202
   55MOL    H7345541   4.754   0.532   6.232  3.8529 -1.9740  1.2630
   55MOL    H7445542   4.903   0.536   6.148 -0.4856 -0.6964 -3.4291
   55MOL    H7545543   4.714   0.759   6.084  0.5763  0.3761  0.6101
   55MOL    H7645544   4.892   0.753   6.074  0.0382 -0.6547  0.0293
   55MOL    H7745545   4.732   0.746   6.335  0.7366 -2.7479 -1.1591
   55MOL    H7845546   4.784   0.892   6.261  0.0871 -0.1293  1.7972
   55MOL    H7945547   4.959   0.679   6.375 -1.3377  0.6594  0.8337
   55MOL    H8045548   5.030   0.787   6.255  0.7631  0.4675  1.3772
   55MOL    H8145549   4.959   0.986   6.409  2.0096  0.1708 -0.5713
   55MOL    H8245550   5.078   0.879   6.480 -0.0125  0.2690  2.9591
   55MOL    H8345551   4.772   0.870   6.542 -0.2703 -0.3863  2.1751
   55MOL    H8445552   4.896   0.917   6.655 -2.1185 -0.4206  1.1665
   55MOL    H8545553   4.903   0.758   6.601  2.7206  0.3987 -0.3064
   55MOL    C8645554   4.288   0.127   5.582 -0.6699 -0.4433  0.3832
   55MOL    C8745555   4.173   0.225   5.635 -0.2659  0.4381 -1.1873
   55MOL    C8845556   4.151   0.195   5.788 -0.4092 -0.1681 -0.7540
   55MOL    C8945557   4.260   0.272   5.865 -0.2969 -0.6910  0.0749
   55MOL    C9045558   4.255   0.263   6.012  0.0467 -0.3091  0.2326
   55MOL    C9145559   4.395   0.287   6.074  0.4488 -0.7563  1.0245
   55MOL    C9245560   4.468   0.152   6.092 -0.7110  0.1350  0.1188
   55MOL    C9345561   4.586   0.148   6.192  0.3888 -0.7396  0.7577
   55MOL    C9445562   4.573   0.231   6.321  0.4444  0.1995 -0.4993
   55MOL    C9545563   4.465   0.166   6.407 -0.0169 -0.1165  0.0641
   55MOL    C9645564   4.434   0.249   6.525  0.0964  0.9452 -0.2463
   55MOL    C9745565   4.327   0.174   6.608 -0.3308  0.5317  1.3423
   55MOL    C9845566   4.300   0.244   6.746  0.1757 -0.7674 -0.4617
   55MOL    C9945567   4.184   0.178   6.823  0.0371  0.0107  0.0813
   55MOL   H10045568   4.237   0.051   5.523 -0.6462 -0.6677  0.6506
   55MOL   H10145569   4.339   0.074   5.662 -0.2634 -0.1936  0.2964
   55MOL   H10245570   4.195   0.330   5.619 -1.1353  0.5071 -1.9755
   55MOL   H10345571   4.055   0.230   5.827  0.4075 -0.9434  2.0650
   55MOL   H10445572   4.159   0.090   5.817  3.0615  0.1448 -0.3604
   55MOL   H10545573   4.356   0.238   5.828 -0.7117 -0.6519 -1.0592
   55MOL   H10645574   4.259   0.375   5.829 -1.3858 -1.6666 -2.8506
   55MOL   H10745575   4.218   0.165   6.041 -0.3535 -0.0402  0.6307
   55MOL   H10845576   4.191   0.339   6.056 -0.4523 -1.3676  1.3831
   55MOL   H10945577   4.373   0.329   6.172 -0.9190  2.6118 -0.6654
   55MOL   H11045578   4.459   0.350   6.013  0.5083 -1.4976  0.3112
   55MOL   H11145579   4.398   0.074   6.124 -2.0362  1.5361  0.7139
   55MOL   H11245580   4.498   0.127   5.991  0.1623 -2.9843  1.1087
   55MOL   H11345581   4.675   0.187   6.141 -0.1939  1.2136  1.1908
   55MOL   H11445582   4.602   0.043   6.214 -1.7095 -0.7260  2.4688
   55MOL   H11545583   4.660   0.247   6.385  0.3816  0.6524 -0.5272
   55MOL   H11645584   4.547   0.333   6.294  2.4784  0.8356 -0.1391
   55MOL   H11745585   4.510   0.072   6.439 -1.8506 -1.4195 -1.1282
   55MOL   H11845586   4.368   0.158   6.359  0.5269  0.4520 -1.1578
   55MOL   H11945587   4.525   0.268   6.583 -0.7576 -1.9756  2.1740
   55MOL   H12045588   4.398   0.348   6.495 -0.0744  2.0004  3.1565
   55MOL   H12145589   4.235   0.171   6.549  0.3627  1.5854  0.1885
   55MOL   H12245590   4.370   0.076   6.625  1.2978  0.9324 -0.3221
   55MOL   H12345591   4.279   0.349   6.724 -0.2514 -0.5266  1.0763
   55MOL   H12445592   4.390   0.255   6.806  1.2531  0.6471 -2.2743
   55MOL   H12545593   4.124   0.248   6.882  0.5479  1.3812 -1.0114
   55MOL   H12645594   4.123   0.124   6.750 -0.8326  1.4256 -0.2556
   55MOL   H12745595   4.227   0.104   6.891  0.6738  1.1883  0.9555
   55MOL   C12845596   4.038   0.194   5.562 -1.2865 -0.5633  0.0216
   55MOL   C12945597   4.036   0.207   5.406  0.5381  0.1620  0.1103
   55MOL   C13045598   3.888   0.193   5.367  0.0555 -0.7140  0.3487
   55MOL   C13145599   3.844   0.054   5.359  0.7644  1.2314 -0.0559
   55MOL   C13245600   3.698   0.032   5.314 -0.3106 -0.6506 -0.1962
   55MOL   C13345601   3.665   7.589   5.263 -0.4081  0.3191  0.4956
   55MOL   C13445602   3.729   7.538   5.134  1.0869  0.1010 -0.1614
   55MOL   C13545603   3.676   7.595   4.997  0.2914 -1.2034  0.1358
   55MOL   C13645604   3.755   7.526   4.878 -0.5330 -0.0791  0.3938
   55MOL   C13745605   3.713   7.567   4.735 -0.8528 -0.3206  0.1202
   55MOL   C13845606   3.584   7.497   4.701  0.0997 -0.8187  0.0939
   55MOL   C13945607   3.544   7.538   4.559  0.4053 -0.1483 -0.8455
   55MOL   C14045608   3.620   7.498   4.437 -0.4678 -0.3415 -0.1587
   55MOL   C14145609   3.548   7.567   4.323 -0.3249 -0.0474  0.0737
   55MOL   H14245610   3.988   0.108   5.606 -2.3237 -0.1451 -0.3261
   55MOL   H14345611   3.975   0.272   5.604 -1.5678 -1.2479  0.8943
   55MOL   H14445612   4.096   0.124   5.368  1.9886  1.6606 -0.9660
   55MOL   H14545613   3.817   0.245   5.430  1.4810  0.8276  0.7333
   55MOL   H14645614   3.872   0.230   5.265 -2.4190  0.7823  1.2477
   55MOL   H14745615   3.908   0.012   5.281 -0.6770  0.4259 -0.8183
   55MOL   H14845616   3.864   7.693   5.450  0.7186  1.2523 -0.0337
   55MOL   H14945617   3.631   0.066   5.393 -1.8047 -1.0190 -1.2810
   55MOL   H15045618   3.686   0.097   5.227  1.1601 -1.9902 -1.4288
   55MOL   H15145619   3.693   7.526   5.348 -0.7723  0.4835  0.7397
   55MOL   H15245620   3.557   7.574   5.265 -0.3062 -0.3178  2.2357
   55MOL   H15345621   3.836   7.563   5.135  1.6136 -1.9801 -1.3426
   55MOL   H15445622   3.718   7.430   5.133  0.0169  0.2187 -1.4405
   55MOL   H15545623   3.570   7.588   4.975  0.2573 -1.1602  0.2865
   55MOL   H15645624   3.687   0.008   5.003 -0.5734 -1.1722  1.4634
   55MOL   H15745625   3.861   7.550   4.891 -0.1168 -2.0380  0.8857
   55MOL   H15845626   3.751   7.418   4.895  0.8505 -0.3815 -1.1109
   55MOL   H15945627   3.801   7.540   4.676 -1.6567  0.7943 -1.6108
   55MOL   H16045628   3.693   7.673   4.724 -2.6216 -0.7093 -0.5358
   55MOL   H16145629   3.598   7.389   4.700  2.0304 -0.5706 -1.0766
   55MOL   H16245630   3.506   7.513   4.776  0.3780 -0.1286  0.2334
   55MOL   H16345631   3.438   7.520   4.543 -0.2343  1.3870  1.3621
   55MOL   H16445632   3.542   7.647   4.565 -0.0448 -0.1478 -0.9758
   55MOL   H16545633   3.721   7.538   4.440 -0.6957  0.2997 -0.6701
   55MOL   H16645634   3.627   7.390   4.433 -0.0568 -0.2940 -0.8404
   55MOL   H16745635   3.554   7.675   4.329  0.9371 -0.0151 -1.3660
   55MOL   H16845636   3.611   7.549   4.235  0.2538 -0.8749  0.6534
   55MOL   H16945637   3.443   7.540   4.309  0.1176 -1.4951 -0.5148
   55MOL   C17045638   4.092   0.347   5.359 -0.1954 -0.5043 -0.2216
   55MOL   C17145639   4.092   0.388   5.210  0.2396 -0.3307  0.6615
   55MOL   C17245640   4.186   0.506   5.197  0.0442  0.0683  0.0285
   55MOL   C17345641   4.129   0.640   5.240 -0.3659 -0.1484  0.0522
   55MOL   C17445642   4.227   0.747   5.194 -0.7577 -0.2586  0.3053
   55MOL   C17545643   4.166   0.886   5.216  0.3120  0.2639 -0.2184
   55MOL   C17645644   4.244   1.008   5.150 -0.6944  0.2814  0.2046
   55MOL   C17745645   4.216   1.144   5.215 -0.5175 -0.2847  0.4674
   55MOL   C17845646   4.071   1.193   5.177  0.4305  0.3737  0.3867
   55MOL   C17945647   4.055   1.346   5.191  0.8230 -0.5989  0.3370
   55MOL   C18045648   3.916   1.402   5.137  0.5306 -0.1298  0.0703
   55MOL   C18145649   3.880   1.542   5.190  0.1186  0.3555 -0.0143
   55MOL   C18245650   3.734   1.575   5.196 -0.0274 -0.1537  0.7587
   55MOL   C18345651   3.708   1.723   5.222  0.1514  0.5369  0.0177
   55MOL   H18445652   4.192   0.345   5.401 -0.7461 -0.5638  1.1294
   55MOL   H18545653   4.042   0.428   5.413 -1.0565 -1.0007 -0.2655
   55MOL   H18645654   3.988   0.399   5.179  0.2347 -0.1919  0.7250
   55MOL   H18745655   4.285   0.483   5.235  0.0733 -0.2444 -0.2328
   55MOL   H18845656   4.206   0.509   5.090 -1.0980 -0.8602 -0.2251
   55MOL   H18945657   4.029   0.646   5.195 -0.7975 -0.3827  0.9710
   55MOL   H19045658   4.110   0.635   5.347 -2.5855 -1.8803 -0.3619
   55MOL   H19145659   4.313   0.737   5.260 -0.7829 -0.4753  0.3035
   55MOL   H19245660   4.266   0.737   5.093  0.2769  0.0163  0.6689
   55MOL   H19345661   4.155   0.913   5.322 -0.2205  1.9916 -0.6874
   55MOL   H19445662   4.070   0.900   5.168 -1.8050  1.4174  4.1275
   55MOL   H19545663   4.232   1.008   5.041  0.5458  0.1635  0.0599
   55MOL   H19645664   4.352   1.010   5.167 -0.8498  1.9167  1.0684
   55MOL   H19745665   4.289   1.216   5.178  1.0336 -0.8279  2.4045
   55MOL   H19845666   4.227   1.133   5.323  2.0566  2.2774  0.5327
   55MOL   H19945667   4.008   1.144   5.251  1.1194  0.3237  0.9524
   55MOL   H20045668   4.038   1.153   5.082  0.1287  0.1151  0.6012
   55MOL   H20145669   4.135   1.416   5.169  0.6982 -1.2461 -2.3240
   55MOL   H20245670   4.041   1.368   5.297  1.8024  1.3489  0.0781
   55MOL   H20345671   3.835   1.333   5.159 -0.0060  1.0698  2.0207
   55MOL   H20445672   3.915   1.411   5.028  2.7943  0.7238  0.0958
   55MOL   H20545673   3.924   1.561   5.288 -0.6026  3.9068 -0.3444
   55MOL   H20645674   3.926   1.624   5.135  0.8674  0.7907  1.2324
   55MOL   H20745675   3.678   1.546   5.107  0.6023 -0.8495  0.5928
   55MOL   H20845676   3.691   1.518   5.279 -0.7393 -1.1366 -0.2771
   55MOL   H20945677   3.604   1.729   5.255 -0.2577  0.2755 -1.1833
   55MOL   H21045678   3.731   1.791   5.141  0.7327 -0.6601 -0.8371
   55MOL   H21145679   3.757   1.758   5.313  0.1429 -1.4686  0.8308
   55MOL   C21245680   4.145   0.271   5.118 -0.5736 -0.0941 -0.6554
   55MOL   C21345681   4.126   0.285   4.956 -0.3594  0.8910  0.1874
   55MOL   C21445682   4.157   0.145   4.895  0.1778  0.0646  0.2343
   55MOL   C21545683   4.225   0.146   4.750 -0.6236  0.0562 -0.6676
   55MOL   C21645684   4.230   0.002   4.694 -0.6412  0.1633 -0.2575
   55MOL   C21745685   4.321   7.684   4.573  0.2999 -0.2278 -0.9717
   55MOL   C21845686   4.471   7.656   4.581 -0.0369  0.1619 -0.2307
   55MOL   C21945687   4.530   7.614   4.448 -0.0693 -0.0412  0.4985
   55MOL   C22045688   4.478   7.477   4.402 -0.6279 -0.3268 -0.2399
   55MOL   C22145689   4.525   7.367   4.497 -0.2689 -0.7100 -0.2035
   55MOL   C22245690   4.519   7.226   4.430 -0.0998  0.1066  0.0713
   55MOL   C22345691   4.518   7.110   4.527 -0.0346  0.1156 -0.1828
   55MOL   C22445692   4.396   7.085   4.616  0.1221  0.0075  0.4015
   55MOL   C22545693   4.399   6.946   4.682 -0.2458 -0.3641 -0.0402
   55MOL   H22645694   4.093   0.177   5.136 -1.7702 -0.2433 -4.5133
   55MOL   H22745695   4.250   0.253   5.143 -1.0137  0.3837  1.6629
   55MOL   H22845696   4.201   0.353   4.916 -1.4608 -0.1535 -3.9159
   55MOL   H22945697   4.223   0.084   4.956  0.4308 -1.0731 -1.1429
   55MOL   H23045698   4.071   0.079   4.883 -0.1077  0.3275  0.8280
   55MOL   H23145699   4.327   0.185   4.752 -0.0107 -1.5699 -0.0198
   55MOL   H23245700   4.179   0.199   4.666 -2.0678 -0.7887 -0.4378
   55MOL   H23345701   4.132   7.679   4.649  0.1057 -0.9021 -1.4978
   55MOL   H23445702   4.244   7.624   4.773  1.3614  1.0285  0.2093
   55MOL   H23545703   4.307   0.077   4.510  1.0867 -1.5427 -3.0264
   55MOL   H23645704   4.274   7.604   4.517 -0.5073 -0.4950  0.0730
   55MOL   H23745705   4.517   0.055   4.610  0.5888  0.9010 -3.4197
   55MOL   H23845706   4.497   7.583   4.658  1.3141  0.2141 -0.6140
   55MOL   H23945707   4.521   7.690   4.370  2.1123  0.4252  0.6664
   55MOL   H24045708   4.638   7.617   4.463 -0.0010  1.0851 -0.0997
   55MOL   H24145709   4.530   7.448   4.311 -0.0428  1.4607 -0.4954
   55MOL   H24245710   4.371   7.473   4.382 -0.6239  1.2020 -0.6156
   55MOL   H24345711   4.627   7.394   4.525 -0.7489  1.3440 -0.3521
   55MOL   H24445712   4.467   7.360   4.589 -1.5873 -2.0588 -1.1185
   55MOL   H24545713   4.608   7.219   4.368 -1.2468  1.7249 -1.7958
   55MOL   H24645714   4.441   7.212   4.356  1.8555 -2.3087 -1.6029
   55MOL   H24745715   4.610   7.108   4.586  0.0784  0.7994 -0.3326
   55MOL   H24845716   4.526   7.025   4.458  0.8524 -0.1337  0.2142
   55MOL   H24945717   4.305   7.100   4.557  1.3631 -0.4291 -1.6906
   55MOL   H25045718   4.395   7.168   4.687 -2.4489  0.8978 -0.6157
   55MOL   H25145719   4.420   6.870   4.607 -3.5169  1.1304 -2.6209
   55MOL   H25245720   4.484   6.952   4.750 -1.0398 -0.3606  0.9634
   55MOL   H25345721   4.307   6.925   4.737  0.1286 -1.6401  0.1198
   55MOL   C25445722   3.988   0.322   4.905  0.1558 -0.2521  0.3558
   55MOL   C25545723   3.935   0.470   4.903 -0.2177  0.3880  0.3410
   55MOL   C25645724   4.033   0.562   4.837 -0.0865  0.1323 -0.4096
   55MOL   C25745725   3.990   0.709   4.843  0.3806  0.1230 -0.3173
   55MOL   C25845726   4.096   0.806   4.774 -0.3724 -0.5255 -0.0539
   55MOL   C25945727   4.054   0.956   4.797 -0.2809  0.0302  0.2525
   55MOL   C26045728   4.166   1.052   4.746  0.8323  0.4197  0.0814
   55MOL   C26145729   4.156   1.200   4.778  0.1016 -0.4100  0.4950
   55MOL   C26245730   4.285   1.272   4.722 -0.0125  0.5964  0.2997
   55MOL   C26345731   4.282   1.428   4.765  0.7691 -0.5671  0.0194
   55MOL   C26445732   4.386   1.509   4.676 -0.4923  0.1327 -0.2043
   55MOL   C26545733   4.388   1.667   4.701 -0.1717  0.5400  0.7733
   55MOL   C26645734   4.243   1.724   4.702 -0.2996 -0.1333  0.6534
   55MOL   C26745735   4.242   1.879   4.692  0.0702 -0.4267 -0.3750
   55MOL   H26845736   3.919   0.269   4.970 -2.0835  0.2524 -1.5186
   55MOL   H26945737   3.976   0.287   4.802  2.2091  0.4843 -0.1728
   55MOL   H27045738   3.922   0.501   5.007  0.8514 -2.7226  1.4424
   55MOL   H27145739   4.025   0.540   4.730  1.6581 -2.0923 -0.1339
   55MOL   H27245740   4.133   0.552   4.877 -0.9193 -0.0866  1.7046
   55MOL   H27345741   3.977   0.727   4.950 -0.1789 -1.6828 -0.0580
   55MOL   H27445742   3.891   0.732   4.804  0.6523  1.6871 -0.0844
   55MOL   H27545743   4.113   0.790   4.667 -0.1444  1.5946 -0.3568
   55MOL   H27645744   4.198   0.793   4.811 -0.9576 -0.9550  1.4524
   55MOL   H27745745   4.050   0.967   4.905 -0.9164  2.4790  0.0131
   55MOL   H27845746   3.954   0.974   4.759  1.3120  3.6844 -2.5083
   55MOL   H27945747   4.260   1.015   4.787  2.5902  1.6988 -2.6296
   55MOL   H28045748   4.175   1.042   4.637 -1.1512 -0.6184 -0.0120
   55MOL   H28145749   4.134   1.216   4.883  0.7129  0.2763  0.5197
   55MOL   H28245750   4.076   1.246   4.720  2.0176  2.1752 -0.1822
   55MOL   H28345751   4.374   1.232   4.770 -0.3983 -2.0050 -1.0410
   55MOL   H28445752   4.290   1.256   4.614  0.4369 -2.0129  0.6807
   55MOL   H28545753   4.288   1.434   4.873  1.7228 -0.7289 -0.0216
   55MOL   H28645754   4.180   1.460   4.743  0.5671 -0.5709  0.9243
   55MOL   H28745755   4.351   1.500   4.573 -0.8612  0.8217 -0.1444
   55MOL   H28845756   4.488   1.473   4.668 -0.8400 -0.6671 -1.1595
   55MOL   H28945757   4.435   1.676   4.799  0.8403 -1.7902  0.5249
   55MOL   H29045758   4.452   1.723   4.634 -2.2154  0.4757 -1.2963
   55MOL   H29145759   4.182   1.684   4.621 -0.5726  1.2155  0.1694
   55MOL   H29245760   4.184   1.696   4.789  0.3291  0.6185  1.3264
   55MOL   H29345761   4.142   1.911   4.722  0.5208  0.8540 -0.2146
   55MOL   H29445762   4.256   1.923   4.594 -0.4020  1.3335  0.3223
   55MOL   H29545763   4.316   1.932   4.753 -0.5380 -2.6633  2.4523
   55MOL   C29645764   3.793   0.465   4.842  1.5258 -0.2652 -0.2583
   55MOL   C29745765   3.675   0.549   4.900 -0.0358  0.4665 -0.3710
   55MOL   C29845766   3.582   0.601   4.787  0.5536 -0.4905  0.9420
   55MOL   C29945767   3.464   0.692   4.828  0.0180 -0.1854  0.0073
   55MOL   C30045768   3.394   0.754   4.703  0.2162 -0.3045 -0.1226
   55MOL   C30145769   3.317   0.880   4.740  0.3752  0.1394  0.4520
   55MOL   C30245770   3.250   0.951   4.627 -0.1733 -0.3011  0.5303
   55MOL   C30345771   3.164   1.068   4.664  0.7144 -0.2509  0.2909
   55MOL   C30445772   3.019   1.027   4.698  0.3525  0.0491  0.1079
   55MOL   C30545773   2.936   1.154   4.662  0.7248  0.3159  0.4462
   55MOL   C30645774   2.949   1.279   4.753  0.1462  0.6288 -0.1754
   55MOL   C30745775   2.851   1.392   4.726 -0.4138 -0.5199 -0.0496
   55MOL   C30845776   2.867   1.514   4.818 -0.8186  0.2813 -0.4768
   55MOL   C30945777   2.747   1.612   4.825  0.4447  0.2857  0.4386
   55MOL   H31045778   3.766   0.360   4.829  1.0202 -0.0456 -1.0145
   55MOL   H31145779   3.807   0.489   4.736 -2.0386 -1.1951 -0.9894
   55MOL   H31245780   3.712   0.640   4.946 -1.3516  0.7443  0.1510
   55MOL   H31345781   3.549   0.522   4.719  0.7226  0.2955 -0.0655
   55MOL   H31445782   3.649   0.653   4.719 -1.5802  0.8361 -0.1701
   55MOL   H31545783   3.490   0.769   4.899 -2.1831  1.1374 -0.5744
   55MOL   H31645784   3.394   0.627   4.880  1.5191 -0.8098  1.2959
   55MOL   H31745785   3.466   0.767   4.621  0.6814 -0.1058  0.3121
   55MOL   H31845786   3.319   0.681   4.672 -1.2152  1.8363 -1.8675
   55MOL   H31945787   3.377   0.953   4.795 -0.3944  2.4457 -1.6908
   55MOL   H32045788   3.240   0.837   4.804 -1.3313 -0.0251 -1.6531
   55MOL   H32145789   3.328   0.991   4.562 -0.6794  1.5986  1.0667
   55MOL   H32245790   3.193   0.880   4.567 -1.8127 -1.0410  2.8523
   55MOL   H32345791   3.155   1.142   4.584 -1.1519  0.2104  0.9141
   55MOL   H32445792   3.201   1.135   4.741  1.1448 -0.0324 -0.0974
   55MOL   H32545793   2.973   0.941   4.649  1.6027  0.0039 -1.0393
   55MOL   H32645794   3.005   1.016   4.805  0.8650 -1.5852  0.0153
   55MOL   H32745795   2.833   1.126   4.679  0.5369  1.0951  0.6151
   55MOL   H32845796   2.941   1.186   4.558  1.7627 -1.8555 -0.2063
   55MOL   H32945797   3.049   1.321   4.748 -0.0818  1.4628  1.8902
   55MOL   H33045798   2.931   1.246   4.855  0.0296  0.9327 -0.0968
   55MOL   H33145799   2.751   1.352   4.738  0.1144 -1.9609 -0.3193
   55MOL   H33245800   2.855   1.441   4.629 -1.5158  2.9302  1.5853
   55MOL   H33345801   2.949   1.576   4.781 -2.6926  2.9228 -0.4414
   55MOL   H33445802   2.895   1.475   4.916 -0.7177 -0.2692 -0.7231
   55MOL   H33545803   2.667   1.568   4.885 -0.6214  1.9740  0.2823
   55MOL   H33645804   2.784   1.708   4.861  1.3733  1.4596 -3.4328
   55MOL   H33745805   2.713   1.633   4.724  0.8240 -1.8617 -0.1591
   55MOL   C33845806   3.612   0.466   5.007  0.7654  0.2152 -0.4389
   55MOL   C33945807   3.572   0.528   5.146  0.3368 -0.3105  0.0336
   55MOL   C34045808   3.428   0.494   5.200 -0.8822  0.5039 -0.1174
   55MOL   C34145809   3.413   0.342   5.218 -0.3343  0.1106 -0.4734
   55MOL   C34245810   3.266   0.296   5.250  0.1901  0.0278 -0.5402
   55MOL   C34345811   3.273   0.144   5.242  0.0054  0.5426  0.6649
   55MOL   C34445812   3.141   0.077   5.283 -0.4255 -0.2384  0.2408
   55MOL   C34545813   3.138   7.619   5.268 -0.4507 -0.3637 -0.1062
   55MOL   C34645814   3.263   7.554   5.337  0.0971  0.3074  0.1772
   55MOL   C34745815   3.230   7.403   5.349 -0.1962  0.5606 -0.3717
   55MOL   C34845816   3.365   7.327   5.382  0.1458 -0.2345  0.2704
   55MOL   C34945817   3.353   7.181   5.412 -0.0205 -0.2438 -1.0670
   55MOL   C35045818   3.463   7.110   5.494  0.6260  0.2315 -0.4955
   55MOL   C35145819   3.454   6.963   5.475  0.3955 -0.3626  0.7776
   55MOL   H35245820   3.535   0.402   4.961  0.3848 -0.3163  0.9199
   55MOL   H35345821   3.690   0.397   5.038  0.8118  1.0082  1.2299
   55MOL   H35445822   3.565   0.636   5.136 -0.1946 -0.1279  2.0135
   55MOL   H35545823   3.398   0.542   5.293 -1.5565  2.5588 -1.3672
   55MOL   H35645824   3.360   0.527   5.121 -1.8542 -2.9035 -0.8146
   55MOL   H35745825   3.480   0.300   5.292 -1.1650 -0.6770 -0.1575
   55MOL   H35845826   3.446   0.290   5.128  2.4125  2.4692 -0.9052
   55MOL   H35945827   3.198   0.346   5.181  0.1758  2.3354  1.0863
   55MOL   H36045828   3.225   0.330   5.345 -1.6518  0.4605 -1.4745
   55MOL   H36145829   3.306   0.103   5.146 -0.7965  1.5540 -0.0491
   55MOL   H36245830   3.353   0.120   5.312  1.3474 -1.8533 -1.6151
   55MOL   H36345831   3.117   0.088   5.389 -2.1393  1.9502 -0.3457
   55MOL   H36445832   3.057   0.115   5.225 -1.0162 -1.0362  0.5633
   55MOL   H36545833   3.046   7.590   5.319  0.0479 -1.1931  0.3223
   55MOL   H36645834   3.132   7.591   5.162  2.2287  1.7113 -0.8577
   55MOL   H36745835   3.354   7.559   5.276 -0.3139  2.3472 -0.2929
   55MOL   H36845836   3.288   7.593   5.436 -0.7601 -0.7265  0.8123
   55MOL   H36945837   3.164   7.388   5.435  0.0564  0.5577 -0.1759
   55MOL   H37045838   3.195   7.366   5.253 -0.3752  0.6315 -0.3323
   55MOL   H37145839   3.407   7.379   5.468 -0.4801  0.9646 -0.1495
   55MOL   H37245840   3.444   7.332   5.306  0.2911  1.7508  0.5442
   55MOL   H37345841   3.345   7.131   5.315  0.4779 -0.0095 -1.2303
   55MOL   H37445842   3.264   7.160   5.471 -0.4126 -1.2969 -2.0095
   55MOL   H37545843   3.565   7.141   5.475  1.3864 -2.3613 -0.8877
   55MOL   H37645844   3.450   7.122   5.601 -1.0109 -2.0490 -0.3913
   55MOL   H37745845   3.480   6.938   5.372  0.2121  0.1776  0.6025
   55MOL   H37845846   3.531   6.915   5.537 -0.7831 -0.6036  2.0934
   55MOL   H37945847   3.365   6.908   5.506 -1.3231  1.0047 -1.6441
   55MOL   C38045848   3.684   0.506   5.252  0.1011  0.3161  0.3140
   55MOL   C38145849   3.683   0.612   5.368 -0.2518  0.4552 -0.1880
   55MOL   C38245850   3.704   0.551   5.512 -0.2992 -0.0108 -0.1410
   55MOL   C38345851   3.672   0.638   5.642 -0.8633 -0.4416 -0.0869
   55MOL   C38445852   3.745   0.595   5.771  0.2073  0.1907  0.2314
   55MOL   C38545853   3.718   0.698   5.883  0.0624  0.1108 -0.3175
   55MOL   C38645854   3.805   0.675   6.012 -0.3872 -0.1475 -0.0339
   55MOL   C38745855   3.779   0.788   6.119  0.0890  1.2208  0.7417
   55MOL   C38845856   3.815   0.740   6.264 -0.6466 -0.0269  0.4514
   55MOL   C38945857   3.789   0.859   6.356 -0.3706 -0.1483 -0.1155
   55MOL   C39045858   3.869   0.835   6.483  1.1419  0.5151 -0.1530
   55MOL   C39145859   3.820   0.931   6.604  0.3665 -0.0124 -0.2232
   55MOL   C39245860   3.904   0.914   6.730  0.5320  0.0475  0.4989
   55MOL   C39345861   3.863   1.003   6.850  0.1905  0.2068  0.1836
   55MOL   H39445862   3.775   0.519   5.193  0.7377  1.1261  1.4694
   55MOL   H39545863   3.682   0.406   5.296 -0.8983  0.1449 -0.1192
   55MOL   H39645864   3.585   0.658   5.379 -0.9620 -1.1132  0.1991
   55MOL   H39745865   3.812   0.534   5.517 -0.0619  0.9536 -1.7357
   55MOL   H39845866   3.662   0.450   5.519  0.5483 -0.3484  0.1679
   55MOL   H39945867   3.564   0.647   5.659 -0.7699 -1.0476  0.8072
   55MOL   H40045868   3.688   0.744   5.623  0.3800 -0.3326  1.5090
   55MOL   H40145869   3.853   0.605   5.755 -0.0999  1.3495 -1.1998
   55MOL   H40245870   3.727   0.491   5.797 -1.3964  0.0082 -1.5465
   55MOL   H40345871   3.611   0.682   5.899 -0.2430  1.1449 -1.2951
   55MOL   H40445872   3.724   0.800   5.847 -0.0212 -0.4786 -2.0197
   55MOL   H40545873   3.784   0.576   6.052  0.6694  0.0253  0.9780
   55MOL   H40645874   3.909   0.677   5.981 -0.0012 -0.1186  1.2264
   55MOL   H40745875   3.834   0.878   6.090  2.3138 -0.3383 -0.0124
   55MOL   H40845876   3.671   0.803   6.123 -0.1892 -0.2148 -0.7733
   55MOL   H40945877   3.745   0.660   6.287 -0.2327 -0.5148  0.0361
   55MOL   H41045878   3.914   0.695   6.271 -1.3316 -1.4278  1.2786
   55MOL   H41145879   3.682   0.875   6.362 -0.3864  0.1923 -1.2741
   55MOL   H41245880   3.817   0.960   6.326 -0.2441  0.1316  0.9156
   55MOL   H41345881   3.858   0.731   6.515  0.1294 -0.1213 -2.4852
   55MOL   H41445882   3.977   0.847   6.472  0.9886  1.7128 -0.3983
   55MOL   H41545883   3.713   0.929   6.623  0.2367  0.3740 -0.8863
   55MOL   H41645884   3.829   1.036   6.577  0.5085  0.1482  0.4373
   55MOL   H41745885   3.889   0.811   6.762  0.1139  0.2272  0.8819
   55MOL   H41845886   4.010   0.928   6.711  0.2246  1.0801 -0.5844
   55MOL   H41945887   3.823   1.102   6.827  0.6474  0.5131  0.6800
   55MOL   H42045888   3.951   0.997   6.915  0.6709  0.4556 -0.4333
   55MOL   H42145889   3.790   0.949   6.909  0.8678  0.3166  1.1458
   55MOL   C42245890   3.770   0.731   5.326 -0.3156 -0.9377 -0.1530
   55MOL   C42345891   3.728   0.873   5.373 -0.4385 -0.4011  0.2450
   55MOL   C42445892   3.847   0.966   5.379  0.4928 -0.1851  0.1883
   55MOL   C42545893   3.938   0.946   5.494  0.5565 -0.1437 -0.5174
   55MOL   C42645894   3.883   0.993   5.634 -0.2011 -0.0226 -0.0184
   55MOL   C42745895   3.987   0.996   5.738 -0.2376 -0.1712 -0.8756
   55MOL   C42845896   3.937   1.034   5.879  0.4089 -0.4040  0.7900
   55MOL   C42945897   4.038   1.020   6.004  1.0929 -0.4128 -0.7819
   55MOL   C43045898   4.018   1.116   6.124 -0.7734 -0.3497 -0.0083
   55MOL   C43145899   4.093   1.063   6.254 -0.4003  0.1686  0.1279
   55MOL   C43245900   4.053   1.142   6.371 -0.2254 -0.5768  0.1822
   55MOL   C43345901   4.121   1.277   6.374 -0.5353  0.6535  0.3682
   55MOL   C43445902   4.103   1.348   6.509 -0.4533 -0.5135 -0.0739
   55MOL   C43545903   4.167   1.290   6.636  0.7153 -0.1523 -0.6771
   55MOL   H43645904   3.771   0.744   5.218 -1.2495  1.7114  0.1076
   55MOL   H43745905   3.874   0.707   5.346  0.0980  0.8719 -0.0388
   55MOL   H43845906   3.684   0.871   5.473 -2.2813  2.1614 -0.4557
   55MOL   H43945907   3.827   1.073   5.382  0.1405 -0.1969 -1.6603
   55MOL   H44045908   3.890   0.970   5.279 -0.9122 -2.2041 -0.5354
   55MOL   H44145909   3.973   0.844   5.508  0.5243 -0.5009 -2.8637
   55MOL   H44245910   4.032   1.000   5.483  0.5574  0.5558  2.5169
   55MOL   H44345911   3.802   0.933   5.676 -0.8821  1.5288  0.9586
   55MOL   H44445912   3.852   1.098   5.627 -0.6198 -0.2451 -1.6082
   55MOL   H44545913   4.077   1.056   5.721  0.0317 -0.4930 -0.5765
   55MOL   H44645914   4.036   0.899   5.748 -0.8528 -0.5390 -1.3668
   55MOL   H44745915   3.901   1.136   5.875  0.7320 -0.3427 -0.9577
   55MOL   H44845916   3.849   0.982   5.917 -0.7322  0.2051 -0.9649
   55MOL   H44945917   4.042   0.916   6.037  1.2105  1.0059  4.0346
   55MOL   H45045918   4.143   1.038   5.980  1.4670 -1.4454  0.0150
   55MOL   H45145919   4.049   1.213   6.084 -0.1891 -0.3983  0.3154
   55MOL   H45245920   3.911   1.129   6.137 -0.8148 -2.1185  1.6468
   55MOL   H45345921   4.080   0.956   6.263 -2.0927  0.0843 -2.7635
   55MOL   H45445922   4.199   1.080   6.232 -0.2414 -2.0658 -0.9025
   55MOL   H45545923   3.946   1.161   6.376 -0.5426 -2.2398 -0.1041
   55MOL   H45645924   4.071   1.088   6.464 -0.1128 -2.1433 -0.7369
   55MOL   H45745925   4.071   1.342   6.302 -1.3066  2.0672  2.1500
   55MOL   H45845926   4.227   1.284   6.349 -0.7873 -0.0350 -0.9590
   55MOL   H45945927   4.139   1.451   6.506 -2.8658  0.4933  3.1640
   55MOL   H46045928   3.996   1.351   6.529 -0.5264 -1.9793 -0.2167
   55MOL   H46145929   4.275   1.280   6.625  0.6768 -0.4995 -0.7506
   55MOL   H46245930   4.121   1.197   6.669  3.1902 -0.3469  2.5812
   55MOL   H46345931   4.154   1.356   6.722  1.5093  1.2801 -1.6220
   55MOL   C46445932   3.613   0.928   5.284  0.4509 -0.1025  0.7736
   55MOL   C46545933   3.539   1.052   5.326  0.1690 -1.0461  0.2555
   55MOL   C46645934   3.477   1.123   5.204  0.0564  0.3991 -0.0905
   55MOL   C46745935   3.579   1.208   5.113  0.1142 -1.2043 -0.2420
   55MOL   C46845936   3.505   1.265   4.990  0.4285 -0.3281 -0.3665
   55MOL   C46945937   3.371   1.341   5.022 -0.0212  0.3683 -0.1367
   55MOL   C47045938   3.325   1.412   4.900 -0.2993 -0.2937  0.2531
   55MOL   C47145939   3.206   1.504   4.924  0.5298 -0.6447 -0.1176
   55MOL   C47245940   3.222   1.607   5.032 -0.1580  0.0049 -0.3671
   55MOL   C47345941   3.118   1.723   5.014  0.2761  0.0901 -0.4766
   55MOL   C47445942   3.168   1.854   5.080  0.1408  0.8438 -0.4251
   55MOL   C47545943   3.101   1.975   5.031 -0.3640  0.9173 -0.1862
   55MOL   C47645944   3.147   2.088   5.112  0.5785  0.4575  0.4347
   55MOL   C47745945   3.084   2.223   5.073 -0.6299 -0.6520  0.0216
   55MOL   H47845946   3.535   0.856   5.258 -2.6518  3.0851  0.9160
   55MOL   H47945947   3.660   0.960   5.191 -2.0005  0.1623 -0.4069
   55MOL   H48045948   3.611   1.124   5.366 -2.5157  1.9228 -0.0094
   55MOL   H48145949   3.431   1.051   5.136  1.8353 -1.8952  1.0724
   55MOL   H48245950   3.390   1.180   5.238 -2.2988 -2.5572 -0.8723
   55MOL   H48345951   3.665   1.152   5.077  0.3516 -0.9434 -0.0774
   55MOL   H48445952   3.607   1.296   5.170  1.0717 -2.0371  0.5873
   55MOL   H48545953   3.481   1.175   4.933  1.6374 -1.6144  1.1168
   55MOL   H48645954   3.566   1.330   4.926 -0.1995  0.9960  0.3576
   55MOL   H48745955   3.283   1.280   5.043 -0.4224  0.9486 -0.1334
   55MOL   H48845956   3.381   1.407   5.108  1.9824  0.2813 -0.2764
   55MOL   H48945957   3.407   1.475   4.866  0.8712 -1.9781 -0.1171
   55MOL   H49045958   3.315   1.351   4.810 -1.0794  3.2457 -2.1305
   55MOL   H49145959   3.174   1.549   4.830  1.7147 -2.6346 -1.5302
   55MOL   H49245960   3.117   1.441   4.934  1.2052 -1.4518  1.0150
   55MOL   H49345961   3.223   1.558   5.130  0.3368 -0.3652 -0.5569
   55MOL   H49445962   3.323   1.648   5.024 -0.0750  0.0160  0.6109
   55MOL   H49545963   3.093   1.729   4.908  0.5395 -2.2561 -0.6994
   55MOL   H49645964   3.023   1.702   5.062  0.7161  0.0516  0.3901
   55MOL   H49745965   3.156   1.836   5.187  1.2414  3.3081  0.1582
   55MOL   H49845966   3.275   1.862   5.061  0.0098  0.3857 -1.3840
   55MOL   H49945967   2.992   1.966   5.032 -0.2759 -0.3700 -0.5319
   55MOL   H50045968   3.124   1.987   4.926 -1.5441 -0.9651 -0.6901
   55MOL   H50145969   3.125   2.063   5.216  2.3268  0.5196  0.8427
   55MOL   H50245970   3.255   2.099   5.107  0.3978  1.3713 -2.3983
   55MOL   H50345971   2.977   2.237   5.059 -0.4675 -1.0394 -1.7708
   55MOL   H50445972   3.137   2.294   5.136  0.6882 -2.7051  1.2819
   55MOL   H50545973   3.119   2.257   4.975  2.2556 -0.8160  0.9532
   55MOL   C50645974   3.430   1.025   5.429  0.7138 -0.0735 -0.5082
   55MOL   C50745975   3.394   1.139   5.520 -0.5951 -0.3418 -0.1089
   55MOL   C50845976   3.262   1.111   5.584  0.2810  0.2949  0.0393
   55MOL   C50945977   3.144   1.142   5.506 -0.2967  0.5135 -0.0674
   55MOL   C51045978   3.028   1.176   5.599  0.5347  0.1704  0.8134
   55MOL   C51145979   2.894   1.208   5.522  0.2725 -0.0902  0.0269
   55MOL   C51245980   2.800   1.290   5.614  0.5543 -0.0611  0.1610
   55MOL   C51345981   2.664   1.312   5.550  0.4690  0.1053 -0.2127
   55MOL   C51445982   2.571   1.378   5.644  0.1744 -0.6793  0.9611
   55MOL   C51545983   2.451   1.442   5.572  0.5330  0.6578  0.0284
   55MOL   C51645984   2.326   1.469   5.663 -0.6191 -0.0829 -0.2206
   55MOL   C51745985   2.205   1.510   5.585 -1.1978 -0.6872  0.0547
   55MOL   C51845986   2.090   1.546   5.681  0.2183  0.1813 -0.7067
   55MOL   C51945987   2.032   1.426   5.758 -0.1831  0.7055  0.2182
   55MOL   H52045988   3.463   0.939   5.488 -0.6841  0.0630  0.4989
   55MOL   H52145989   3.350   0.979   5.371 -0.0838 -0.6589  1.0353
   55MOL   H52245990   3.396   1.234   5.466  1.1193  0.0482  0.6106
   55MOL   H52345991   3.254   1.007   5.618 -1.2326  0.0919 -0.8852
   55MOL   H52445992   3.249   1.160   5.681  0.9658 -0.5995  0.5974
   55MOL   H52545993   3.170   1.237   5.459  0.3529 -0.4673 -1.7570
   55MOL   H52645994   3.120   1.064   5.433  0.0094 -0.6029  1.0023
   55MOL   H52745995   3.057   1.271   5.643  1.2475  1.0455 -1.4743
   55MOL   H52845996   3.010   1.092   5.667  1.1137 -2.4870 -2.1732
   55MOL   H52945997   2.839   1.120   5.490 -0.5577  0.7349 -0.8560
   55MOL   H53045998   2.924   1.244   5.423  0.1627  0.1291  0.0751
   55MOL   H53145999   2.778   1.236   5.706  2.5386  0.1705  0.7880
   55MOL   H53246000   2.845   1.383   5.649  0.9975 -0.5304  0.8417
   55MOL   H53346001   2.621   1.214   5.533 -2.9016  1.8156 -2.1542
   55MOL   H53446002   2.674   1.363   5.453  1.4467 -0.7848 -0.5869
   55MOL   H53546003   2.622   1.456   5.701  0.9578 -1.7155  1.6871
   55MOL   H53646004   2.546   1.320   5.733 -1.3084 -0.8486  0.4522
   55MOL   H53746005   2.473   1.523   5.503  2.6488 -1.2401 -1.6033
   55MOL   H53846006   2.435   1.362   5.499 -0.8849 -1.7529  2.8729
   55MOL   H53946007   2.305   1.380   5.722 -2.0729  1.2791  1.3712
   55MOL   H54046008   2.345   1.551   5.733 -1.6814  0.4129 -0.4932
   55MOL   H54146009   2.173   1.426   5.523  1.1885 -0.3557 -1.6803
   55MOL   H54246010   2.235   1.589   5.516  3.5036 -1.0731  1.5347
   55MOL   H54346011   2.018   1.587   5.610  1.3867 -1.0191 -2.6289
   55MOL   H54446012   2.108   1.620   5.759 -2.5856 -1.5052  1.6425
   55MOL   H54546013   2.022   1.340   5.692 -0.7048 -0.7644  2.1995
   55MOL   H54646014   2.099   1.403   5.840 -0.5028  2.1371  0.9075
   55MOL   H54746015   1.934   1.448   5.802 -0.5139  0.6032 -0.4507
   55MOL   C54846016   3.503   1.154   5.625 -0.1920  0.6666 -0.2324
   55MOL   C54946017   3.503   1.283   5.700  0.4626 -0.5277 -0.2145
   55MOL   C55046018   3.570   1.284   5.844 -0.7154  0.0633  0.3867
   55MOL   C55146019   3.512   1.173   5.937 -0.2552  0.5767 -0.2079
   55MOL   C55246020   3.510   1.204   6.087 -0.2705  0.2455  0.2543
   55MOL   C55346021   3.468   1.087   6.176 -0.0655 -0.1192  0.3044
   55MOL   C55446022   3.436   1.121   6.323 -0.2128 -0.0406 -0.3700
   55MOL   C55546023   3.546   1.172   6.417 -0.9515 -0.2509  0.2657
   55MOL   C55646024   3.494   1.216   6.559 -0.0208 -0.2054  0.0569
   55MOL   C55746025   3.581   1.316   6.632 -0.2973 -0.4854  0.2610
   55MOL   C55846026   3.609   1.448   6.550  0.2159 -0.3063 -0.2857
   55MOL   C55946027   3.483   1.539   6.533  0.4208 -0.7446 -0.5563
   55MOL   C56046028   3.519   1.687   6.537 -0.2740  0.0263  0.2677
   55MOL   C56146029   3.562   1.745   6.673  0.1844 -0.3019 -0.3417
   55MOL   H56246030   3.472   1.069   5.685 -0.4600  0.9301  0.0021
   55MOL   H56346031   3.605   1.139   5.588  0.2191  1.4526  0.5631
   55MOL   H56446032   3.398   1.301   5.722 -0.4204 -0.8927 -3.7741
   55MOL   H56546033   3.678   1.272   5.829 -0.6819 -0.6005  1.0972
   55MOL   H56646034   3.570   1.378   5.898  2.6393  1.4812 -1.9326
   55MOL   H56746035   3.570   1.083   5.918  0.2745  0.5237  1.6277
   55MOL   H56846036   3.412   1.139   5.910  0.2364 -0.5439 -0.6225
   55MOL   H56946037   3.606   1.246   6.117 -0.4777  1.2708 -0.4892
   55MOL   H57046038   3.439   1.286   6.094  0.7286  1.0697  0.8795
   55MOL   H57146039   3.542   1.007   6.174 -1.1934 -1.1741 -0.8469
   55MOL   H57246040   3.377   1.046   6.131 -1.1555  2.1797  0.3292
   55MOL   H57346041   3.343   1.178   6.334 -0.0359 -0.0277  1.1342
   55MOL   H57446042   3.408   1.024   6.365  0.1387 -1.1197 -2.5189
   55MOL   H57546043   3.603   1.248   6.365 -0.0225 -0.8378  0.4080
   55MOL   H57646044   3.620   1.094   6.432 -0.5194 -0.0157 -0.6468
   55MOL   H57746045   3.462   1.139   6.629 -0.8713  0.1662  0.0837
   55MOL   H57846046   3.397   1.261   6.536 -0.4584 -1.4955 -0.6841
   55MOL   H57946047   3.529   1.344   6.724  0.1637  0.5906  0.1902
   55MOL   H58046048   3.677   1.271   6.655 -0.9272 -2.5202 -0.9432
   55MOL   H58146049   3.650   1.434   6.450 -0.4842 -2.6464 -0.2839
   55MOL   H58246050   3.693   1.503   6.594 -1.6797  1.4344  1.2667
   55MOL   H58346051   3.432   1.500   6.444 -0.7384  0.0383 -0.2490
   55MOL   H58446052   3.411   1.512   6.610  0.5719  3.0717  1.0481
   55MOL   H58546053   3.587   1.717   6.458 -1.3778 -0.7972 -1.0230
   55MOL   H58646054   3.426   1.739   6.515 -0.2326  0.4716  1.1179
   55MOL   H58746055   3.662   1.716   6.705 -0.3364 -1.0412  0.6327
   55MOL   H58846056   3.583   1.851   6.660 -1.4008  0.0031 -0.4760
   55MOL   H58946057   3.493   1.745   6.757  2.5220  0.2565  1.5988
   55MOL   C59046058   3.548   1.404   5.626  0.3386 -0.2141 -0.0832
   55MOL   C59146059   3.462   1.528   5.653  0.7263 -0.1086  0.3595
   55MOL   C59246060   3.561   1.646   5.641 -0.0684  0.0137 -0.5313
   55MOL   C59346061   3.641   1.681   5.758  0.4508 -0.4726  0.1372
   55MOL   C59446062   3.746   1.797   5.727 -0.4536  0.9517 -0.0260
   55MOL   C59546063   3.830   1.821   5.857  0.5718  0.1894 -0.4674
   55MOL   C59646064   3.940   1.924   5.825  0.8278 -0.4393  0.3238
   55MOL   C59746065   4.043   1.932   5.935 -0.5900 -0.3321  0.5855
   55MOL   C59846066   4.179   1.986   5.896 -0.0814 -0.4360  0.1132
   55MOL   C59946067   4.265   2.019   6.014  1.4137  0.7265  0.1848
   55MOL   C60046068   4.416   2.012   5.979  0.3700 -0.3899  0.0523
   55MOL   C60146069   4.472   2.135   5.907  0.6793  0.6108 -0.0142
   55MOL   C60246070   4.630   2.130   5.882 -0.5983 -0.1954  0.3359
   55MOL   C60346071   4.728   2.085   5.989 -0.5571  0.6503 -0.3448
   55MOL   H60446072   3.550   1.389   5.518  0.5599 -0.5313 -0.0322
   55MOL   H60546073   3.654   1.415   5.649  0.8534  2.3394 -3.2854
   55MOL   H60646074   3.434   1.525   5.759 -0.1991 -0.9038  0.0943
   55MOL   H60746075   3.503   1.736   5.624 -0.6384 -0.4704 -1.1736
   55MOL   H60846076   3.635   1.634   5.561 -0.9223  2.1682 -1.6722
   55MOL   H60946077   3.698   1.591   5.781  0.6253 -0.8047 -1.5128
   55MOL   H61046078   3.578   1.706   5.843 -3.1405 -0.6896 -2.3394
   55MOL   H61146079   3.682   1.882   5.705  2.2094  2.6302 -1.5368
   55MOL   H61246080   3.813   1.767   5.646 -0.7356 -1.5703  0.6333
   55MOL   H61346081   3.877   1.725   5.875  1.1327 -0.2209 -3.8115
   55MOL   H61446082   3.770   1.855   5.942 -1.6183  1.8539 -2.6083
   55MOL   H61546083   3.984   1.900   5.729 -1.0173 -1.8574 -0.2059
   55MOL   H61646084   3.898   2.024   5.812  3.2404  0.8413  1.9627
   55MOL   H61746085   4.012   1.997   6.016  0.4933  0.0169  0.7335
   55MOL   H61846086   4.056   1.837   5.987  0.2791 -0.3871  0.2738
   55MOL   H61946087   4.221   1.914   5.826 -0.0058  0.4294 -0.7461
   55MOL   H62046088   4.159   2.078   5.842  2.4544 -0.6338 -1.2469
   55MOL   H62146089   4.231   2.116   6.049  2.7622  2.2638 -2.6229
   55MOL   H62246090   4.253   1.951   6.099 -2.0514  1.5222  0.4265
   55MOL   H62346091   4.427   1.915   5.930 -0.7672  0.1712 -1.3487
   55MOL   H62446092   4.458   1.990   6.077  1.2827 -1.0682 -0.4805
   55MOL   H62546093   4.445   2.224   5.964 -1.2340 -0.7671  1.2948
   55MOL   H62646094   4.424   2.142   5.810 -0.5884  3.8627  0.7948
   55MOL   H62746095   4.656   2.061   5.802  0.1936  1.2516 -0.6754
   55MOL   H62846096   4.672   2.226   5.850 -0.2435  0.5258  2.8933
   55MOL   H62946097   4.733   1.977   6.002 -1.8117  0.6570  0.3364
   55MOL   H63046098   4.710   2.132   6.086  0.5126  1.0743 -0.3398
   55MOL   H63146099   4.830   2.098   5.953 -0.0781 -1.6727  0.0610
   55MOL   C63246100   3.343   1.553   5.559 -0.1208  0.0107 -0.8063
   55MOL   C63346101   3.264   1.688   5.568  0.0543  0.4753 -0.0310
   55MOL   C63446102   3.154   1.685   5.458 -0.1431  0.1383 -0.4106
   55MOL   C63546103   3.036   1.591   5.479  0.6322 -0.1752 -0.5854
   55MOL   C63646104   2.946   1.617   5.364  0.4651  0.3146 -0.1342
   55MOL   C63746105   2.867   1.749   5.374 -0.2346  0.0694  0.3285
   55MOL   C63846106   2.733   1.750   5.298 -0.5693  0.1068 -0.6562
   55MOL   C63946107   2.667   1.884   5.268 -0.3077 -0.5003  0.2606
   55MOL   C64046108   2.635   1.961   5.399  0.0057  0.0420  0.0963
   55MOL   C64146109   2.535   2.079   5.390 -0.2704  0.5105  0.4587
   55MOL   C64246110   2.570   2.170   5.275  0.1009  0.3408  0.7824
   55MOL   C64346111   2.473   2.287   5.266  0.3673 -0.3581 -0.2924
   55MOL   C64446112   2.502   2.380   5.144  0.2748  0.2488  0.4270
   55MOL   C64546113   2.407   2.504   5.137  0.1908  0.6261 -0.5037
   55MOL   H64646114   3.268   1.476   5.579  1.7817 -1.3995  1.1959
   55MOL   H64746115   3.379   1.548   5.456 -0.0091  0.9870 -0.8184
   55MOL   H64846116   3.326   1.772   5.538  1.8182 -0.3135  1.2838
   55MOL   H64946117   3.129   1.792   5.456  0.6260  0.3084 -1.2107
   55MOL   H65046118   3.209   1.666   5.366  1.0562  2.6429 -0.2697
   55MOL   H65146119   2.984   1.596   5.575  3.1135  1.7202  0.7530
   55MOL   H65246120   3.080   1.492   5.478 -2.2352 -1.4776 -0.5634
   55MOL   H65346121   2.870   1.539   5.376  1.1216 -0.2275  0.5499
   55MOL   H65446122   2.981   1.596   5.263  0.9684  0.7869 -0.0577
   55MOL   H65546123   2.831   1.765   5.476 -2.2133  0.4012 -0.3925
   55MOL   H65646124   2.932   1.831   5.344 -1.2925  0.2747 -1.5027
   55MOL   H65746125   2.750   1.710   5.198 -1.0488  3.5861 -2.1835
   55MOL   H65846126   2.667   1.673   5.338 -0.3899  0.8340  1.0780
   55MOL   H65946127   2.575   1.865   5.214  0.7324 -0.0261 -1.7151
   55MOL   H66046128   2.735   1.931   5.197  1.3984 -3.9618 -0.5062
   55MOL   H66146129   2.728   1.991   5.448 -0.0858  4.1076 -1.9900
   55MOL   H66246130   2.581   1.892   5.463  1.4191 -1.2225 -0.0489
   55MOL   H66346131   2.441   2.024   5.383  0.9101 -1.3757 -1.2951
   55MOL   H66446132   2.525   2.137   5.482  0.5781  1.2561  0.0907
   55MOL   H66546133   2.671   2.208   5.289  0.2962  1.0691 -2.1817
   55MOL   H66646134   2.571   2.117   5.180 -1.1220  0.9407  0.4220
   55MOL   H66746135   2.473   2.343   5.359 -1.2944  0.9437 -1.0433
   55MOL   H66846136   2.368   2.258   5.264  0.9831 -3.0248  2.0076
   55MOL   H66946137   2.504   2.323   5.051 -0.8606  0.7219  0.1174
   55MOL   H67046138   2.601   2.423   5.163  0.8640 -0.9293  0.0682
   55MOL   H67146139   2.301   2.480   5.143  0.5002 -0.9640 -1.2945
   55MOL   H67246140   2.425   2.575   5.218  2.1280 -2.0466  1.4920
   55MOL   H67346141   2.426   2.551   5.040 -1.8002 -1.6140 -2.0098
   55MOL   C67446142   3.206   1.708   5.710 -0.1154  0.2834  0.2929
   55MOL   C67546143   3.153   1.853   5.744 -0.7145  0.4211  0.7379
   55MOL   C67646144   3.056   1.851   5.857  0.4713  0.8114  0.3259
   55MOL   C67746145   2.912   1.811   5.830 -0.2141 -0.3273 -0.4654
   55MOL   C67846146   2.821   1.800   5.956  0.4715  0.3328 -0.4663
   55MOL   C67946147   2.783   1.930   6.027  0.2069 -0.5031 -0.0494
   55MOL   C68046148   2.685   1.897   6.141 -0.0382 -0.5110 -0.2848
   55MOL   C68146149   2.641   2.017   6.224  0.0046  0.1909  0.2842
   55MOL   C68246150   2.561   1.988   6.352 -0.1050 -0.5669 -1.0271
   55MOL   C68346151   2.426   1.914   6.326 -0.0383  1.2128  0.1520
   55MOL   C68446152   2.330   1.919   6.451 -0.4473  0.8003  0.2727
   55MOL   C68546153   2.210   1.826   6.436 -0.1154 -0.2606 -0.0138
   55MOL   C68646154   2.140   1.809   6.566  0.5054  0.0838 -0.1108
   55MOL   C68746155   2.016   1.715   6.559 -1.2216  0.0775 -1.1670
   55MOL   H68846156   3.280   1.684   5.787 -0.8646  2.1526  1.6480
   55MOL   H68946157   3.135   1.628   5.726  1.3718 -1.0513  0.3089
   55MOL   H69046158   3.094   1.888   5.659  0.4962  0.4045 -0.1337
   55MOL   H69146159   3.104   1.793   5.935  1.1085  1.2054  0.2309
   55MOL   H69246160   3.051   1.944   5.914 -0.4943  0.8991  0.1002
   55MOL   H69346161   2.871   1.860   5.742 -1.4488 -2.9399 -1.4011
   55MOL   H69446162   2.908   1.711   5.787  0.7534  0.4752 -2.5051
   55MOL   H69546163   2.737   1.745   5.914  0.6358 -0.3338  0.0782
   55MOL   H69646164   2.873   1.730   6.020  0.8195  3.9811  3.4845
   55MOL   H69746165   2.874   1.980   6.058  0.0953  0.0043 -0.5331
   55MOL   H69846166   2.724   1.990   5.957  0.4228 -0.8503 -0.5359
   55MOL   H69946167   2.596   1.854   6.094 -0.2502  0.8732 -1.1735
   55MOL   H70046168   2.735   1.816   6.195  1.4342 -0.3601 -1.4021
   55MOL   H70146169   2.721   2.084   6.255  0.9179 -1.6013  1.9026
   55MOL   H70246170   2.582   2.079   6.157  1.4468  0.9258 -0.3235
   55MOL   H70346171   2.626   1.938   6.424 -1.4278  0.2746  0.7844
   55MOL   H70446172   2.516   2.077   6.396 -0.7448 -1.3769 -0.0315
   55MOL   H70546173   2.461   1.813   6.304  2.1870  2.8846 -4.6900
   55MOL   H70646174   2.371   1.943   6.237 -1.4661 -1.5760  0.0790
   55MOL   H70746175   2.295   2.022   6.463 -0.7217  0.7432 -0.0266
   55MOL   H70846176   2.384   1.891   6.541  0.9218 -0.5870 -0.9595
   55MOL   H70946177   2.257   1.734   6.401  1.5754 -0.2270  2.1129
   55MOL   H71046178   2.145   1.860   6.355  0.0236 -0.0565 -0.0377
   55MOL   H71146179   2.204   1.768   6.644 -0.7391  1.3389  1.6053
   55MOL   H71246180   2.116   1.905   6.612 -1.5066 -1.0545  1.3103
   55MOL   H71346181   1.982   1.704   6.662  0.0512 -0.7082 -0.8156
   55MOL   H71446182   1.938   1.745   6.489  0.2407  0.6584 -2.5650
   55MOL   H71546183   2.048   1.615   6.530 -2.2362 -1.1275  1.6347
   55MOL   C71646184   3.271   1.947   5.776  0.1912  0.1455 -0.0834
   55MOL   C71746185   3.236   2.102   5.763 -0.4007  0.2850  0.7493
   55MOL   C71846186   3.350   2.176   5.842  0.8532 -0.4125  0.2024
   55MOL   C71946187   3.480   2.176   5.764 -0.4028 -0.1936  0.3333
   55MOL   C72046188   3.592   2.261   5.835  0.5575  0.9598 -0.3415
   55MOL   C72146189   3.722   2.286   5.756  0.4330  0.0173  0.1116
   55MOL   C72246190   3.842   2.337   5.834  0.7997 -0.3826  0.3845
   55MOL   C72346191   3.864   2.284   5.975 -0.0710 -0.3731 -0.0498
   55MOL   C72446192   4.002   2.326   6.032  0.6616  0.0276 -0.2531
   55MOL   C72546193   4.010   2.479   6.056  0.0167 -0.0782 -0.2930
   55MOL   C72646194   4.150   2.524   6.101  0.4175  0.0398  0.0923
   55MOL   C72746195   4.192   2.491   6.248  0.3048  0.2370 -0.4261
   55MOL   C72846196   4.165   2.605   6.357 -0.0298 -0.0455 -0.0088
   55MOL   C72946197   4.190   2.545   6.491  0.4107  0.6765 -0.1254
   55MOL   H73046198   3.309   1.924   5.876 -1.1273 -1.1595  0.1456
   55MOL   H73146199   3.355   1.922   5.712 -0.8817 -0.4737 -1.2667
   55MOL   H73246200   3.141   2.105   5.816 -1.0507  0.9113 -0.4187
   55MOL   H73346201   3.362   2.138   5.943 -1.4301 -0.3473  0.5178
   55MOL   H73446202   3.309   2.277   5.841  1.1021 -0.2941  1.6519
   55MOL   H73546203   3.508   2.073   5.739 -1.8398 -0.9201  1.6806
   55MOL   H73646204   3.477   2.226   5.667 -0.2230  0.8167  0.8402
   55MOL   H73746205   3.551   2.358   5.861 -4.9053 -0.5524 -2.5173
   55MOL   H73846206   3.626   2.211   5.925  0.1878 -0.0231 -0.7332
   55MOL   H73946207   3.738   2.191   5.705  1.3243  0.5218 -0.5671
   55MOL   H74046208   3.698   2.343   5.667 -0.2685 -1.3329 -0.5820
   55MOL   H74146209   3.931   2.312   5.776  0.1867  0.9161 -1.1908
   55MOL   H74246210   3.839   2.446   5.837  0.7701 -0.2964 -1.6792
   55MOL   H74346211   3.849   2.176   5.976 -3.1083 -0.0030  1.4014
   55MOL   H74446212   3.792   2.314   6.051 -0.3747  0.8686 -0.8237
   55MOL   H74546213   4.018   2.274   6.126  1.5299 -1.2360 -1.0902
   55MOL   H74646214   4.087   2.309   5.966 -1.3267 -0.1102 -2.8823
   55MOL   H74746215   3.979   2.524   5.961  1.1187 -0.5039 -0.8590
   55MOL   H74846216   3.931   2.509   6.126 -0.9656 -2.5714 -0.3002
   55MOL   H74946217   4.229   2.477   6.043  0.7377 -0.0649  0.6113
   55MOL   H75046218   4.161   2.630   6.079 -0.2283 -0.0924 -0.8884
   55MOL   H75146219   4.142   2.405   6.293  0.2956  1.2448  1.5491
   55MOL   H75246220   4.299   2.472   6.261  0.5424  2.0819  0.5989
   55MOL   H75346221   4.063   2.638   6.336 -0.0170 -0.5904 -0.9461
   55MOL   H75446222   4.235   2.689   6.349  2.2645 -2.0510 -1.6807
   55MOL   H75546223   4.152   2.601   6.577  0.6550 -0.7975  0.9579
   55MOL   H75646224   4.295   2.530   6.514  0.3548 -1.8736 -1.3358
   55MOL   H75746225   4.141   2.450   6.513 -1.2195  0.9807 -2.3507
   55MOL   C75846226   3.209   2.150   5.615  0.3339 -0.3158 -0.2423
   55MOL   C75946227   3.178   2.301   5.601 -0.5405  0.1169  0.1328
   55MOL   C76046228   3.147   2.333   5.449  0.5869  0.5250 -0.4754
   55MOL   C76146229   3.113   2.475   5.402 -0.1376  0.5163  0.2007
   55MOL   C76246230   3.216   2.582   5.439  0.1164  0.4706  0.7305
   55MOL   C76346231   3.212   2.705   5.336  0.0346 -0.4069 -0.8886
   55MOL   C76446232   3.262   2.837   5.404 -0.6333  0.6406  0.7698
   55MOL   C76546233   3.231   2.955   5.315  0.1786 -0.5270 -0.4071
   55MOL   C76646234   3.321   2.971   5.192 -0.2012 -0.0764  0.3627
   55MOL   C76746235   3.274   3.085   5.099  0.3378 -0.4172 -0.0205
   55MOL   C76846236   3.368   3.105   4.982  0.4016 -0.4187  0.3610
   55MOL   C76946237   3.314   3.205   4.877 -0.0713  0.3001 -0.3606
   55MOL   C77046238   3.361   3.184   4.740  0.0523  0.0659 -0.6058
   55MOL   C77146239   3.356   3.314   4.664  0.3781  0.3420 -0.0604
   55MOL   H77246240   3.297   2.127   5.554  1.0526  0.5837  0.4408
   55MOL   H77346241   3.129   2.091   5.570  1.0570  0.0211 -2.0252
   55MOL   H77446242   3.264   2.362   5.628 -0.3191  1.0606 -2.5011
   55MOL   H77546243   3.222   2.291   5.383 -0.6647 -1.8303 -0.4634
   55MOL   H77646244   3.058   2.274   5.424 -0.7820  1.7323  1.3946
   55MOL   H77746245   3.097   2.465   5.294  0.0261 -0.6454  0.2756
   55MOL   H77846246   3.020   2.504   5.451  0.2212 -1.1078  1.8652
   55MOL   H77946247   3.314   2.535   5.451  0.0687  0.6233  1.7641
   55MOL   H78046248   3.192   2.625   5.535  0.3353  0.0509  0.9760
   55MOL   H78146249   3.108   2.724   5.310 -0.5793 -1.4553  0.7057
   55MOL   H78246250   3.263   2.681   5.243  1.4438 -1.3134  0.0987
   55MOL   H78346251   3.216   2.847   5.502  1.2717  0.2844  1.7027
   55MOL   H78446252   3.369   2.846   5.421 -0.7504 -0.1176  1.9465
   55MOL   H78546253   3.254   3.050   5.363  1.2170 -0.3626 -1.1956
   55MOL   H78646254   3.125   2.952   5.293 -0.1402 -0.0743  1.0212
   55MOL   H78746255   3.311   2.888   5.122  1.1036  1.1950 -1.3846
   55MOL   H78846256   3.419   2.997   5.231 -0.3878 -0.2542  0.9570
   55MOL   H78946257   3.250   3.180   5.146  1.1809 -1.3654  2.3861
   55MOL   H79046258   3.185   3.046   5.049  1.2578 -1.0766 -1.1927
   55MOL   H79146259   3.462   3.147   5.017  0.7713 -2.1099  1.4804
   55MOL   H79246260   3.395   3.017   4.923 -3.0177 -0.7172 -0.9126
   55MOL   H79346261   3.205   3.212   4.883 -0.1718 -1.2154 -0.3392
   55MOL   H79446262   3.340   3.303   4.918 -1.5659 -0.2889  2.1469
   55MOL   H79546263   3.463   3.148   4.735  0.3376  0.5350  1.2448
   55MOL   H79646264   3.303   3.100   4.702  0.3822 -2.0486  3.2985
   55MOL   H79746265   3.376   3.288   4.560  2.7762 -1.2754  0.7516
   55MOL   H79846266   3.256   3.356   4.665  0.7020  1.1248 -0.1634
   55MOL   H79946267   3.430   3.385   4.701  0.3918 -0.9641  2.5247
   55MOL   C80046268   3.064   2.360   5.691 -0.1928  0.8610 -0.6031
   55MOL   C80146269   2.933   2.281   5.671  0.2430 -0.4524  0.1844
   55MOL   C80246270   2.812   2.351   5.730 -0.4323  0.7657 -0.3486
   55MOL   C80346271   2.704   2.260   5.781  1.1403 -0.4533 -0.5842
   55MOL   C80446272   2.586   2.344   5.844 -0.1432 -0.3946 -0.3821
   55MOL   C80546273   2.611   2.368   5.992 -0.4272  1.0518 -0.0219
   55MOL   C80646274   2.486   2.421   6.056  0.5552  0.1913  0.4713
   55MOL   C80746275   2.498   2.402   6.204  0.3491  0.0823  0.2551
   55MOL   C80846276   2.380   2.460   6.280  0.2216  0.2110 -0.9287
   55MOL   C80946277   2.272   2.353   6.289 -0.3656 -0.8802  1.0223
   55MOL   C81046278   2.139   2.412   6.327 -0.5422  0.6133 -0.2874
   55MOL   C81146279   2.036   2.305   6.372  0.3428 -0.2412 -0.5246
   55MOL   C81246280   1.895   2.349   6.426  0.4823  0.3755 -0.4412
   55MOL   C81346281   1.898   2.434   6.563 -0.7102 -0.0318  0.1919
   55MOL   H81446282   3.044   2.459   5.650  1.6273  0.9283 -1.3770
   55MOL   H81546283   3.084   2.369   5.798  3.4208 -0.8566 -1.0493
   55MOL   H81646284   2.952   2.192   5.731 -0.7573 -0.4742  0.4713
   55MOL   H81746285   2.769   2.417   5.655  0.6095 -0.1915 -1.8137
   55MOL   H81846286   2.850   2.402   5.819  2.8162  1.1418 -1.9241
   55MOL   H81946287   2.739   2.189   5.855 -0.2140 -0.3970  0.1305
   55MOL   H82046288   2.668   2.193   5.702 -0.1742 -1.9877  1.2473
   55MOL   H82146289   2.573   2.437   5.788  0.8842 -0.9676 -1.6073
   55MOL   H82246290   2.491   2.294   5.831 -0.0929 -0.7614  0.6643
   55MOL   H82346291   2.690   2.442   6.006 -0.3856  0.9547  0.2668
   55MOL   H82446292   2.636   2.274   6.043  0.1198  1.6811  0.8832
   55MOL   H82546293   2.482   2.526   6.028  1.8416 -0.1090 -0.8867
   55MOL   H82646294   2.395   2.374   6.019  1.2027 -0.7644  0.0534
   55MOL   H82746295   2.505   2.296   6.227  1.3438  0.3522  1.2360
   55MOL   H82846296   2.586   2.457   6.237  0.1413 -0.5588  1.9079
   55MOL   H82946297   2.411   2.496   6.377 -1.8311 -1.0934  0.2614
   55MOL   H83046298   2.344   2.553   6.236 -3.5063 -1.0214 -0.7061
   55MOL   H83146299   2.306   2.273   6.355  0.2720 -1.3138  0.1832
   55MOL   H83246300   2.266   2.297   6.196  0.0325  1.6450 -0.5515
   55MOL   H83346301   2.158   2.484   6.406  2.3432  2.6845 -2.7750
   55MOL   H83446302   2.100   2.461   6.238  0.1733 -0.7780 -1.3949
   55MOL   H83546303   2.093   2.264   6.456  0.3453  2.4034  0.8433
   55MOL   H83646304   2.020   2.233   6.293  1.4721 -1.6589  0.5087
   55MOL   H83746305   1.862   2.423   6.353  1.8076  0.1223 -1.3173
   55MOL   H83846306   1.826   2.265   6.428  1.2263 -0.2459 -0.7811
   55MOL   H83946307   1.795   2.472   6.566 -1.1435 -1.1910  0.4017
   55MOL   H84046308   1.921   2.358   6.637  1.0036  0.9724  0.7004
   55MOL   H84146309   1.967   2.518   6.560  1.0435 -1.4782 -0.8273
   55MOL   H84246310   2.919   2.250   5.567 -0.8926 -1.2549  0.5652
   56MOL     C146311   5.368   1.066   3.730  0.6772 -0.1865  0.1504
   56MOL     C246312   5.363   1.018   3.584  0.5829 -0.1336 -0.4267
   56MOL     C346313   5.217   0.975   3.552  0.5664  0.1164 -0.0689
   56MOL     C446314   5.116   1.083   3.531 -0.3822  0.0861  0.3662
   56MOL     C546315   4.984   1.032   3.508 -0.3900 -0.1766 -0.6705
   56MOL     C646316   4.968   0.953   3.373 -0.5510 -0.2147  0.0654
   56MOL     C746317   4.821   0.910   3.350  0.0673 -0.6351  0.0919
   56MOL     C846318   4.795   0.877   3.203 -0.8171  0.4259  0.0764
   56MOL     C946319   4.653   0.824   3.190 -0.5707 -0.0119  0.0277
   56MOL    C1046320   4.602   0.819   3.044 -0.7925  0.7043  0.1010
   56MOL    C1146321   4.501   0.704   3.027  0.4790 -0.0049 -0.0947
   56MOL    C1246322   4.469   0.676   2.877  0.7336 -0.0172 -0.0871
   56MOL    C1346323   4.395   0.540   2.842  0.0598 -0.2074 -0.3257
   56MOL    C1446324   4.251   0.546   2.893 -0.4755  0.1653 -0.8481
   56MOL    H1546325   5.314   1.007   3.804  0.8096 -0.8247 -0.2614
   56MOL    H1646326   5.316   1.162   3.734 -0.3237 -0.7682  1.2974
   56MOL    H1746327   5.421   0.926   3.593 -0.9864 -1.0944  0.1365
   56MOL    H1846328   5.221   0.906   3.468  1.0963 -1.6818  1.3896
   56MOL    H1946329   5.183   0.915   3.638  0.2621  0.9159  0.3731
   56MOL    H2046330   5.148   1.136   3.441  2.2528 -1.8742  0.0706
   56MOL    H2146331   5.089   1.151   3.612 -1.1624  2.4801 -1.7989
   56MOL    H2246332   4.923   1.123   3.513  1.3764  0.9721  0.7807
   56MOL    H2346333   4.952   0.972   3.594 -0.9368  1.6078  0.4066
   56MOL    H2446334   5.023   0.859   3.372  1.9499  1.1976 -2.9015
   56MOL    H2546335   5.002   1.017   3.292 -0.2625  1.0512  1.1799
   56MOL    H2646336   4.799   0.822   3.410  0.6001 -2.9220 -2.9082
   56MOL    H2746337   4.758   0.995   3.376  3.3617  1.1496  2.7200
   56MOL    H2846338   4.875   0.806   3.181 -0.5543  0.2558  1.5138
   56MOL    H2946339   4.801   0.963   3.136  2.1445  0.4280  0.3185
   56MOL    H3046340   4.656   0.724   3.233  0.3281 -0.5307 -1.2274
   56MOL    H3146341   4.590   0.893   3.247  2.9421  3.0142  0.4066
   56MOL    H3246342   4.570   0.921   3.020 -2.0116  0.7974  2.0056
   56MOL    H3346343   4.687   0.792   2.982 -0.1317 -0.3735  1.4378
   56MOL    H3446344   4.544   0.617   3.077  0.0188  0.4049  1.0204
   56MOL    H3546345   4.413   0.729   3.087  0.5578  0.8978 -0.3475
   56MOL    H3646346   4.558   0.694   2.817  0.1308  0.2784 -0.8967
   56MOL    H3746347   4.408   0.760   2.843 -0.8654 -0.8412  0.6941
   56MOL    H3846348   4.399   0.524   2.734 -3.3599 -1.1392 -0.3637
   56MOL    H3946349   4.450   0.459   2.889 -3.2929 -3.3377 -1.5424
   56MOL    H4046350   4.194   0.616   2.832 -0.9828 -0.1526 -0.7474
   56MOL    H4146351   4.198   0.452   2.880  2.2792 -1.6653  0.7983
   56MOL    H4246352   4.252   0.593   2.992  1.5112  1.2703 -1.3775
   56MOL    H4346353   5.463   1.100   3.772  1.2893 -0.8441 -0.6885
   56MOL    C4446354   5.427   1.117   3.485  0.2921  0.2558  0.4431
   56MOL    C4546355   5.457   1.061   3.339  0.0144  0.7304 -0.3966
   56MOL    C4646356   5.553   0.938   3.331 -0.2050  0.3209  0.5180
   56MOL    C4746357   5.701   0.956   3.375  0.2353 -0.2540 -0.2411
   56MOL    C4846358   5.769   0.817   3.423 -0.6121 -0.1297  0.5820
   56MOL    C4946359   5.923   0.834   3.429 -0.2083 -0.1956  0.6311
   56MOL    C5046360   6.004   0.706   3.475  0.6878  0.4281  0.1270
   56MOL    C5146361   6.159   0.736   3.472 -0.0279  0.3736 -0.5781
   56MOL    C5246362   6.250   0.637   3.537  0.3902 -0.7745  0.5077
   56MOL    C5346363   6.391   0.684   3.556  0.3551 -0.6181  0.4873
   56MOL    C5446364   6.459   0.600   3.664  0.3269 -0.4183 -0.0958
   56MOL    C5546365   6.598   0.630   3.699  0.2135  0.4433 -0.0705
   56MOL    C5646366   6.627   0.775   3.741 -0.6910  0.1853 -0.6749
   56MOL    C5746367   6.762   0.808   3.795 -0.7204 -0.4916 -0.0054
   56MOL    H5846368   5.372   1.209   3.466 -2.1190 -1.3626 -0.7763
   56MOL    H5946369   5.524   1.147   3.524  0.8138 -2.1752  1.0998
   56MOL    H6046370   5.365   1.029   3.289  1.1153  0.6662 -2.4428
   56MOL    H6146371   5.510   0.851   3.380 -0.0618 -0.8223 -1.3343
   56MOL    H6246372   5.548   0.889   3.234  1.4187  1.1223  0.0091
   56MOL    H6346373   5.716   1.029   3.455  1.2352  0.3285 -0.9486
   56MOL    H6446374   5.752   1.000   3.290  1.9248 -1.1368  0.2974
   56MOL    H6546375   5.732   0.751   3.345  0.3221  0.9236 -0.7683
   56MOL    H6646376   5.724   0.782   3.516  2.2455 -1.2156  1.6086
   56MOL    H6746377   5.957   0.865   3.330  1.5875 -0.7308  1.0584
   56MOL    H6846378   5.942   0.913   3.501  2.9214 -0.9777  0.7192
   56MOL    H6946379   5.966   0.682   3.575  1.2529 -3.5551 -0.5583
   56MOL    H7046380   5.983   0.620   3.412  0.4573  0.4345  0.1937
   56MOL    H7146381   6.168   0.838   3.510  0.9356  0.4673 -1.0350
   56MOL    H7246382   6.193   0.736   3.368  1.0027  0.3549 -0.2472
   56MOL    H7346383   6.205   0.618   3.635  0.3944 -2.1956  0.2448
   56MOL    H7446384   6.249   0.544   3.479 -2.6871 -0.3022 -0.2948
   56MOL    H7546385   6.382   0.782   3.602  1.3758 -0.0608 -0.5126
   56MOL    H7646386   6.453   0.683   3.467  0.5879  0.9752  0.6241
   56MOL    H7746387   6.466   0.495   3.634  2.0226 -0.4729  0.4524
   56MOL    H7846388   6.401   0.609   3.756  0.8589  0.9680  0.1039
   56MOL    H7946389   6.633   0.563   3.777 -1.1252  0.2756  0.4035
   56MOL    H8046390   6.669   0.602   3.621  2.4185  3.5228  0.7259
   56MOL    H8146391   6.559   0.808   3.820  1.7153 -0.3425  1.6949
   56MOL    H8246392   6.602   0.848   3.664 -1.2972 -0.2621 -0.9059
   56MOL    H8346393   6.783   0.749   3.884 -3.3387 -1.7797 -0.2059
   56MOL    H8446394   6.763   0.916   3.811  0.9138  0.1052 -3.5271
   56MOL    H8546395   6.836   0.784   3.718 -0.2059  0.3531  0.2108
   56MOL    C8646396   5.507   1.169   3.235  0.8852 -0.4237  0.9052
   56MOL    C8746397   5.394   1.264   3.186 -0.0413  0.5167  0.5511
   56MOL    C8846398   5.292   1.213   3.084  0.5730 -0.4668  0.1226
   56MOL    C8946399   5.161   1.296   3.099 -0.7323  1.0782  0.0776
   56MOL    C9046400   5.045   1.259   3.009  0.2009 -0.7810  0.3883
   56MOL    C9146401   4.908   1.288   3.075 -0.2646 -0.0476  0.2372
   56MOL    C9246402   4.782   1.252   2.999 -0.4841  0.2880 -0.2980
   56MOL    C9346403   4.654   1.304   3.073 -0.3739 -0.0606 -0.3956
   56MOL    C9446404   4.536   1.318   2.979 -0.0050 -0.3093  0.7030
   56MOL    C9546405   4.510   1.197   2.891  0.1357  0.5973  0.5870
   56MOL    C9646406   4.401   1.205   2.770 -0.0800  0.4516  0.1043
   56MOL    C9746407   4.373   1.075   2.698 -1.3222 -0.4222  0.3334
   56MOL    C9846408   4.284   1.092   2.577  0.2596 -0.0953 -0.5253
   56MOL    C9946409   4.250   0.952   2.507 -0.3385  0.0130  0.3392
   56MOL   H10046410   5.584   1.230   3.282  0.7776 -1.2383  2.1685
   56MOL   H10146411   5.546   1.130   3.141  0.6526  2.4116 -0.4178
   56MOL   H10246412   5.345   1.294   3.279 -0.8531  0.8828  0.0079
   56MOL   H10346413   5.326   1.220   2.981  1.2219  1.7859  0.4618
   56MOL   H10446414   5.273   1.109   3.111 -0.9304 -0.1251  0.4239
   56MOL   H10546415   5.131   1.292   3.204  1.6832  1.2515  0.7922
   56MOL   H10646416   5.184   1.399   3.075  0.1125  0.3730 -2.2009
   56MOL   H10746417   5.057   1.152   2.993  2.6583 -0.6923  1.3615
   56MOL   H10846418   5.055   1.306   2.912  0.1165 -1.1263  0.2112
   56MOL   H10946419   4.908   1.396   3.085  1.9764  0.2568 -2.3214
   56MOL   H11046420   4.899   1.242   3.173  0.0051  0.1999  0.3776
   56MOL   H11146421   4.788   1.308   2.906 -0.8126 -1.3485 -1.3220
   56MOL   H11246422   4.776   1.143   2.999 -0.4990  0.2313  3.3162
   56MOL   H11346423   4.674   1.407   3.103  1.3333 -1.1005  2.2266
   56MOL   H11446424   4.632   1.240   3.159 -1.6048  1.4490  0.4357
   56MOL   H11546425   4.452   1.333   3.048  0.3576  1.3268  0.8028
   56MOL   H11646426   4.557   1.406   2.918 -1.5911 -1.4298 -1.5373
   56MOL   H11746427   4.469   1.111   2.944 -0.6715 -0.5778 -1.8746
   56MOL   H11846428   4.598   1.152   2.844 -0.9709 -1.2656  0.2501
   56MOL   H11946429   4.303   1.237   2.807 -0.0211 -1.0997  1.6169
   56MOL   H12046430   4.433   1.284   2.701 -0.1002 -1.2005 -1.8455
   56MOL   H12146431   4.466   1.033   2.660 -1.0008 -0.0281  0.6894
   56MOL   H12246432   4.337   1.000   2.768 -0.5196 -0.0088  1.1973
   56MOL   H12346433   4.339   1.158   2.509  0.3462 -1.8916 -2.2514
   56MOL   H12446434   4.193   1.143   2.610  1.2418  0.8007  0.8699
   56MOL   H12546435   4.163   0.909   2.556 -1.1781  1.3250  0.0380
   56MOL   H12646436   4.230   0.955   2.400  0.9354  2.0137  0.1240
   56MOL   H12746437   4.331   0.880   2.517 -0.4300 -0.0342  0.7547
   56MOL   C12846438   5.462   1.396   3.141 -0.1124 -0.1584 -0.4348
   56MOL   C12946439   5.476   1.507   3.250  0.6685 -0.0180 -0.3767
   56MOL   C13046440   5.584   1.609   3.219  0.1916  0.2218 -0.0715
   56MOL   C13146441   5.719   1.547   3.195 -0.2435 -0.3626  0.2819
   56MOL   C13246442   5.835   1.648   3.185 -0.6990 -0.0913 -0.0882
   56MOL   C13346443   5.955   1.582   3.108  0.2064 -0.2658 -0.0376
   56MOL   C13446444   6.080   1.670   3.124  0.5723 -0.9228 -0.1793
   56MOL   C13546445   6.178   1.645   3.013  0.5286 -0.5329  0.0942
   56MOL   C13646446   6.284   1.759   3.012  0.2241  0.1578 -0.0567
   56MOL   C13746447   6.389   1.756   2.893 -0.2917 -0.3510 -0.3099
   56MOL   C13846448   6.505   1.848   2.934 -0.8856 -0.3732 -0.1943
   56MOL   C13946449   6.605   1.855   2.817 -0.3112 -0.4192 -0.6157
   56MOL   C14046450   6.731   1.940   2.853 -0.5521  0.3925 -0.4678
   56MOL   C14146451   6.833   1.942   2.733  0.1207 -0.0103  0.6158
   56MOL   H14246452   5.542   1.383   3.068  2.2481 -0.5313  2.1207
   56MOL   H14346453   5.388   1.435   3.071  1.1366 -0.4419 -1.9576
   56MOL   H14446454   5.511   1.451   3.337 -0.5271 -1.7527 -0.9747
   56MOL   H14546455   5.546   1.668   3.135  1.1733  1.4658  0.3313
   56MOL   H14646456   5.604   1.685   3.295  0.0877 -0.0461  0.2238
   56MOL   H14746457   5.750   1.473   3.268 -1.0043  0.0292  1.0102
   56MOL   H14846458   5.706   1.499   3.098 -2.1407  3.1932 -1.3402
   56MOL   H14946459   5.796   1.734   3.130 -1.2282 -0.8841 -0.9609
   56MOL   H15046460   5.853   1.671   3.290  1.6522 -1.3468 -0.1978
   56MOL   H15146461   5.991   1.484   3.136 -1.2637 -0.4865  1.1164
   56MOL   H15246462   5.923   1.577   3.003 -0.9318 -0.8941  0.3351
   56MOL   H15346463   6.051   1.775   3.124  0.8902 -0.8282 -1.7183
   56MOL   H15446464   6.125   1.665   3.223  0.5365 -2.0845 -0.2158
   56MOL   H15546465   6.229   1.550   3.030  1.6478  0.1334  0.5841
   56MOL   H15646466   6.133   1.641   2.914 -0.0284 -1.8928  0.3868
   56MOL   H15746467   6.232   1.855   3.012 -0.1569 -0.0349 -2.1139
   56MOL   H15846468   6.330   1.756   3.111 -2.9092 -0.6583  1.4400
   56MOL   H15946469   6.347   1.798   2.802  0.2657 -0.3075 -0.5480
   56MOL   H16046470   6.433   1.659   2.868 -1.4552 -0.9312 -0.1513
   56MOL   H16146471   6.465   1.949   2.947  0.1955  0.3489 -2.2409
   56MOL   H16246472   6.546   1.817   3.030 -0.7572 -1.2458 -0.5310
   56MOL   H16346473   6.635   1.755   2.786 -2.1077 -1.2968  0.4388
   56MOL   H16446474   6.555   1.889   2.726 -1.6140 -0.0587  0.2269
   56MOL   H16546475   6.683   2.035   2.876  1.9313  1.4754  0.3502
   56MOL   H16646476   6.775   1.891   2.939 -1.3304  2.2579  1.0294
   56MOL   H16746477   6.925   1.995   2.760  0.2675  0.1411 -0.1807
   56MOL   H16846478   6.877   1.847   2.705 -0.8071 -0.0030 -0.8926
   56MOL   H16946479   6.789   1.989   2.645  0.7747 -1.9230 -0.7416
   56MOL   C17046480   5.336   1.567   3.288 -0.3894  0.2333  0.7435
   56MOL   C17146481   5.340   1.668   3.404 -0.7515  0.3176  0.0640
   56MOL   C17246482   5.205   1.736   3.414  0.2235  0.4930  0.1278
   56MOL   C17346483   5.080   1.648   3.468 -0.1629 -0.1476  0.1587
   56MOL   C17446484   4.950   1.729   3.465  0.7853 -0.0910 -0.6527
   56MOL   C17546485   4.827   1.664   3.526  0.0893  0.4306 -0.1092
   56MOL   C17646486   4.784   1.535   3.454  0.2560 -0.0255  0.5672
   56MOL   C17746487   4.641   1.493   3.496  0.8540  0.0935  0.5409
   56MOL   C17846488   4.593   1.369   3.417 -0.4478 -0.0225  0.2872
   56MOL   C17946489   4.467   1.299   3.464  0.4464  0.5314  0.1657
   56MOL   C18046490   4.423   1.178   3.381 -0.3938  0.3521  0.8621
   56MOL   C18146491   4.328   1.087   3.453 -0.1373 -0.1373 -0.1240
   56MOL   C18246492   4.261   0.970   3.379 -0.0312 -0.1273 -0.3997
   56MOL   C18346493   4.145   0.913   3.453 -0.1547  0.4951  0.3081
   56MOL   H18446494   5.260   1.490   3.303 -0.4837  0.6788  2.6334
   56MOL   H18546495   5.287   1.617   3.205 -2.0275 -1.7492  0.4750
   56MOL   H18646496   5.417   1.742   3.383 -0.8791  0.5982  0.5781
   56MOL   H18746497   5.226   1.813   3.488  1.6729 -0.2335  0.4887
   56MOL   H18846498   5.184   1.780   3.316 -0.4884 -0.4868 -0.1714
   56MOL   H18946499   5.082   1.556   3.408 -2.5124 -0.3124  0.2789
   56MOL   H19046500   5.098   1.616   3.571  2.0770  1.3138  0.2401
   56MOL   H19146501   4.968   1.826   3.511  0.9214 -0.3135 -0.2336
   56MOL   H19246502   4.915   1.755   3.365 -1.3521 -2.4946 -0.5834
   56MOL   H19346503   4.745   1.736   3.522  0.1899  0.5063 -0.9628
   56MOL   H19446504   4.850   1.640   3.630  1.7766 -2.2476 -1.0651
   56MOL   H19546505   4.846   1.452   3.486 -0.1278  0.2496  2.0382
   56MOL   H19646506   4.795   1.542   3.345 -1.5231  0.5074  0.4072
   56MOL   H19746507   4.574   1.577   3.479 -1.0662 -1.5389 -0.1121
   56MOL   H19846508   4.623   1.487   3.603 -0.3813  1.0427  0.4018
   56MOL   H19946509   4.670   1.291   3.410 -0.7876 -0.4854  1.6643
   56MOL   H20046510   4.583   1.400   3.312 -1.8860 -0.3732  0.3156
   56MOL   H20146511   4.391   1.375   3.451 -0.2760 -0.6557 -3.1119
   56MOL   H20246512   4.473   1.273   3.570 -2.3959 -1.2628 -0.0754
   56MOL   H20346513   4.514   1.123   3.355 -0.8118  1.1237 -2.4486
   56MOL   H20446514   4.380   1.207   3.285  1.2639  0.8629  0.2582
   56MOL   H20546515   4.358   1.050   3.550 -0.3678  2.7148  1.0843
   56MOL   H20646516   4.247   1.157   3.475 -0.9597 -0.8839 -0.7371
   56MOL   H20746517   4.242   1.004   3.277 -0.0348  0.7794 -0.0984
   56MOL   H20846518   4.339   0.898   3.353  2.0796  2.5764 -1.8301
   56MOL   H20946519   4.172   0.823   3.509  1.8557 -2.2743 -4.7152
   56MOL   H21046520   4.068   0.876   3.384  0.8984 -1.0654 -0.0664
   56MOL   H21146521   4.088   0.972   3.524 -0.6318  1.4344 -0.8333
   56MOL   C21246522   5.381   1.603   3.541 -0.3401 -0.2659 -0.0059
   56MOL   C21346523   5.432   1.702   3.660 -0.3536  0.3391 -0.0598
   56MOL   C21446524   5.442   1.621   3.793 -0.2142  0.2900  0.4125
   56MOL   C21546525   5.309   1.561   3.848 -0.1128 -0.7681  0.4272
   56MOL   C21646526   5.333   1.487   3.985  0.7248 -0.0482 -0.5187
   56MOL   C21746527   5.215   1.407   4.038 -1.2215 -0.0813 -0.5302
   56MOL   C21846528   5.241   1.346   4.177  0.1374  0.3610  0.1938
   56MOL   C21946529   5.124   1.272   4.241 -0.8971 -0.8185  0.8254
   56MOL   C22046530   5.082   1.143   4.175  0.0324  0.8525 -1.0083
   56MOL   C22146531   4.943   1.086   4.225  0.9281 -0.3183  0.5387
   56MOL   C22246532   4.915   0.958   4.140 -0.5481 -0.1912 -0.1766
   56MOL   C22346533   4.785   0.899   4.178  0.9508  0.1313 -0.5011
   56MOL   C22446534   4.761   0.763   4.122 -0.0522 -0.0578 -0.1547
   56MOL   C22546535   4.613   0.725   4.125 -0.0573 -0.6739  0.4002
   56MOL   H22646536   5.457   1.528   3.522 -1.0438 -1.3544  1.3246
   56MOL   H22746537   5.297   1.543   3.577 -0.2760 -0.9327 -0.9542
   56MOL   H22846538   5.354   1.777   3.676  0.0800  0.9178 -0.6523
   56MOL   H22946539   5.509   1.536   3.785  1.1626  1.3433  0.7133
   56MOL   H23046540   5.494   1.681   3.867 -1.0403  0.7216  0.6596
   56MOL   H23146541   5.267   1.484   3.784 -1.2528  1.6700 -1.8392
   56MOL   H23246542   5.245   1.649   3.842 -0.4136 -1.1287 -2.1482
   56MOL   H23346543   5.364   1.561   4.059  1.7645 -0.2339 -0.7556
   56MOL   H23446544   5.417   1.419   3.979 -0.1684 -1.2645  0.4724
   56MOL   H23546545   5.207   1.314   3.982  2.1695 -1.1187  0.5713
   56MOL   H23646546   5.124   1.467   4.038 -0.5550  0.9435  0.7713
   56MOL   H23746547   5.331   1.285   4.163 -0.6200 -0.5912 -0.6256
   56MOL   H23846548   5.277   1.421   4.247 -2.2440 -1.6365  3.7555
   56MOL   H23946549   5.139   1.247   4.346 -0.0670 -1.8569  0.4713
   56MOL   H24046550   5.034   1.334   4.235 -1.4464 -1.3987  2.6450
   56MOL   H24146551   5.167   1.077   4.187  0.1034  1.2545  0.9028
   56MOL   H24246552   5.083   1.157   4.067  0.4672 -2.2426 -1.4727
   56MOL   H24346553   4.933   1.068   4.332 -2.7402 -0.1235  0.2994
   56MOL   H24446554   4.863   1.155   4.198  2.0128  0.9299  0.4693
   56MOL   H24546555   5.003   0.894   4.141 -0.1021  0.4067  2.7550
   56MOL   H24646556   4.908   0.986   4.034  0.1032  0.9963  0.0839
   56MOL   H24746557   4.701   0.966   4.159  0.6050  1.1973  4.1245
   56MOL   H24846558   4.789   0.891   4.287  1.9587  0.0071 -0.5429
   56MOL   H24946559   4.817   0.684   4.173  0.5018  1.9681  2.4588
   56MOL   H25046560   4.795   0.771   4.018  1.8968 -1.1093  0.3693
   56MOL   H25146561   4.595   0.631   4.073 -1.0660  0.2423 -0.9148
   56MOL   H25246562   4.574   0.719   4.227 -1.0083 -2.3934 -0.0444
   56MOL   H25346563   4.558   0.808   4.081  2.0034  0.5688  0.0805
   56MOL   C25446564   5.571   1.763   3.638 -0.5402  0.3936  0.7218
   56MOL   C25546565   5.613   1.889   3.711 -0.7304 -0.3479  0.1725
   56MOL   C25646566   5.754   1.936   3.672 -0.2919  0.3023  0.3344
   56MOL   C25746567   5.802   1.929   3.522 -0.2966  0.2311  0.3839
   56MOL   C25846568   5.929   2.009   3.492  0.5007 -0.0510 -0.6475
   56MOL   C25946569   5.956   2.032   3.342 -0.1911 -0.5136 -0.0482
   56MOL   C26046570   6.080   2.105   3.320  0.0616  0.0445  0.4261
   56MOL   C26146571   6.074   2.177   3.188  0.9191 -0.5443  0.3117
   56MOL   C26246572   6.207   2.247   3.152  1.0538  0.2132  0.9742
   56MOL   C26346573   6.341   2.167   3.160 -0.0897 -0.2829 -0.1172
   56MOL   C26446574   6.465   2.256   3.133 -0.0628 -0.5172  0.1239
   56MOL   C26546575   6.594   2.189   3.166  0.0281 -0.4242 -0.0844
   56MOL   C26646576   6.714   2.269   3.110 -0.3797 -0.1676  0.5264
   56MOL   C26746577   6.840   2.193   3.157  0.8959 -0.1696 -0.6266
   56MOL   H26846578   5.582   1.778   3.530  1.8211  0.4121  0.9415
   56MOL   H26946579   5.650   1.689   3.650 -1.2528 -0.5655 -0.3242
   56MOL   H27046580   5.613   1.866   3.817 -0.2961  0.0106  0.2508
   56MOL   H27146581   5.837   1.891   3.727 -0.8043 -0.0690  0.7980
   56MOL   H27246582   5.753   2.041   3.701  0.3054  0.2971  0.3764
   56MOL   H27346583   5.722   1.980   3.467  0.6068  1.5067  0.2206
   56MOL   H27446584   5.815   1.830   3.479  0.3373  0.3375  0.3355
   56MOL   H27546585   6.019   1.955   3.521  0.6868  0.5036 -0.1791
   56MOL   H27646586   5.946   2.102   3.547  1.6235 -0.1877 -0.7544
   56MOL   H27746587   5.873   2.099   3.321  1.0811  2.0652  2.7051
   56MOL   H27846588   5.951   1.935   3.293 -0.8206  0.0491 -1.1014
   56MOL   H27946589   6.097   2.177   3.401 -1.0074  1.5960 -0.6854
   56MOL   H28046590   6.168   2.040   3.325  0.4628  0.5530  0.0533
   56MOL   H28146591   5.993   2.249   3.199 -0.3442 -2.0798  1.1570
   56MOL   H28246592   6.039   2.107   3.111  0.4264  1.1386 -1.0292
   56MOL   H28346593   6.213   2.300   3.057  0.4825  0.6059  1.1536
   56MOL   H28446594   6.223   2.329   3.223  0.3171  1.2537 -0.0470
   56MOL   H28546595   6.329   2.078   3.098  1.7372 -0.8966  0.4024
   56MOL   H28646596   6.351   2.122   3.259 -1.3938 -0.6696 -0.1448
   56MOL   H28746597   6.461   2.341   3.202 -0.7296  0.8607 -1.5810
   56MOL   H28846598   6.467   2.292   3.030 -0.9424  1.2208  0.6941
   56MOL   H28946599   6.609   2.184   3.274  2.9086 -3.6422 -0.5592
   56MOL   H29046600   6.597   2.088   3.126  0.2728  0.0120 -1.1775
   56MOL   H29146601   6.709   2.279   3.002  0.3644  0.1886  0.5225
   56MOL   H29246602   6.716   2.370   3.151  0.3007  0.1753 -0.3491
   56MOL   H29346603   6.926   2.248   3.120  0.1289  0.1775 -1.9098
   56MOL   H29446604   6.844   2.090   3.121 -1.6216 -0.1675 -0.9993
   56MOL   H29546605   6.864   2.189   3.264 -2.4935  0.6704  0.2139
   56MOL   C29646606   5.505   2.000   3.689  0.0451  0.0014 -0.7066
   56MOL   C29746607   5.451   2.058   3.823  0.2376  0.4157 -0.0787
   56MOL   C29846608   5.391   2.198   3.800  0.6056  0.3300  0.6966
   56MOL   C29946609   5.494   2.305   3.796  0.3157  0.9483  0.4565
   56MOL   C30046610   5.428   2.438   3.763  0.8408  0.1674 -0.4951
   56MOL   C30146611   5.377   2.511   3.885 -0.5722  0.2629 -0.4984
   56MOL   C30246612   5.296   2.636   3.849 -0.9161 -0.3476 -0.0816
   56MOL   C30346613   5.234   2.704   3.973  0.2723 -0.7440 -0.9401
   56MOL   C30446614   5.172   2.839   3.939  0.0531 -0.6269  0.1741
   56MOL   C30546615   5.169   2.935   4.055 -0.1169 -0.3833  0.1346
   56MOL   C30646616   5.119   3.079   4.018  0.0857 -0.6172 -0.3133
   56MOL   C30746617   5.104   3.178   4.135 -0.2597 -0.0687  0.1176
   56MOL   C30846618   5.043   3.323   4.089 -0.5414  0.1622 -0.2002
   56MOL   C30946619   4.994   3.410   4.205  0.8840 -0.0523  0.2388
   56MOL   H31046620   5.420   1.973   3.626  1.2364 -2.0532 -1.4661
   56MOL   H31146621   5.556   2.078   3.634  0.2564  2.8471  3.2698
   56MOL   H31246622   5.539   2.068   3.887 -0.2110 -0.9530  0.7812
   56MOL   H31346623   5.315   2.227   3.873  0.2035 -0.0646  0.4411
   56MOL   H31446624   5.343   2.202   3.702 -2.3973  1.9562  2.1603
   56MOL   H31546625   5.571   2.297   3.719  0.1395  0.8226  0.2921
   56MOL   H31646626   5.548   2.301   3.890  1.0209 -1.1110 -0.0084
   56MOL   H31746627   5.505   2.495   3.711 -0.5830  0.9942 -1.7383
   56MOL   H31846628   5.348   2.429   3.689  1.3866  1.1849 -1.2159
   56MOL   H31946629   5.463   2.537   3.947 -1.6922 -0.1533  1.2708
   56MOL   H32046630   5.316   2.445   3.947 -0.0791 -0.8743 -1.2045
   56MOL   H32146631   5.366   2.709   3.807 -0.9470  0.7009  1.6443
   56MOL   H32246632   5.222   2.617   3.771 -1.1479 -0.5180  0.1830
   56MOL   H32346633   5.316   2.711   4.043 -0.1077 -2.1766 -0.3355
   56MOL   H32446634   5.161   2.642   4.025 -1.8423  1.6402 -0.9122
   56MOL   H32546635   5.211   2.890   3.850  0.5586 -1.1663  0.0799
   56MOL   H32646636   5.071   2.806   3.916  0.2806 -1.7560  0.7302
   56MOL   H32746637   5.275   2.937   4.082 -0.3580 -0.4802  1.1321
   56MOL   H32846638   5.112   2.895   4.139  0.6273 -0.5217  0.5858
   56MOL   H32946639   5.025   3.069   3.964 -0.3922 -0.6162  0.5232
   56MOL   H33046640   5.182   3.121   3.939  2.7830  1.6287  2.9067
   56MOL   H33146641   5.199   3.172   4.187  1.3196  0.0173 -2.6788
   56MOL   H33246642   5.032   3.132   4.204 -1.6439  0.8308 -0.6919
   56MOL   H33346643   4.963   3.312   4.016 -0.0459 -1.1548 -0.5656
   56MOL   H33446644   5.117   3.378   4.032  0.4279  0.5776  1.4467
   56MOL   H33546645   5.080   3.451   4.258  0.8136  0.0870  0.2430
   56MOL   H33646646   4.933   3.492   4.169 -0.8671 -1.7215 -0.7144
   56MOL   H33746647   4.941   3.348   4.278  0.5146  3.0002  2.6526
   56MOL   C33846648   5.345   1.971   3.889 -0.2556  0.5070  0.6068
   56MOL   C33946649   5.301   2.000   4.032  0.2138 -1.2156 -0.1755
   56MOL   C34046650   5.214   1.880   4.082 -0.2987 -0.5147 -0.1389
   56MOL   C34146651   5.072   1.891   4.038 -0.1064  0.0653 -0.6613
   56MOL   C34246652   4.995   1.760   4.065 -0.3506  0.0710  0.8524
   56MOL   C34346653   4.846   1.769   4.017  0.8516  0.0975 -0.3384
   56MOL   C34446654   4.778   1.637   4.012  0.1528 -0.1131  0.3442
   56MOL   C34546655   4.758   1.567   4.146  0.3811 -0.0064  0.1186
   56MOL   C34646656   4.676   1.441   4.129  0.7666 -0.3595  0.0210
   56MOL   C34746657   4.655   1.376   4.268 -0.2218  0.1649  0.1033
   56MOL   C34846658   4.555   1.261   4.284 -0.4576 -0.2288 -0.3419
   56MOL   C34946659   4.569   1.189   4.427 -0.5138  0.0763 -0.4413
   56MOL   C35046660   4.469   1.077   4.423 -0.5242  0.8813  0.5310
   56MOL   C35146661   4.465   0.985   4.550  0.4942  0.3901 -0.1997
   56MOL   H35246662   5.261   1.969   3.820  0.6318 -2.1375 -0.4760
   56MOL   H35346663   5.387   1.870   3.897  0.0520  0.7190  1.8060
   56MOL   H35446664   5.245   2.093   4.027 -0.8743 -1.7802  1.0905
   56MOL   H35546665   5.257   1.784   4.053 -1.2596 -1.1409  0.5053
   56MOL   H35646666   5.210   1.881   4.191 -0.2109 -1.3863 -0.1225
   56MOL   H35746667   5.062   1.922   3.934 -1.9695 -2.4640 -1.2712
   56MOL   H35846668   5.026   1.970   4.097 -1.8562 -1.9456  0.7186
   56MOL   H35946669   5.006   1.736   4.171  0.9562  0.8495  0.9038
   56MOL   H36046670   5.053   1.689   4.005  1.4284  3.8518 -2.1059
   56MOL   H36146671   4.791   1.843   4.076  0.8817  0.5542 -0.8733
   56MOL   H36246672   4.837   1.805   3.914  0.7941 -1.5654 -0.9214
   56MOL   H36346673   4.675   1.659   3.986 -0.3660  0.4627  2.7496
   56MOL   H36446674   4.818   1.568   3.937 -0.8715  1.6226 -1.8204
   56MOL   H36546675   4.854   1.537   4.190  0.0330 -1.3395  0.0112
   56MOL   H36646676   4.700   1.628   4.214 -0.7953 -2.1531  1.0907
   56MOL   H36746677   4.584   1.478   4.085  1.4537  0.2817 -0.8837
   56MOL   H36846678   4.732   1.373   4.066 -0.0332 -2.4618  1.5245
   56MOL   H36946679   4.757   1.350   4.297 -0.0699  2.6371  1.8662
   56MOL   H37046680   4.620   1.450   4.339  0.7597  1.5284 -0.8207
   56MOL   H37146681   4.578   1.188   4.207 -1.2916 -1.4800  0.5866
   56MOL   H37246682   4.454   1.299   4.273 -0.8297 -0.5606  1.7093
   56MOL   H37346683   4.536   1.267   4.496  0.3027 -1.4079  1.6794
   56MOL   H37446684   4.673   1.163   4.446 -0.1626  2.3619  1.0629
   56MOL   H37546685   4.370   1.119   4.405 -0.7585  0.1507  0.0843
   56MOL   H37646686   4.477   1.012   4.336 -0.4065 -3.0830  3.3675
   56MOL   H37746687   4.568   0.951   4.563  1.2210  2.8296  0.6483
   56MOL   H37846688   4.436   1.042   4.639  0.3542 -1.5610  1.0337
   56MOL   H37946689   4.399   0.898   4.557 -0.3328  0.9798 -0.6348
   56MOL   C38046690   5.434   2.004   4.121  0.0405  0.4494 -0.1359
   56MOL   C38146691   5.490   2.145   4.157  0.5709  0.1558  0.1224
   56MOL   C38246692   5.389   2.222   4.253 -0.3425 -0.3548  0.1770
   56MOL   C38346693   5.421   2.372   4.257 -0.6442 -0.7173 -0.4942
   56MOL   C38446694   5.313   2.448   4.334 -0.2386  0.2232  0.9559
   56MOL   C38546695   5.342   2.599   4.357 -0.1747 -0.6265  0.6086
   56MOL   C38646696   5.224   2.668   4.426  0.0243 -0.5591  0.4089
   56MOL   C38746697   5.238   2.822   4.429 -0.3819  0.2195 -0.7191
   56MOL   C38846698   5.368   2.876   4.478  1.1486 -0.4361 -0.1798
   56MOL   C38946699   5.377   3.023   4.491  0.3354 -0.2861  0.4381
   56MOL   C39046700   5.472   3.081   4.383  0.2060 -0.5150  0.0926
   56MOL   C39146701   5.488   3.238   4.387 -0.0966  0.1685 -0.0159
   56MOL   C39246702   5.576   3.285   4.507  0.4891  0.1934 -0.0712
   56MOL   C39346703   5.566   3.434   4.536  0.2538  0.0914  0.1974
   56MOL   H39446704   5.517   1.951   4.075  1.8390  1.5846  1.7419
   56MOL   H39546705   5.413   1.973   4.223 -0.6546  1.1255 -0.0725
   56MOL   H39646706   5.509   2.192   4.060  1.3733 -2.1766 -0.9060
   56MOL   H39746707   5.383   2.177   4.351 -1.3817  0.7922  0.6539
   56MOL   H39846708   5.290   2.212   4.208 -0.4055  0.5291  0.0968
   56MOL   H39946709   5.419   2.422   4.160 -4.0136  0.5453  0.1285
   56MOL   H40046710   5.516   2.385   4.309 -0.8626 -0.8249 -0.0577
   56MOL   H40146711   5.306   2.405   4.434 -0.7142 -1.2709  0.3061
   56MOL   H40246712   5.219   2.436   4.280  0.6886  1.1582 -0.8991
   56MOL   H40346713   5.366   2.643   4.260 -1.5953  3.1095  1.8541
   56MOL   H40446714   5.426   2.630   4.419 -1.3109  2.2858  0.7475
   56MOL   H40546715   5.127   2.633   4.390  0.4810 -0.9068 -0.4900
   56MOL   H40646716   5.222   2.634   4.530 -0.4539 -1.3603  0.1451
   56MOL   H40746717   5.216   2.880   4.339  0.2507  1.8927  0.1790
   56MOL   H40846718   5.160   2.847   4.500 -0.8619  2.2041 -1.8902
   56MOL   H40946719   5.372   2.838   4.580  1.0544 -1.9807 -0.7347
   56MOL   H41046720   5.453   2.831   4.425  0.8656 -0.5023 -0.5812
   56MOL   H41146721   5.413   3.056   4.588 -1.5396 -1.3810  1.5391
   56MOL   H41246722   5.276   3.065   4.497  0.7267  0.4981  1.6062
   56MOL   H41346723   5.566   3.027   4.392  1.4509  1.7777  1.2311
   56MOL   H41446724   5.445   3.052   4.281 -0.1293 -1.1770  0.3612
   56MOL   H41546725   5.398   3.298   4.381 -1.1382 -1.2998  0.5782
   56MOL   H41646726   5.551   3.270   4.304  0.0365  1.6606  0.6513
   56MOL   H41746727   5.526   3.246   4.596  2.5426 -0.7262  0.7184
   56MOL   H41846728   5.678   3.248   4.500  0.3520 -0.3774  0.8096
   56MOL   H41946729   5.483   3.496   4.504  1.0714  1.3432  0.4188
   56MOL   H42046730   5.656   3.468   4.484 -0.3956  1.4475 -0.0714
   56MOL   H42146731   5.595   3.458   4.639 -0.8089 -1.1568  0.7902
   56MOL   C42246732   5.627   2.133   4.226  0.5294 -0.0980  0.3996
   56MOL   C42346733   5.739   2.141   4.118  0.7624  0.0647  0.0695
   56MOL   C42446734   5.766   2.288   4.075  0.7422 -0.1993  0.4266
   56MOL   C42546735   5.846   2.300   3.941 -0.4463 -0.1529 -0.5001
   56MOL   C42646736   5.875   2.446   3.894  0.1831  0.1651  1.1814
   56MOL   C42746737   5.953   2.445   3.759  0.5345  0.5828 -0.3063
   56MOL   C42846738   6.006   2.583   3.720 -0.1247  0.3646  0.0379
   56MOL   C42946739   6.090   2.571   3.594 -0.7297  0.2539  0.2508
   56MOL   C43046740   6.216   2.482   3.606  0.8372 -1.0159 -0.1814
   56MOL   C43146741   6.269   2.449   3.468 -0.1776  0.0869  0.4843
   56MOL   C43246742   6.411   2.382   3.495  0.3948 -0.1691  0.0714
   56MOL   C43346743   6.394   2.256   3.578  0.4874  0.3179  0.3853
   56MOL   C43446744   6.501   2.150   3.556 -0.3112 -1.0967  0.0299
   56MOL   C43546745   6.643   2.196   3.586 -0.0917 -0.0564 -0.3314
   56MOL   H43646746   5.634   2.041   4.283 -4.0826  0.0295  1.3388
   56MOL   H43746747   5.647   2.218   4.291  0.9750 -0.1409  0.3188
   56MOL   H43846748   5.706   2.076   4.037 -0.7638  2.2967 -1.1751
   56MOL   H43946749   5.824   2.346   4.148  0.8669 -0.3301  0.4323
   56MOL   H44046750   5.675   2.342   4.051  0.7408 -0.1607  0.5195
   56MOL   H44146751   5.943   2.255   3.961 -1.3160 -2.0280 -0.4140
   56MOL   H44246752   5.789   2.236   3.874  0.3183  1.0297 -2.3150
   56MOL   H44346753   5.929   2.496   3.975 -1.0559 -0.7430  2.5907
   56MOL   H44446754   5.783   2.502   3.878 -1.5430 -3.2177 -1.3193
   56MOL   H44546755   5.884   2.400   3.687 -0.4528 -2.0253  2.1624
   56MOL   H44646756   6.037   2.378   3.776 -0.2383  0.1312  1.8313
   56MOL   H44746757   5.927   2.654   3.694 -0.6151 -0.4278 -0.6686
   56MOL   H44846758   6.076   2.621   3.794  0.6750 -1.0783  0.0411
   56MOL   H44946759   6.016   2.533   3.524 -2.0545  3.1978 -0.0146
   56MOL   H45046760   6.104   2.671   3.554  4.4574 -0.0421  1.0645
   56MOL   H45146761   6.296   2.531   3.661 -0.0397  1.5837 -1.1656
   56MOL   H45246762   6.198   2.388   3.659  1.1634  0.1536  2.0771
   56MOL   H45346763   6.203   2.380   3.416  0.3492  0.8922 -1.2969
   56MOL   H45446764   6.273   2.534   3.398  0.5111 -1.5451 -1.5099
   56MOL   H45546765   6.462   2.365   3.400  0.6296  1.0125 -0.0249
   56MOL   H45646766   6.475   2.440   3.562  1.6166 -0.5276 -0.7781
   56MOL   H45746767   6.293   2.221   3.558  0.6616 -0.7845  1.3898
   56MOL   H45846768   6.389   2.286   3.683  2.3126 -0.0360  0.5806
   56MOL   H45946769   6.471   2.064   3.615 -0.2318 -1.2919 -0.2192
   56MOL   H46046770   6.494   2.125   3.451 -1.3086  1.7310 -0.6483
   56MOL   H46146771   6.666   2.287   3.531  0.6180 -0.8690 -1.3950
   56MOL   H46246772   6.715   2.115   3.570  0.1814  0.0129  0.5051
   56MOL   H46346773   6.662   2.221   3.690 -1.2881 -0.6237  0.0378
   56MOL   C46446774   5.872   2.079   4.170  0.4558 -0.8032 -0.3450
   56MOL   C46546775   5.880   1.921   4.165  0.4571 -0.7092 -0.1110
   56MOL   C46646776   5.928   1.876   4.030 -0.1247  0.2336  0.3604
   56MOL   C46746777   6.076   1.895   3.976  0.2533  0.1836  0.5024
   56MOL   C46846778   6.089   1.844   3.826 -0.1916 -0.4516 -0.3180
   56MOL   C46946779   6.233   1.806   3.782  0.3856  0.0118 -0.1488
   56MOL   C47046780   6.256   1.783   3.630 -0.2732  0.4151 -0.7355
   56MOL   C47146781   6.395   1.731   3.595  0.1214  0.5105  0.1528
   56MOL   C47246782   6.433   1.738   3.447  0.1557  0.5166  0.1023
   56MOL   C47346783   6.583   1.718   3.410  0.7637  0.1959 -0.1471
   56MOL   C47446784   6.664   1.826   3.477 -0.7323  0.2472  0.2603
   56MOL   C47546785   6.815   1.814   3.439  0.2818  0.1247 -0.0556
   56MOL   C47646786   6.905   1.932   3.470  0.0023  0.0431 -0.3076
   56MOL   C47746787   7.049   1.888   3.474  0.6601  0.3528  0.1604
   56MOL   H47846788   5.866   2.116   4.272 -1.6569  1.2924 -1.1957
   56MOL   H47946789   5.960   2.128   4.130  0.5414 -1.7057 -1.2908
   56MOL   H48046790   5.778   1.884   4.173 -0.6681  1.4835 -3.0414
   56MOL   H48146791   5.916   1.770   4.009 -0.0902  0.4802 -0.9563
   56MOL   H48246792   5.865   1.918   3.951  0.4353 -2.0698 -1.3943
   56MOL   H48346793   6.129   1.831   4.046  1.6803  0.4554 -0.3082
   56MOL   H48446794   6.101   2.001   3.980 -0.8474  0.3800  2.9742
   56MOL   H48546795   6.053   1.921   3.758 -2.0760  1.2268  2.4292
   56MOL   H48646796   6.023   1.759   3.811  1.0483 -1.7904  1.4735
   56MOL   H48746797   6.310   1.876   3.815 -1.0024  1.6069 -0.2722
   56MOL   H48846798   6.247   1.712   3.836 -0.1036  0.6960  1.1790
   56MOL   H48946799   6.178   1.713   3.600  0.6248 -0.7552 -0.4260
   56MOL   H49046800   6.228   1.876   3.581  2.6676  1.7979  0.1165
   56MOL   H49146801   6.468   1.778   3.662  1.3697 -0.0711 -0.7768
   56MOL   H49246802   6.402   1.623   3.613 -0.6069  0.2249 -1.2154
   56MOL   H49346803   6.379   1.665   3.387 -0.7985  1.2752  0.0271
   56MOL   H49446804   6.392   1.833   3.412  1.2274  0.4367 -1.4302
   56MOL   H49546805   6.620   1.622   3.444 -1.3681 -0.9867 -1.1231
   56MOL   H49646806   6.583   1.724   3.301  1.4459  1.5263 -0.0896
   56MOL   H49746807   6.632   1.923   3.439  2.0620  1.1048 -0.0834
   56MOL   H49846808   6.653   1.825   3.585  2.1794  2.0206  0.6316
   56MOL   H49946809   6.827   1.788   3.334  0.1814 -2.3047  0.4921
   56MOL   H50046810   6.848   1.728   3.498 -1.5799 -0.1465  0.5986
   56MOL   H50146811   6.899   2.015   3.400  2.1956 -2.1448 -3.1916
   56MOL   H50246812   6.889   1.965   3.573  1.4612  1.5880 -0.5498
   56MOL   H50346813   7.068   1.789   3.517 -0.8817  0.6555  1.5841
   56MOL   H50446814   7.083   1.884   3.371  0.7056 -0.4413  0.1976
   56MOL   H50546815   7.107   1.967   3.521  0.2794  0.7018  0.0388
   56MOL   C50646816   5.969   1.851   4.274 -0.1611  0.0011  0.3811
   56MOL   C50746817   5.915   1.851   4.416 -0.2736 -0.2116 -0.4247
   56MOL   C50846818   5.766   1.811   4.432 -0.1661 -0.2850 -0.2615
   56MOL   C50946819   5.743   1.660   4.402  0.1597 -0.4802 -1.0649
   56MOL   C51046820   5.606   1.620   4.449  0.1000 -0.2508 -1.0536
   56MOL   C51146821   5.490   1.675   4.367  0.0125  0.5403  0.5263
   56MOL   C51246822   5.359   1.638   4.429  0.1585  0.4903 -0.4076
   56MOL   C51346823   5.307   1.726   4.536 -0.0350 -0.7103  1.0131
   56MOL   C51446824   5.222   1.842   4.470 -0.5084 -0.4937  0.3635
   56MOL   C51546825   5.143   1.926   4.579 -0.7016 -0.3705  0.1852
   56MOL   C51646826   5.108   2.073   4.532 -0.3631  0.4060  0.4626
   56MOL   C51746827   5.027   2.144   4.634 -0.1432  0.0746  0.2588
   56MOL   C51846828   5.023   2.290   4.621 -0.3696 -0.4336  0.2502
   56MOL   C51946829   4.952   2.333   4.486  0.3446 -0.1406  0.4779
   56MOL   H52046830   6.070   1.891   4.276  0.2087 -0.9392  2.7714
   56MOL   H52146831   5.974   1.747   4.241  0.5832  0.4953 -1.0982
   56MOL   H52246832   5.917   1.953   4.453  1.2878  0.4833 -2.3625
   56MOL   H52346833   5.738   1.840   4.534 -2.0041  2.3930 -1.4621
   56MOL   H52446834   5.704   1.872   4.366 -0.0588 -0.8047 -0.8373
   56MOL   H52546835   5.749   1.640   4.295  0.8073  0.9508 -1.3080
   56MOL   H52646836   5.821   1.597   4.445 -0.8632  0.0036  1.5956
   56MOL   H52746837   5.608   1.659   4.551 -0.9400 -0.0702 -1.0887
   56MOL   H52846838   5.609   1.511   4.451 -0.0400 -0.2554 -1.0545
   56MOL   H52946839   5.500   1.625   4.270  2.8168 -0.6196  1.3632
   56MOL   H53046840   5.487   1.783   4.354  1.8327  0.6885  1.1963
   56MOL   H53146841   5.286   1.643   4.348 -0.1360 -0.7592 -0.2390
   56MOL   H53246842   5.358   1.534   4.463 -1.3845  0.4167 -0.6596
   56MOL   H53346843   5.388   1.752   4.604  0.3028 -0.8964  0.6899
   56MOL   H53446844   5.234   1.671   4.595 -1.4986 -2.4517 -2.2724
   56MOL   H53546845   5.141   1.793   4.417 -0.6801  0.5733 -0.3783
   56MOL   H53646846   5.276   1.907   4.402 -1.9717  1.1243  0.7163
   56MOL   H53746847   5.050   1.877   4.606  0.4589 -2.5288  0.3548
   56MOL   H53846848   5.207   1.924   4.667 -0.0585 -0.1769 -0.2627
   56MOL   H53946849   5.197   2.134   4.516  0.1295 -0.4962 -0.2693
   56MOL   H54046850   5.052   2.074   4.439 -3.1987 -0.5532  2.0691
   56MOL   H54146851   5.073   2.125   4.731 -2.2716 -0.1325  1.2523
   56MOL   H54246852   4.928   2.098   4.627  0.3322 -0.8663 -0.4508
   56MOL   H54346853   5.124   2.332   4.620 -0.5876  0.0783 -0.8319
   56MOL   H54446854   4.975   2.330   4.710 -3.7377 -1.0151 -1.2348
   56MOL   H54546855   4.938   2.442   4.489 -0.9578 -0.3029  0.4446
   56MOL   H54646856   5.002   2.311   4.392 -2.1459  1.1276 -1.2173
   56MOL   H54746857   4.855   2.285   4.480  0.1320  0.2375  0.8613
   56MOL   C54846858   6.006   1.773   4.512  0.5106  0.2056 -0.0455
   56MOL   C54946859   6.125   1.858   4.561 -0.6162 -0.4171 -0.3136
   56MOL   C55046860   6.144   1.835   4.718 -0.6033  0.0734 -0.0190
   56MOL   C55146861   6.044   1.911   4.802  0.4505 -1.0916 -0.0822
   56MOL   C55246862   6.082   2.048   4.830 -0.7353 -0.1838 -0.0055
   56MOL   C55346863   5.982   2.103   4.936 -0.6825  0.1972  0.5933
   56MOL   C55446864   5.992   2.253   4.950  0.1015  0.0485  0.2022
   56MOL   C55546865   5.932   2.317   5.076 -0.3364  1.0157 -0.5660
   56MOL   C55646866   5.776   2.317   5.057 -0.2663  0.5199 -0.3081
   56MOL   C55746867   5.700   2.385   5.168 -0.5793 -0.0497 -0.4297
   56MOL   C55846868   5.699   2.544   5.148  0.5650 -0.2166 -0.0260
   56MOL   C55946869   5.589   2.611   5.239 -0.5320  0.0969  0.1953
   56MOL   C56046870   5.577   2.761   5.226  0.4107  0.3172  0.3610
   56MOL   C56146871   5.427   2.790   5.252  0.2966 -0.0167 -0.3551
   56MOL   H56246872   5.952   1.741   4.601  2.8754  1.0286  1.7320
   56MOL   H56346873   6.030   1.672   4.479 -0.3201  0.2147 -0.7123
   56MOL   H56446874   6.115   1.962   4.530  0.2840 -0.5200 -0.9658
   56MOL   H56546875   6.134   1.728   4.736  0.3443  0.1164  0.8279
   56MOL   H56646876   6.243   1.859   4.757  0.6803 -2.6452 -1.4804
   56MOL   H56746877   6.035   1.862   4.898 -0.3009  1.2307  1.0805
   56MOL   H56846878   5.945   1.911   4.756 -0.1814  1.9125  1.1342
   56MOL   H56946879   6.181   2.045   4.876 -0.5233 -0.9259 -0.5161
   56MOL   H57046880   6.093   2.110   4.741  0.0352  0.5181  0.5658
   56MOL   H57146881   6.014   2.060   5.031 -0.6774  1.4476  1.1662
   56MOL   H57246882   5.881   2.072   4.908 -0.5328  0.7004 -0.5193
   56MOL   H57346883   6.100   2.269   4.957 -0.1116  0.9101  1.6997
   56MOL   H57446884   5.955   2.306   4.862  0.0639 -0.2569  0.0328
   56MOL   H57546885   5.969   2.418   5.094 -0.9645  1.1465  0.0538
   56MOL   H57646886   5.973   2.262   5.161 -1.6954 -1.2626 -1.3478
   56MOL   H57746887   5.746   2.212   5.052  2.3333 -0.3484  1.4001
   56MOL   H57846888   5.761   2.361   4.958 -2.9894 -0.7888 -0.5276
   56MOL   H57946889   5.603   2.337   5.180 -0.0979 -0.5478  1.5566
   56MOL   H58046890   5.748   2.364   5.263 -1.5972 -1.7004 -0.2611
   56MOL   H58146891   5.670   2.572   5.047 -2.6395 -1.1431  0.5837
   56MOL   H58246892   5.801   2.577   5.169  0.4795  0.0110  0.0199
   56MOL   H58346893   5.490   2.566   5.230 -1.2878  1.8754 -0.5876
   56MOL   H58446894   5.608   2.586   5.343  0.4644 -0.0214 -0.0119
   56MOL   H58546895   5.645   2.818   5.289 -1.0806  1.2213  1.1931
   56MOL   H58646896   5.590   2.784   5.120 -1.4449  0.6903  0.1846
   56MOL   H58746897   5.398   2.892   5.226  0.9420  0.5200  0.9310
   56MOL   H58846898   5.359   2.723   5.199 -0.4070  1.3588 -1.2293
   56MOL   H58946899   5.398   2.785   5.358 -0.7786 -1.7354 -0.7191
   56MOL   C59046900   6.261   1.815   4.498  0.0037 -0.6347 -0.1544
   56MOL   C59146901   6.382   1.912   4.518 -0.0011  0.7136  0.5216
   56MOL   C59246902   6.508   1.822   4.503  0.8217  0.3806 -0.5853
   56MOL   C59346903   6.537   1.730   4.609  0.3304 -0.0928  0.2848
   56MOL   C59446904   6.673   1.651   4.603  0.0500 -0.4369 -0.7464
   56MOL   C59546905   6.680   1.559   4.478  0.0822 -0.1448  0.0583
   56MOL   C59646906   6.805   1.471   4.473  0.6058  0.1743 -0.2788
   56MOL   C59746907   6.797   1.379   4.352 -0.4015 -0.0079 -0.1425
   56MOL   C59846908   6.927   1.293   4.335 -0.4241 -0.0597  0.5235
   56MOL   C59946909   6.943   1.201   4.459 -0.0185 -0.4676 -0.5124
   56MOL   C60046910   7.060   1.116   4.456  0.0170  0.2879  0.2055
   56MOL   C60146911   7.092   1.035   4.579  0.4753  0.0764  0.3064
   56MOL   C60246912   7.034   0.891   4.568 -0.7460 -0.3064  0.1353
   56MOL   C60346913   7.078   0.790   4.674 -0.4892  0.6642 -0.0458
   56MOL   H60446914   6.247   1.817   4.390 -2.2635 -0.2007  0.1267
   56MOL   H60546915   6.280   1.713   4.531 -0.0617 -0.2696  1.0224
   56MOL   H60646916   6.377   1.940   4.623  1.4483 -1.6519  1.2650
   56MOL   H60746917   6.603   1.875   4.494 -0.0790  2.3390  1.1830
   56MOL   H60846918   6.495   1.769   4.408 -1.0168  0.7743 -0.5634
   56MOL   H60946919   6.457   1.657   4.615 -0.3610  0.3957 -2.2392
   56MOL   H61046920   6.542   1.795   4.696  0.5054 -0.9029  0.8812
   56MOL   H61146921   6.681   1.603   4.701  0.2465  1.4784  0.2103
   56MOL   H61246922   6.758   1.718   4.613 -0.7313  0.5091 -0.2952
   56MOL   H61346923   6.670   1.624   4.391  1.7644 -0.2163 -0.2135
   56MOL   H61446924   6.591   1.496   4.477  0.0824 -0.1792  1.4131
   56MOL   H61546925   6.896   1.530   4.463  0.9457 -0.5931 -1.8125
   56MOL   H61646926   6.810   1.421   4.570  0.4129  2.8623  1.1605
   56MOL   H61746927   6.707   1.320   4.365 -1.6801  1.7355 -0.9052
   56MOL   H61846928   6.777   1.443   4.266  1.0414  2.4268  1.2818
   56MOL   H61946929   6.926   1.239   4.241  0.5831 -1.4761  1.3083
   56MOL   H62046930   7.017   1.355   4.339 -0.2971 -0.1055 -1.5123
   56MOL   H62146931   6.956   1.261   4.548 -0.2062 -2.2015  0.7113
   56MOL   H62246932   6.855   1.138   4.470 -1.0014  0.4562 -2.7656
   56MOL   H62346933   7.147   1.176   4.429 -0.2708  0.7255  0.2525
   56MOL   H62446934   7.053   1.044   4.374  0.0957 -0.3565  0.7585
   56MOL   H62546935   7.052   1.079   4.670  0.2807  1.2085 -0.3065
   56MOL   H62646936   7.198   1.030   4.603  0.4958 -0.5953  0.0743
   56MOL   H62746937   6.925   0.903   4.567 -0.5349  1.9444 -2.2440
   56MOL   H62846938   7.075   0.848   4.476 -0.0314 -0.8032  0.6776
   56MOL   H62946939   7.041   0.816   4.773  0.4770  0.7274  0.2996
   56MOL   H63046940   7.185   0.770   4.680 -0.7679 -1.2852 -1.0697
   56MOL   H63146941   7.036   0.694   4.643 -1.7703  1.3776 -0.5894
   56MOL   C63246942   6.375   2.036   4.425  0.0335  0.6182 -0.5091
   56MOL   C63346943   6.434   2.170   4.482  0.6050  0.0831  0.0393
   56MOL   C63446944   6.362   2.216   4.620  0.4074  0.2291  0.1969
   56MOL   C63546945   6.362   2.372   4.647 -0.0764 -0.7291 -0.0097
   56MOL   C63646946   6.277   2.404   4.772  0.5059  0.1371  0.7223
   56MOL   C63746947   6.257   2.557   4.792  0.4023  0.3684  0.0938
   56MOL   C63846948   6.139   2.580   4.888 -0.5079  0.5228 -0.3167
   56MOL   C63946949   6.105   2.725   4.932 -0.6044 -0.1666 -0.1480
   56MOL   C64046950   6.214   2.769   5.029  0.2614  0.8173 -0.1101
   56MOL   C64146951   6.196   2.910   5.081  0.5350 -0.0127 -0.1495
   56MOL   C64246952   6.307   2.951   5.167 -0.6486 -0.6423 -0.1387
   56MOL   C64346953   6.302   3.105   5.175  0.5139  0.2524  0.1519
   56MOL   C64446954   6.386   3.175   5.285  1.0742  0.0920  0.0226
   56MOL   C64546955   6.361   3.328   5.272 -0.5377 -0.3199 -0.5430
   56MOL   H64646956   6.272   2.051   4.391 -0.9163 -2.5144  0.8877
   56MOL   H64746957   6.437   2.014   4.338 -0.3835 -0.7440 -0.4700
   56MOL   H64846958   6.420   2.246   4.406  0.3865 -1.8897 -1.9371
   56MOL   H64946959   6.261   2.185   4.594  0.7529 -0.2915 -0.5461
   56MOL   H65046960   6.398   2.174   4.714  0.5412  4.5141  2.2191
   56MOL   H65146961   6.326   2.426   4.560 -0.4213 -1.7997 -0.5440
   56MOL   H65246962   6.464   2.402   4.670 -0.0988 -0.2825 -0.5007
   56MOL   H65346963   6.313   2.353   4.861  0.2001 -0.2544  0.6211
   56MOL   H65446964   6.176   2.364   4.764  0.0901  1.1585  0.7335
   56MOL   H65546965   6.356   2.592   4.820  0.2856 -0.9981  2.2909
   56MOL   H65646966   6.242   2.606   4.695  2.0593  2.6521  0.9570
   56MOL   H65746967   6.047   2.543   4.842 -0.7702 -0.6883  1.1396
   56MOL   H65846968   6.153   2.518   4.976  0.4978 -0.9926 -1.5242
   56MOL   H65946969   6.008   2.731   4.982 -0.8993 -1.0660 -0.6021
   56MOL   H66046970   6.111   2.795   4.848  1.1256  0.9727  0.8860
   56MOL   H66146971   6.308   2.776   4.973  0.4056 -2.4102 -0.3559
   56MOL   H66246972   6.211   2.686   5.099  1.7389  0.2936 -0.6452
   56MOL   H66346973   6.175   2.978   4.998  0.3059 -3.1466 -2.7399
   56MOL   H66446974   6.100   2.918   5.133 -0.5140  1.0920 -2.1628
   56MOL   H66546975   6.306   2.905   5.266 -0.2236 -3.5641 -1.4182
   56MOL   H66646976   6.407   2.925   5.131 -0.6253  1.7220 -1.8776
   56MOL   H66746977   6.198   3.132   5.188  0.0490 -0.8661 -1.1693
   56MOL   H66846978   6.336   3.145   5.079  0.8002 -0.5190 -0.0722
   56MOL   H66946979   6.492   3.156   5.268  1.2377  0.8271  0.2208
   56MOL   H67046980   6.358   3.133   5.382 -1.3768  1.3472 -0.1207
   56MOL   H67146981   6.401   3.355   5.175  1.8127  0.7905  0.7099
   56MOL   H67246982   6.260   3.363   5.295 -0.6600 -1.6122  1.0263
   56MOL   H67346983   6.423   3.381   5.344  1.0818 -2.4310 -0.3529
   56MOL   C67446984   6.584   2.157   4.525 -0.1154  0.8810  0.0775
   56MOL   C67546985   6.682   2.139   4.403 -0.2539 -0.3192  0.3752
   56MOL   C67646986   6.706   2.273   4.330  0.2042 -0.2340 -0.2712
   56MOL   C67746987   6.724   2.264   4.178  0.0706 -0.0157  0.3610
   56MOL   C67846988   6.731   2.398   4.101  1.0127 -0.0394  0.4730
   56MOL   C67946989   6.846   2.488   4.147 -0.2356  0.3054 -0.1224
   56MOL   C68046990   6.880   2.587   4.035  0.3546  0.1789 -0.9124
   56MOL   C68146991   7.011   2.665   4.049  0.7335 -0.0110  0.3297
   56MOL   C68246992   7.140   2.582   4.034 -0.2149  0.4859 -0.3878
   56MOL   C68346993   7.270   2.669   4.039  0.0202 -0.2900  0.7182
   56MOL   C68446994   7.396   2.591   3.992  0.6121 -0.6560 -0.7276
   56MOL   C68546995   7.421   2.611   3.843 -0.3367  0.4078 -0.2309
   56MOL   C68646996   7.509   2.497   3.785  0.3237  0.2040  0.1251
   56MOL   C68746997   7.556   2.522   3.642 -0.2379 -0.2010  0.1298
   56MOL   H68846998   6.597   2.074   4.594  2.2191  1.0237 -0.1801
   56MOL   H68946999   6.607   2.253   4.573  0.1480  1.5770 -1.4149
   56MOL   H69047000   6.642   2.066   4.332  0.0092  1.1981 -1.3733
   56MOL   H69147001   6.628   2.345   4.353 -1.0624 -1.7140  0.2166
   56MOL   H69247002   6.786   2.329   4.378  0.2944 -1.8440  1.5406
   56MOL   H69347003   6.818   2.209   4.166  0.2846  0.4370 -0.0505
   56MOL   H69447004   6.640   2.204   4.144  0.1342 -1.3007  2.3660
   56MOL   H69547005   6.741   2.378   3.994 -1.4228 -0.0407  0.1995
   56MOL   H69647006   6.635   2.450   4.110  0.1877 -1.4019 -0.1156
   56MOL   H69747007   6.830   2.538   4.242 -0.0263 -0.9761  0.5938
   56MOL   H69847008   6.931   2.422   4.166 -1.0734 -0.2645  1.6998
   56MOL   H69947009   6.894   2.537   3.939  1.6553 -1.0192 -0.1324
   56MOL   H70047010   6.796   2.655   4.026 -0.7080 -1.3592 -2.7837
   56MOL   H70147011   7.007   2.742   3.972  0.5131 -1.4220 -1.0980
   56MOL   H70247012   7.018   2.711   4.147  2.4522 -1.4881  0.9349
   56MOL   H70347013   7.139   2.504   4.110  0.1862 -0.2652 -1.1508
   56MOL   H70447014   7.139   2.531   3.938  3.4917 -0.1279 -0.1749
   56MOL   H70547015   7.272   2.692   4.145 -1.4533  1.0249  0.4767
   56MOL   H70647016   7.271   2.765   3.987 -0.4864  1.0080  3.0518
   56MOL   H70747017   7.399   2.487   4.025  0.5938 -0.4342 -0.0218
   56MOL   H70847018   7.483   2.629   4.044 -0.7424  0.6863  0.6177
   56MOL   H70947019   7.483   2.700   3.836  1.2276 -0.5035  1.8041
   56MOL   H71047020   7.331   2.620   3.781 -0.5280  3.6188  0.4475
   56MOL   H71147021   7.599   2.483   3.845  0.1143 -1.6653  0.0491
   56MOL   H71247022   7.458   2.401   3.791  0.4525  0.1466  0.3362
   56MOL   H71347023   7.613   2.436   3.605  0.8031  1.0301 -1.2185
   56MOL   H71447024   7.473   2.532   3.572  0.2481  1.0038 -0.2851
   56MOL   H71547025   7.622   2.609   3.637  0.0691 -0.3702  1.2790
   56MOL   C71647026   6.816   2.079   4.443  0.4412  0.9880  0.4949
   56MOL   C71747027   6.892   2.151   4.557  0.0927  0.2473  0.5221
   56MOL   C71847028   6.879   2.080   4.692 -0.2602 -0.6967 -0.9812
   56MOL   C71947029   6.917   2.157   4.815 -0.1143 -0.2602 -0.1967
   56MOL   C72047030   6.803   2.252   4.859  1.3696  0.0183  0.0902
   56MOL   C72147031   6.853   2.352   4.968 -0.4515  0.6202  0.4537
   56MOL   C72247032   6.782   2.487   4.964  0.2338  0.2643 -0.3014
   56MOL   C72347033   6.868   2.610   5.005  0.0598  0.8865  0.4558
   56MOL   C72447034   6.804   2.745   4.987 -0.5679  0.0037  0.2092
   56MOL   C72547035   6.870   2.851   5.073  0.3763  1.0166 -0.1141
   56MOL   C72647036   6.780   2.980   5.091  0.2803 -0.1059  0.1235
   56MOL   C72747037   6.854   3.099   5.154 -0.1607  0.1120  0.0154
   56MOL   C72847038   6.767   3.227   5.190  0.0095 -0.3721  0.3543
   56MOL   C72947039   6.720   3.316   5.076  0.4896  0.5809  0.2183
   56MOL   H73047040   6.803   1.976   4.477 -0.3961  1.4621  1.6505
   56MOL   H73147041   6.881   2.069   4.357  0.5323  0.2947  0.6451
   56MOL   H73247042   6.860   2.255   4.559 -1.5061 -0.2483  3.3835
   56MOL   H73347043   6.940   1.989   4.698  0.5282 -0.1418 -0.5330
   56MOL   H73447044   6.784   2.028   4.704  0.1050 -0.5695  3.1127
   56MOL   H73547045   6.931   2.096   4.905  1.2256  0.5206  0.1266
   56MOL   H73647046   7.012   2.209   4.807 -0.0573 -0.3301  0.0052
   56MOL   H73747047   6.781   2.315   4.772  0.7213  1.8391  1.5474
   56MOL   H73847048   6.704   2.211   4.878  1.8954 -1.0440  0.5397
   56MOL   H73947049   6.837   2.305   5.065  0.4832  1.4885  1.0351
   56MOL   H74047050   6.961   2.363   4.956 -0.7314  1.3659 -1.5975
   56MOL   H74147051   6.742   2.500   4.864 -1.2356  1.6608  0.4367
   56MOL   H74247052   6.699   2.495   5.034  0.9971  1.1430  0.5291
   56MOL   H74347053   6.955   2.622   4.940 -0.2215  1.4100  0.1684
   56MOL   H74447054   6.904   2.616   5.107 -0.0830 -0.8156  0.6101
   56MOL   H74547055   6.817   2.771   4.882 -1.6942 -1.8127 -0.3994
   56MOL   H74647056   6.701   2.726   5.017 -0.1994 -2.4776 -0.0646
   56MOL   H74747057   6.885   2.817   5.176 -1.5831 -0.9495 -0.4396
   56MOL   H74847058   6.973   2.869   5.044  0.7771 -0.3018  0.4536
   56MOL   H74947059   6.729   3.005   4.998  1.1160  1.7297  0.1382
   56MOL   H75047060   6.702   2.950   5.161  0.1907  0.4300  0.2572
   56MOL   H75147061   6.898   3.060   5.247 -2.2973 -2.4423  0.0290
   56MOL   H75247062   6.931   3.134   5.085 -1.5092  0.1042 -1.5156
   56MOL   H75347063   6.846   3.288   5.234 -0.3084  0.1906  0.1418
   56MOL   H75447064   6.697   3.212   5.272  1.5874 -2.9531  1.3092
   56MOL   H75547065   6.646   3.394   5.095 -1.2822 -1.4628  2.0320
   56MOL   H75647066   6.673   3.262   4.994  1.4252 -1.0837  0.7557
   56MOL   H75747067   6.812   3.360   5.037  0.8869 -2.9939 -3.1986
   56MOL   C75847068   7.045   2.158   4.521 -0.0712  0.1735  0.1439
   56MOL   C75947069   7.091   2.243   4.403 -0.2326 -0.1001  0.2216
   56MOL   C76047070   7.127   2.386   4.440 -0.2362  0.2634  0.7384
   56MOL   C76147071   7.021   2.471   4.510 -0.2237  0.0240  0.5143
   56MOL   C76247072   7.078   2.603   4.536 -0.4703 -1.3285 -0.0002
   56MOL   C76347073   6.991   2.707   4.605 -0.0511 -0.2503  0.0466
   56MOL   C76447074   7.059   2.837   4.618 -0.1102 -0.1987  0.0755
   56MOL   C76547075   6.975   2.948   4.686  0.7976 -0.8269  0.7595
   56MOL   C76647076   7.029   3.086   4.654  0.2716 -0.0724  0.0221
   56MOL   C76747077   6.971   3.197   4.738  0.2521 -0.0463  0.0654
   56MOL   C76847078   6.996   3.341   4.682 -0.0805  0.4785  0.0532
   56MOL   C76947079   6.914   3.452   4.753 -0.0609 -0.0015  0.7328
   56MOL   C77047080   6.942   3.597   4.702 -0.0157  0.3492  0.3323
   56MOL   C77147081   6.863   3.704   4.789  0.9056  0.2562 -0.1872
   56MOL   H77247082   7.105   2.175   4.610 -1.2699  2.0490  0.6175
   56MOL   H77347083   7.066   2.054   4.493 -1.3438  0.0007 -0.1719
   56MOL   H77447084   7.010   2.245   4.331 -0.2521  1.2720  0.2592
   56MOL   H77547085   7.215   2.389   4.505 -0.8814 -2.0842  1.7909
   56MOL   H77647086   7.151   2.435   4.346  1.1504 -2.1729 -0.2246
   56MOL   H77747087   6.930   2.477   4.450  0.6199  1.1876 -0.6635
   56MOL   H77847088   6.985   2.430   4.604  1.4187 -0.6427  0.8648
   56MOL   H77947089   7.104   2.652   4.443  0.5371 -0.6983  0.6084
   56MOL   H78047090   7.172   2.592   4.589  1.5593 -0.7720 -3.3441
   56MOL   H78147091   6.964   2.678   4.706 -0.3760 -0.4884 -0.1105
   56MOL   H78247092   6.906   2.723   4.539  0.0933 -1.1108 -0.3576
   56MOL   H78347093   7.157   2.827   4.665 -0.5441  0.3774  1.1197
   56MOL   H78447094   7.073   2.877   4.518 -0.7856 -0.7000 -0.2177
   56MOL   H78547095   6.976   2.934   4.794 -1.0172 -0.4360  0.8381
   56MOL   H78647096   6.868   2.945   4.663  0.8767  0.6244  0.1983
   56MOL   H78747097   7.003   3.113   4.551 -1.0560 -0.6398  0.1936
   56MOL   H78847098   7.136   3.096   4.674  0.2866  0.4804 -0.3241
   56MOL   H78947099   7.015   3.195   4.838 -1.5054  0.5323  0.8766
   56MOL   H79047100   6.863   3.185   4.754  0.1221 -0.2162 -0.9109
   56MOL   H79147101   7.102   3.363   4.687  0.3720 -1.4421 -0.5334
   56MOL   H79247102   6.956   3.350   4.581  1.3995  0.1139 -0.5807
   56MOL   H79347103   6.806   3.436   4.757  0.0614 -0.8017  0.9761
   56MOL   H79447104   6.936   3.447   4.859  1.6352 -0.5094  0.3721
   56MOL   H79547105   7.047   3.625   4.705  0.2902 -0.5185 -1.5610
   56MOL   H79647106   6.906   3.604   4.600 -0.5547 -1.7812  0.3568
   56MOL   H79747107   6.910   3.715   4.887  1.2142  0.1325 -0.3217
   56MOL   H79847108   6.861   3.802   4.743 -0.2002 -0.1839 -1.0931
   56MOL   H79947109   6.762   3.666   4.805  1.2913 -1.0013 -0.6520
   56MOL   C80047110   7.204   2.168   4.353  0.2171  0.5302  0.1364
   56MOL   C80147111   7.279   2.244   4.242 -0.4726 -0.5900 -0.5804
   56MOL   C80247112   7.367   2.159   4.161  0.2036 -0.5777 -0.5069
   56MOL   C80347113   7.304   2.052   4.067 -0.3980 -0.2620  0.3498
   56MOL   C80447114   7.281   2.113   3.927  0.5127 -0.7991 -0.0953
   56MOL   C80547115   7.169   2.223   3.905  0.0086 -0.5982 -0.0786
   56MOL   C80647116   7.031   2.188   3.947  0.5030 -0.1760  0.5398
   56MOL   C80747117   6.956   2.120   3.831  0.2615 -0.1614  0.1501
   56MOL   C80847118   6.821   2.061   3.864  0.6159 -0.2810  0.4530
   56MOL   C80947119   6.832   1.936   3.952  0.2925 -0.1697  0.1449
   56MOL   C81047120   6.690   1.884   3.971 -0.4115  0.8788  0.1037
   56MOL   C81147121   6.682   1.730   4.004 -0.1280  0.4188  0.1474
   56MOL   C81247122   6.545   1.664   4.002  0.2035 -0.3817 -0.4952
   56MOL   C81347123   6.467   1.696   4.125  1.1619 -0.1979  0.0852
   56MOL   H81447124   7.173   2.068   4.322  1.3844  0.2627 -0.1806
   56MOL   H81547125   7.273   2.154   4.436  0.3767  1.5247  0.1820
   56MOL   H81647126   7.347   2.320   4.282  0.9281 -1.7331 -0.7332
   56MOL   H81747127   7.432   2.105   4.229 -0.6564 -1.7763 -0.6252
   56MOL   H81847128   7.430   2.222   4.098 -0.4413 -1.7193 -2.2992
   56MOL   H81947129   7.211   2.018   4.114 -0.3177 -0.9684 -0.0071
   56MOL   H82047130   7.370   1.967   4.050 -0.2202  0.0118 -0.3332
   56MOL   H82147131   7.373   2.144   3.879  0.4040  2.3125  1.5785
   56MOL   H82247132   7.257   2.025   3.867  0.7863 -0.4763 -0.6703
   56MOL   H82347133   7.178   2.273   3.808 -2.2293  0.7887  0.3975
   56MOL   H82447134   7.212   2.292   3.977 -1.2189  1.5407 -1.3492
   56MOL   H82547135   7.038   2.140   4.044  0.3282  0.1787  0.7309
   56MOL   H82647136   6.971   2.276   3.971  0.6986  0.2672 -0.5591
   56MOL   H82747137   6.949   2.199   3.756 -0.3811 -0.2641  0.0968
   56MOL   H82847138   7.029   2.045   3.801  1.9684  0.7423  1.9634
   56MOL   H82947139   6.738   2.126   3.891 -0.6577 -0.1972 -3.2889
   56MOL   H83047140   6.783   2.024   3.769  2.1010  1.0148 -0.6661
   56MOL   H83147141   6.888   1.961   4.042  0.3847  1.1784 -0.2875
   56MOL   H83247142   6.891   1.857   3.905  0.0895  0.1389 -0.6207
   56MOL   H83347143   6.627   1.940   4.040  1.4749  0.7209  1.9951
   56MOL   H83447144   6.638   1.901   3.877 -1.5225 -2.0194  0.1255
   56MOL   H83547145   6.721   1.709   4.103  1.9427  0.0359 -0.7178
   56MOL   H83647146   6.743   1.677   3.931 -1.1193 -2.5035  1.3598
   56MOL   H83747147   6.478   1.702   3.924 -0.1359 -0.1326 -0.0801
   56MOL   H83847148   6.552   1.556   4.014 -0.9796 -0.3000  0.9240
   56MOL   H83947149   6.522   1.667   4.215  0.4627 -1.4602  0.1105
   56MOL   H84047150   6.456   1.804   4.133 -1.5749 -0.3295 -1.3749
   56MOL   H84147151   6.372   1.643   4.120  1.4837 -0.9510  1.5029
   56MOL   H84247152   7.205   2.306   4.193  2.2047  0.8344 -3.0087
   57MOL     C147153   1.923   2.447   2.488  0.2647 -0.3321  0.1259
   57MOL     C247154   2.069   2.509   2.496 -0.0020  0.5689  0.3112
   57MOL     C347155   2.159   2.394   2.541  0.0823  0.7863 -0.3249
   57MOL     C447156   2.309   2.426   2.534  0.2453  0.1473 -0.5170
   57MOL     C547157   2.387   2.293   2.550 -0.1836  0.0114 -0.6810
   57MOL     C647158   2.534   2.311   2.554  0.0596  0.9657 -0.5434
   57MOL     C747159   2.610   2.176   2.559  0.3890 -0.3934 -0.2152
   57MOL     C847160   2.613   2.105   2.698 -0.8772  0.3930 -0.2705
   57MOL     C947161   2.709   1.992   2.712  0.0783  0.4559  0.3868
   57MOL    C1047162   2.689   1.878   2.612  0.1521  0.5199  0.2663
   57MOL    C1147163   2.758   1.750   2.661  0.0504 -0.1817  0.3846
   57MOL    C1247164   2.723   1.637   2.561  0.2439 -0.1809  0.0989
   57MOL    C1347165   2.811   1.510   2.588 -0.7609  0.3284 -0.2802
   57MOL    C1447166   2.799   1.402   2.476  0.0840 -0.2493 -0.4691
   57MOL    H1547167   1.852   2.507   2.431  1.1271 -0.2306 -0.8576
   57MOL    H1647168   1.885   2.447   2.590  1.1358  1.2893  0.4694
   57MOL    H1747169   2.071   2.583   2.576 -1.8127  1.7540 -0.7153
   57MOL    H1847170   2.133   2.370   2.644  1.7858  0.2066 -0.0162
   57MOL    H1947171   2.144   2.302   2.483 -1.1104  0.0624  1.0991
   57MOL    H2047172   2.327   2.495   2.617  3.0242 -1.0638 -0.0737
   57MOL    H2147173   2.332   2.475   2.440 -0.2023 -1.5154 -1.5036
   57MOL    H2247174   2.369   2.236   2.459  0.6600 -0.5211 -0.5161
   57MOL    H2347175   2.354   2.240   2.639 -1.2804  0.6796 -0.6798
   57MOL    H2447176   2.560   2.375   2.638  1.5579 -0.2903 -0.0302
   57MOL    H2547177   2.570   2.373   2.472  0.8433 -1.3691 -2.0125
   57MOL    H2647178   2.558   2.117   2.484 -3.5171  0.8758  1.3498
   57MOL    H2747179   2.710   2.190   2.517  0.1823 -0.3600 -0.6951
   57MOL    H2847180   2.513   2.068   2.721 -1.5606  1.9024 -0.7494
   57MOL    H2947181   2.643   2.175   2.776  3.0565 -0.4068 -0.9792
   57MOL    H3047182   2.813   2.024   2.723  0.0384  0.5351  0.5331
   57MOL    H3147183   2.685   1.956   2.812 -2.5641  0.5548 -0.1720
   57MOL    H3247184   2.586   1.868   2.577  0.4290  1.4380 -0.8460
   57MOL    H3347185   2.743   1.905   2.521  1.6080 -1.7324  0.4276
   57MOL    H3447186   2.865   1.768   2.648  0.1008 -0.2316  0.7298
   57MOL    H3547187   2.740   1.724   2.765  0.0532 -0.8915  0.2123
   57MOL    H3647188   2.741   1.667   2.458 -4.1842  1.2121 -0.3719
   57MOL    H3747189   2.616   1.619   2.559  0.3004 -0.6407  1.1235
   57MOL    H3847190   2.915   1.539   2.601 -0.5541 -0.7768  0.6171
   57MOL    H3947191   2.781   1.477   2.687  2.1894 -0.6559  0.3274
   57MOL    H4047192   2.841   1.305   2.503  1.4746  0.1518 -1.1784
   57MOL    H4147193   2.692   1.389   2.455 -0.2241 -0.3256  1.0677
   57MOL    H4247194   2.840   1.439   2.382 -0.0845  1.3776  0.0880
   57MOL    H4347195   1.923   2.344   2.452 -0.3067 -0.2741 -0.0474
   57MOL    C4447196   2.111   2.564   2.360  0.2326 -0.6695  0.4583
   57MOL    C4547197   2.031   2.676   2.288 -0.7617  0.0272  0.5429
   57MOL    C4647198   2.103   2.716   2.153 -0.3203 -0.4275  0.2137
   57MOL    C4747199   2.134   2.604   2.050 -0.1928 -0.7386  0.4812
   57MOL    C4847200   2.186   2.666   1.920  0.3482 -0.4455  0.4307
   57MOL    C4947201   2.249   2.558   1.838  0.0968  0.2343  0.2375
   57MOL    C5047202   2.286   2.616   1.697  0.7832  0.6639 -0.2932
   57MOL    C5147203   2.403   2.711   1.710 -0.4541  0.3747  0.4558
   57MOL    C5247204   2.479   2.729   1.574 -0.0026 -0.8272  0.3050
   57MOL    C5347205   2.582   2.835   1.576  0.5714 -0.1369  0.0811
   57MOL    C5447206   2.658   2.848   1.446  0.2065 -0.0614 -0.5165
   57MOL    C5547207   2.764   2.959   1.441 -0.4364  1.3616  0.6840
   57MOL    C5647208   2.830   2.951   1.301  0.0770  0.4101 -0.3622
   57MOL    C5747209   2.936   3.064   1.302  0.6950  0.3854 -0.6858
   57MOL    H5847210   2.213   2.603   2.363 -0.1324  0.2885  0.6735
   57MOL    H5947211   2.118   2.479   2.292 -0.1506  1.0398 -1.7838
   57MOL    H6047212   1.934   2.627   2.275 -1.7663  2.5829 -2.1167
   57MOL    H6147213   2.044   2.795   2.107  0.7645 -0.5808 -1.4815
   57MOL    H6247214   2.201   2.754   2.180 -1.7056  2.9589  0.7127
   57MOL    H6347215   2.050   2.537   2.038  0.4093 -1.3809 -0.2265
   57MOL    H6447216   2.219   2.558   2.102 -1.5130  0.2454  3.6264
   57MOL    H6547217   2.255   2.746   1.949 -1.0404  0.4791  1.2135
   57MOL    H6647218   2.107   2.713   1.862 -0.5919 -2.2560  0.1963
   57MOL    H6747219   2.339   2.523   1.889 -0.2511 -1.9202 -0.5858
   57MOL    H6847220   2.176   2.479   1.822 -1.1411  1.8587 -2.4488
   57MOL    H6947221   2.316   2.529   1.639  3.0078  1.1926  0.0528
   57MOL    H7047222   2.203   2.665   1.645  1.5220  0.1597 -1.9836
   57MOL    H7147223   2.473   2.661   1.778  0.5675 -1.3301 -1.7985
   57MOL    H7247224   2.365   2.798   1.763 -0.3296 -1.2879  3.3941
   57MOL    H7347225   2.528   2.640   1.535  1.8689 -0.0200  0.7781
   57MOL    H7447226   2.402   2.751   1.499  0.8070 -0.0476 -0.3001
   57MOL    H7547227   2.654   2.809   1.654  0.4678 -0.4681  0.0696
   57MOL    H7647228   2.538   2.931   1.603  2.1692  0.9651 -1.1254
   57MOL    H7747229   2.585   2.871   1.368 -0.6791 -1.8474 -0.2406
   57MOL    H7847230   2.706   2.752   1.428  1.0524  0.1879  0.3630
   57MOL    H7947231   2.711   3.053   1.446 -1.1730  0.8814  2.1700
   57MOL    H8047232   2.833   2.962   1.525 -1.8860  1.6830  1.8602
   57MOL    H8147233   2.754   2.969   1.226  0.5589  2.7830 -0.3332
   57MOL    H8247234   2.877   2.854   1.286  0.2165  0.2088  1.2228
   57MOL    H8347235   2.987   3.066   1.205 -0.9544 -0.1392 -1.5908
   57MOL    H8447236   3.024   3.056   1.364  1.6141 -0.7542 -2.1184
   57MOL    H8547237   2.889   3.159   1.327  2.5831  1.3325 -0.6380
   57MOL    C8647238   2.014   2.802   2.380  0.3257  0.4571  0.2063
   57MOL    C8747239   1.913   2.913   2.337 -0.4401 -0.3185  0.3881
   57MOL    C8847240   1.945   3.045   2.418 -0.2412 -0.1958  0.6340
   57MOL    C8947241   1.920   3.031   2.568  0.1584  0.2313 -0.0182
   57MOL    C9047242   1.936   3.168   2.633  0.0361 -0.1295  0.5581
   57MOL    C9147243   1.936   3.161   2.779 -0.3161  0.5227  0.3981
   57MOL    C9247244   1.922   3.304   2.841 -0.1726 -0.5780 -0.7583
   57MOL    C9347245   1.902   3.314   2.998  0.3291  0.7288  0.1531
   57MOL    C9447246   1.766   3.257   3.043 -0.4294  0.0848 -0.0816
   57MOL    C9547247   1.747   3.273   3.197 -0.5778  0.0301  0.4835
   57MOL    C9647248   1.657   3.174   3.268  0.6240 -0.4530 -0.7299
   57MOL    C9747249   1.643   3.207   3.419  0.5732 -0.3109 -0.0370
   57MOL    C9847250   1.572   3.099   3.504  0.0787  0.3342  0.0289
   57MOL    C9947251   1.541   3.139   3.646  0.8435 -0.8102 -0.2401
   57MOL   H10047252   1.989   2.767   2.480  1.2228 -2.4602 -0.5313
   57MOL   H10147253   2.114   2.843   2.387 -0.1734  2.5250 -3.4473
   57MOL   H10247254   1.935   2.943   2.234  1.4778  0.7980  1.0918
   57MOL   H10347255   2.046   3.083   2.402  0.2098 -0.9338  1.6794
   57MOL   H10447256   1.876   3.117   2.375 -0.8429  0.0150  1.9473
   57MOL   H10547257   1.823   2.987   2.591  0.2984  0.2494  0.6393
   57MOL   H10647258   1.977   2.950   2.613 -0.1668  0.2881  0.5093
   57MOL   H10747259   1.855   3.232   2.599  0.3131  0.7744  1.5618
   57MOL   H10847260   2.026   3.225   2.608 -1.1361  0.8846 -1.4558
   57MOL   H10947261   2.020   3.100   2.814 -3.0744 -2.3363  2.3099
   57MOL   H11047262   1.855   3.100   2.817 -1.6330  2.6951  1.1346
   57MOL   H11147263   2.002   3.370   2.809  0.2380 -0.9748 -0.5437
   57MOL   H11247264   1.832   3.348   2.797 -0.3927 -0.2983 -0.0452
   57MOL   H11347265   1.909   3.416   3.035  0.7272  0.3028  1.2986
   57MOL   H11447266   1.981   3.249   3.038  1.7421  0.7493 -2.4923
   57MOL   H11547267   1.679   3.295   2.989 -1.2605  2.4923  2.8471
   57MOL   H11647268   1.774   3.151   3.021 -0.3272  0.5568 -2.4179
   57MOL   H11747269   1.725   3.375   3.227 -2.4430 -0.4935  0.9421
   57MOL   H11847270   1.847   3.253   3.237  0.0123  0.2767 -0.8339
   57MOL   H11947271   1.561   3.175   3.215 -0.0733 -2.9261  0.4112
   57MOL   H12047272   1.698   3.074   3.260  2.8110  0.4824 -1.4198
   57MOL   H12147273   1.742   3.228   3.459  0.4735  0.8310 -0.3772
   57MOL   H12247274   1.593   3.304   3.427 -3.4613 -2.3368  1.2199
   57MOL   H12347275   1.640   3.013   3.502  0.6870  0.7162  2.7455
   57MOL   H12447276   1.479   3.078   3.453  0.6764 -3.9004  0.4724
   57MOL   H12547277   1.635   3.166   3.695  1.3369 -0.6729 -1.2508
   57MOL   H12647278   1.481   3.229   3.658  2.1073  0.1132 -0.8208
   57MOL   H12747279   1.501   3.050   3.695 -1.4077  0.6475  0.6640
   57MOL   C12847280   1.767   2.855   2.361 -0.0865 -0.3636  0.3310
   57MOL   C12947281   1.644   2.953   2.340  0.0284 -0.1079  0.1420
   57MOL   C13047282   1.629   2.996   2.198 -0.3464 -0.1442  0.8300
   57MOL   C13147283   1.555   3.129   2.171  0.4617 -0.2630 -0.7157
   57MOL   C13247284   1.631   3.259   2.222 -0.2686  0.0657  0.6825
   57MOL   C13347285   1.745   3.303   2.122 -0.6026  0.5054 -0.0977
   57MOL   C13447286   1.801   3.444   2.147 -0.0791 -0.1519  0.4165
   57MOL   C13547287   1.892   3.447   2.281  0.3546  0.4071  0.1278
   57MOL   C13647288   1.912   3.595   2.299 -0.1916 -0.4941  0.3831
   57MOL   C13747289   2.035   3.621   2.390  0.0223 -0.4806  0.2066
   57MOL   C13847290   2.066   3.773   2.400 -0.1125 -0.8510  0.6244
   57MOL   C13947291   2.201   3.800   2.465  1.5496 -0.5881 -0.4958
   57MOL   C14047292   2.214   3.775   2.617 -0.4062  0.4106  0.0987
   57MOL   C14147293   2.153   3.887   2.701  0.6206  0.3009  0.0516
   57MOL   H14247294   1.753   2.766   2.300  0.5001  0.7342 -1.4513
   57MOL   H14347295   1.759   2.819   2.463  0.2810 -0.3643  0.3589
   57MOL   H14447296   1.663   3.039   2.404 -1.6928  0.0401  0.4722
   57MOL   H14547297   1.726   3.008   2.151  0.6086 -0.8811  2.5883
   57MOL   H14647298   1.571   2.925   2.139 -1.4815 -1.3482  3.3253
   57MOL   H14747299   1.514   3.141   2.071 -1.4587  1.1299  0.1978
   57MOL   H14847300   1.461   3.135   2.226  0.7130 -0.1343 -0.2932
   57MOL   H14947301   1.559   3.339   2.242 -4.0656 -2.6978 -1.2439
   57MOL   H15047302   1.670   3.241   2.322 -0.4832 -0.6971  0.6358
   57MOL   H15147303   1.828   3.234   2.134 -0.5207  0.4416 -0.9790
   57MOL   H15247304   1.718   3.282   2.019  1.5991 -0.8782 -0.4356
   57MOL   H15347305   1.851   3.473   2.054 -2.1530  0.5021 -0.5202
   57MOL   H15447306   1.708   3.501   2.156  0.9041  1.8415 -1.4854
   57MOL   H15547307   1.841   3.412   2.371  0.7266  0.7664  0.4805
   57MOL   H15647308   1.977   3.379   2.276 -0.7578 -1.0617  0.7514
   57MOL   H15747309   1.950   3.632   2.204 -0.2489 -1.1835  0.0912
   57MOL   H15847310   1.824   3.642   2.345  0.5467 -0.7844  2.1434
   57MOL   H15947311   2.126   3.571   2.356  0.7578  0.1498  1.2280
   57MOL   H16047312   2.011   3.601   2.494 -1.5776  2.4106  0.4473
   57MOL   H16147313   2.056   3.828   2.306 -2.7454 -1.2044  0.6386
   57MOL   H16247314   1.995   3.827   2.463 -0.3490  0.6072 -0.8719
   57MOL   H16347315   2.285   3.747   2.420  0.9094 -2.5946  0.5893
   57MOL   H16447316   2.219   3.904   2.440  1.1690 -0.1984  0.8215
   57MOL   H16547317   2.182   3.674   2.642  0.6016 -0.2850 -1.3664
   57MOL   H16647318   2.318   3.780   2.648  0.2403 -0.2615 -1.9128
   57MOL   H16747319   2.159   3.868   2.809 -0.7608  0.3278  0.1481
   57MOL   H16847320   2.205   3.980   2.682 -1.2547  1.7695  1.8485
   57MOL   H16947321   2.050   3.903   2.668  1.2455 -0.5493 -2.4071
   57MOL   C17047322   1.509   2.896   2.394 -0.3623 -0.2210  0.2615
   57MOL   C17147323   1.488   2.936   2.544  0.3876 -0.1256  0.2311
   57MOL   C17247324   1.462   3.085   2.559  0.2519 -0.0101 -0.2225
   57MOL   C17347325   1.549   3.143   2.672  0.5707 -0.1420  0.5694
   57MOL   C17447326   1.528   3.292   2.712 -0.2406 -0.0864  0.6405
   57MOL   C17547327   1.573   3.392   2.601  0.0057 -0.2187  0.3103
   57MOL   C17647328   1.587   3.533   2.667 -0.3533  0.0862 -0.1577
   57MOL   C17747329   1.649   3.623   2.570  0.3007 -0.2814 -0.5687
   57MOL   C17847330   1.650   3.767   2.632  0.3346  0.3593  0.2981
   57MOL   C17947331   1.707   3.877   2.549 -0.4079  0.5555  0.5222
   57MOL   C18047332   1.691   4.017   2.616  0.2182 -0.4906 -0.3570
   57MOL   C18147333   1.718   4.135   2.524 -0.1284  0.6573  0.3761
   57MOL   C18247334   1.869   4.152   2.500 -0.2478 -0.1527  0.4204
   57MOL   C18347335   1.881   4.248   2.374 -0.1206 -0.2684 -0.3211
   57MOL   H18447336   1.526   2.788   2.394 -1.1627 -0.3569  2.0647
   57MOL   H18547337   1.426   2.926   2.329  1.3606  1.0534 -1.4239
   57MOL   H18647338   1.581   2.918   2.597 -0.4718  1.3975  2.3442
   57MOL   H18747339   1.498   3.142   2.473  1.6840  0.9457  0.9662
   57MOL   H18847340   1.355   3.097   2.572 -0.0136 -0.7292 -1.5747
   57MOL   H18947341   1.530   3.082   2.760  1.6403 -0.9318  0.2685
   57MOL   H19047342   1.656   3.120   2.664 -0.0410 -3.5045  1.2490
   57MOL   H19147343   1.423   3.311   2.736 -0.3481  2.7225 -1.7229
   57MOL   H19247344   1.585   3.310   2.803 -0.1147  2.6372  0.0672
   57MOL   H19347345   1.510   3.395   2.513  1.7249  2.0681 -0.8818
   57MOL   H19447346   1.675   3.363   2.575 -1.0539 -4.6456  0.6769
   57MOL   H19547347   1.643   3.526   2.760 -0.7868 -0.4270  0.0696
   57MOL   H19647348   1.490   3.572   2.699 -0.1097 -2.0587  3.4452
   57MOL   H19747349   1.595   3.618   2.475  1.1499 -0.6945 -1.0332
   57MOL   H19847350   1.752   3.595   2.547 -0.2225 -1.6674 -1.3132
   57MOL   H19947351   1.719   3.751   2.715  2.3060  1.2458 -1.1318
   57MOL   H20047352   1.549   3.789   2.667  0.3144 -0.2618  0.6495
   57MOL   H20147353   1.657   3.869   2.453  1.7462  0.0193 -0.5893
   57MOL   H20247354   1.812   3.846   2.543 -0.4210  0.7833 -0.9088
   57MOL   H20347355   1.746   4.013   2.710 -0.4104 -0.8567  0.0001
   57MOL   H20447356   1.590   4.023   2.654 -0.6761 -1.8448 -2.4328
   57MOL   H20547357   1.650   4.126   2.439 -1.4900 -0.1777  1.5400
   57MOL   H20647358   1.684   4.223   2.579  0.7180  0.2447  1.5868
   57MOL   H20747359   1.918   4.199   2.585  0.3854 -0.6675  0.3440
   57MOL   H20847360   1.918   4.064   2.460 -0.3477 -0.1197  0.2232
   57MOL   H20947361   1.821   4.338   2.385  1.3794  1.0440 -2.5866
   57MOL   H21047362   1.853   4.199   2.281  2.2919  0.1644 -1.2858
   57MOL   H21147363   1.985   4.279   2.370 -0.1969  0.3418  1.6110
   57MOL   C21247364   1.373   2.852   2.602  0.2453 -0.3010 -0.8556
   57MOL   C21347365   1.405   2.706   2.653  0.4797 -0.1797 -0.2877
   57MOL   C21447366   1.443   2.704   2.804  0.2111  0.4858  0.1789
   57MOL   C21547367   1.582   2.767   2.832  0.3954  0.1913 -0.1104
   57MOL   C21647368   1.626   2.759   2.989  0.4071 -0.1964  0.4034
   57MOL   C21747369   1.756   2.828   3.015 -0.2062 -0.4662  0.5065
   57MOL   C21847370   1.805   2.798   3.149 -0.0196  0.2709 -0.6479
   57MOL   C21947371   1.949   2.833   3.188  0.3071  0.2137  0.0860
   57MOL   C22047372   1.962   2.981   3.231  0.1372  0.0633 -0.3876
   57MOL   C22147373   2.108   3.013   3.257  0.2980 -0.3459 -0.0121
   57MOL   C22247374   2.134   3.160   3.305 -0.3220  0.1960 -0.6219
   57MOL   C22347375   2.254   3.156   3.402  0.6424 -0.0762 -0.7456
   57MOL   C22447376   2.274   3.301   3.458 -0.3067 -0.8810  0.5361
   57MOL   C22547377   2.407   3.313   3.524  0.6597 -0.5145 -0.0614
   57MOL   H22647378   1.287   2.850   2.535 -2.0822 -3.8452  2.0204
   57MOL   H22747379   1.328   2.902   2.687 -0.2939 -1.7572 -0.2696
   57MOL   H22847380   1.496   2.665   2.609  0.3356 -1.3538  0.4769
   57MOL   H22947381   1.357   2.750   2.853 -0.1090  0.0568  0.0304
   57MOL   H23047382   1.455   2.606   2.850  0.0482 -0.3056 -1.4257
   57MOL   H23147383   1.580   2.872   2.802  1.3604 -0.1494 -1.3454
   57MOL   H23247384   1.661   2.728   2.769 -0.1549  0.0870 -0.7321
   57MOL   H23347385   1.624   2.655   3.021  2.1152 -0.0177  1.1366
   57MOL   H23447386   1.551   2.822   3.035 -0.4706 -1.0095  0.1041
   57MOL   H23547387   1.738   2.935   3.007  1.3427 -0.1380  1.1655
   57MOL   H23647388   1.827   2.801   2.937  0.7326  1.7564  0.5509
   57MOL   H23747389   1.732   2.837   3.221  0.8626 -1.7642  1.4103
   57MOL   H23847390   1.803   2.690   3.159 -1.4246  0.2428 -1.1404
   57MOL   H23947391   1.984   2.761   3.262  0.5580  0.4184  0.1668
   57MOL   H24047392   2.020   2.818   3.107 -0.6839  1.6584 -1.0729
   57MOL   H24147393   1.887   3.009   3.305  0.1638 -1.0584  0.0730
   57MOL   H24247394   1.932   3.041   3.145 -2.8834 -0.4753  0.2591
   57MOL   H24347395   2.147   2.944   3.332  3.3892  2.0628  0.7019
   57MOL   H24447396   2.157   2.991   3.163 -0.5733 -0.1178 -0.5171
   57MOL   H24547397   2.043   3.195   3.355  0.3176 -0.4562  1.0251
   57MOL   H24647398   2.145   3.226   3.218 -2.0413  1.6773  0.2336
   57MOL   H24747399   2.344   3.117   3.354  0.8423 -0.9471  0.3171
   57MOL   H24847400   2.235   3.089   3.485 -1.7897  0.7321 -0.6076
   57MOL   H24947401   2.201   3.336   3.531 -0.6898  0.9486 -0.6990
   57MOL   H25047402   2.270   3.378   3.382 -0.5849 -1.1164  0.3138
   57MOL   H25147403   2.400   3.267   3.623  0.6049  1.3668  0.8323
   57MOL   H25247404   2.488   3.255   3.482 -0.5953 -1.3075 -1.4371
   57MOL   H25347405   2.436   3.418   3.527 -0.5361 -0.1709 -0.3250
   57MOL   C25447406   1.291   2.601   2.613 -0.3159 -0.7191 -0.3320
   57MOL   C25547407   1.339   2.449   2.627 -0.1552 -0.2327 -0.7775
   57MOL   C25647408   1.226   2.348   2.639  0.1657 -0.7469  0.0619
   57MOL   C25747409   1.126   2.371   2.757 -0.3270 -0.1973  0.0427
   57MOL   C25847410   1.023   2.255   2.774  0.5067  0.5923 -0.1214
   57MOL   C25947411   0.916   2.248   2.665  0.6768 -0.0721 -0.2716
   57MOL   C26047412   0.828   2.115   2.671  0.2116 -0.1376  0.4610
   57MOL   C26147413   0.910   2.002   2.601 -0.2591  0.3497  1.1097
   57MOL   C26247414   0.893   1.855   2.645  0.6522 -0.3349  0.7819
   57MOL   C26347415   0.956   1.832   2.784 -0.3906 -0.0957 -0.3801
   57MOL   C26447416   1.114   1.832   2.781  0.7380  0.7210 -0.4088
   57MOL   C26547417   1.157   1.811   2.930  0.5481 -0.2819  0.5465
   57MOL   C26647418   1.308   1.784   2.948  0.6702 -0.8487 -0.0510
   57MOL   C26747419   1.402   1.897   2.915 -0.1623 -0.8510 -0.2633
   57MOL   H26847420   1.261   2.628   2.511 -0.5404 -1.4422 -0.4635
   57MOL   H26947421   1.204   2.622   2.674  1.0259  0.7567  1.0963
   57MOL   H27047422   1.391   2.443   2.722 -1.3690  1.2607 -0.0102
   57MOL   H27147423   1.280   2.256   2.661  1.2986 -0.1498 -0.1362
   57MOL   H27247424   1.181   2.358   2.540  3.1723 -2.6684 -1.6263
   57MOL   H27347425   1.075   2.466   2.737  1.6991  0.3336 -2.9688
   57MOL   H27447426   1.180   2.386   2.850 -0.4751  1.1532 -0.0740
   57MOL   H27547427   0.973   2.260   2.871  0.2311 -1.8224 -0.1005
   57MOL   H27647428   1.085   2.165   2.769 -2.1109 -1.1927 -2.3589
   57MOL   H27747429   0.953   2.277   2.567  0.5961  2.9163  0.5515
   57MOL   H27847430   0.845   2.328   2.683  0.0394 -0.3944 -1.3124
   57MOL   H27947431   0.808   2.084   2.773 -2.9383  1.1711  0.3090
   57MOL   H28047432   0.731   2.117   2.621  1.1764 -1.0772 -1.5308
   57MOL   H28147433   1.014   2.023   2.576 -0.1793  1.5897  2.4149
   57MOL   H28247434   0.888   1.997   2.495  2.1256 -0.5879  0.6276
   57MOL   H28347435   0.785   1.841   2.649  0.7196 -2.0117 -1.8499
   57MOL   H28447436   0.941   1.799   2.564 -0.5321 -0.1101 -0.0835
   57MOL   H28547437   0.928   1.734   2.822 -1.4055  0.4969  0.4132
   57MOL   H28647438   0.926   1.911   2.853 -0.4630 -0.8698  0.4802
   57MOL   H28747439   1.146   1.928   2.741 -3.0715  2.3109  0.1566
   57MOL   H28847440   1.158   1.753   2.721  0.0235  0.4009 -0.5231
   57MOL   H28947441   1.126   1.891   2.998 -0.6190 -0.7719  0.6123
   57MOL   H29047442   1.102   1.724   2.967  1.6439 -0.2414  2.3507
   57MOL   H29147443   1.324   1.742   3.047 -1.0733  0.2241  0.6931
   57MOL   H29247444   1.336   1.711   2.872  0.9330 -1.0957  0.2822
   57MOL   H29347445   1.382   1.973   2.990  0.5492 -1.0575  0.1389
   57MOL   H29447446   1.401   1.938   2.814 -1.1466 -1.9881 -0.7286
   57MOL   H29547447   1.501   1.857   2.937 -1.1130 -2.3038  1.5087
   57MOL   C29647448   1.447   2.408   2.517 -0.0844  0.6735  0.0524
   57MOL   C29747449   1.401   2.387   2.361 -0.3382 -0.1425  0.4247
   57MOL   C29847450   1.442   2.510   2.269  0.0583  0.3377 -0.6964
   57MOL   C29947451   1.436   2.497   2.119  0.0077 -0.0258 -0.0324
   57MOL   C30047452   1.458   2.634   2.056  0.3079  0.5267 -0.0314
   57MOL   C30147453   1.468   2.608   1.905  0.2665  0.1208  0.1191
   57MOL   C30247454   1.453   2.733   1.825 -0.4250 -0.6135 -0.0430
   57MOL   C30347455   1.585   2.822   1.829 -0.2010  0.1175  0.4396
   57MOL   C30447456   1.554   2.961   1.769 -0.0072 -0.0111 -0.1412
   57MOL   C30547457   1.574   2.961   1.622 -0.1968 -0.0816 -1.6921
   57MOL   C30647458   1.554   3.098   1.551 -0.6588 -0.1502 -0.2923
   57MOL   C30747459   1.551   3.087   1.398 -0.8018  0.5274  0.5123
   57MOL   C30847460   1.540   3.224   1.325 -0.3251  0.1764  0.4934
   57MOL   C30947461   1.533   3.215   1.172  0.2228  0.0776  0.1374
   57MOL   H31047462   1.494   2.319   2.558 -1.8869 -0.5139 -0.3990
   57MOL   H31147463   1.538   2.469   2.514 -1.9454  3.5001 -1.5579
   57MOL   H31247464   1.292   2.394   2.360 -0.4473 -1.6881 -0.0374
   57MOL   H31347465   1.546   2.537   2.289  0.3801 -0.1661 -1.6376
   57MOL   H31447466   1.384   2.597   2.299  1.3620  0.5237  1.3919
   57MOL   H31547467   1.334   2.471   2.093  0.3837 -2.1826  0.5310
   57MOL   H31647468   1.495   2.416   2.076  3.2105  1.3958  1.4682
   57MOL   H31747469   1.376   2.703   2.075 -0.3409 -0.0111 -0.8411
   57MOL   H31847470   1.550   2.684   2.087  1.5688 -0.8594 -1.4469
   57MOL   H31947471   1.380   2.546   1.887  0.3248 -0.2449  1.1034
   57MOL   H32047472   1.559   2.557   1.876 -1.3082 -1.7166 -1.8234
   57MOL   H32147473   1.438   2.715   1.719  0.9553 -2.8839  0.1137
   57MOL   H32247474   1.364   2.786   1.859 -0.3795  0.1835 -1.1569
   57MOL   H32347475   1.672   2.776   1.781  0.0162 -0.6984  1.6028
   57MOL   H32447476   1.608   2.840   1.933 -0.4135 -0.4004  0.5822
   57MOL   H32547477   1.454   3.000   1.790  0.1386  0.7853 -0.9057
   57MOL   H32647478   1.619   3.034   1.818  1.3454 -0.3041 -1.4714
   57MOL   H32747479   1.499   2.895   1.580 -1.6375  1.4036 -1.5169
   57MOL   H32847480   1.670   2.918   1.595  0.5801 -0.1250  0.9953
   57MOL   H32947481   1.602   3.188   1.588  0.8612 -1.4407  0.9837
   57MOL   H33047482   1.456   3.143   1.568 -1.1749 -0.7894 -1.5166
   57MOL   H33147483   1.482   3.019   1.349  0.5287  0.4834 -1.3883
   57MOL   H33247484   1.651   3.049   1.376 -0.0520  2.4862  0.4916
   57MOL   H33347485   1.623   3.285   1.360 -0.5023  1.1357 -0.6927
   57MOL   H33447486   1.449   3.271   1.364  0.7889 -0.2564  3.6879
   57MOL   H33547487   1.456   3.144   1.141  0.1487 -0.1442  0.8245
   57MOL   H33647488   1.521   3.313   1.127 -2.5320  0.5668  1.7770
   57MOL   H33747489   1.627   3.174   1.138  0.9246  1.9355 -0.2085
   57MOL   C33847490   1.424   2.243   2.293 -0.1678 -0.3699 -0.1391
   57MOL   C33947491   1.375   2.114   2.372 -0.5275 -0.4832  0.2716
   57MOL   C34047492   1.221   2.079   2.350 -0.0059 -0.0639 -0.1454
   57MOL   C34147493   1.174   2.039   2.209  0.1907 -0.3868  0.0283
   57MOL   C34247494   1.028   1.994   2.202  0.4424  0.3016 -0.7001
   57MOL   C34347495   0.979   1.970   2.057 -0.1957 -0.1851  0.2220
   57MOL   C34447496   0.833   1.926   2.047 -0.0749 -0.0104 -0.3212
   57MOL   C34547497   0.800   1.880   1.903 -0.6507 -0.8841 -0.7206
   57MOL   C34647498   0.653   1.875   1.868  0.9901  1.1973 -0.0224
   57MOL   C34747499   0.587   1.749   1.943 -0.0501  0.2348 -0.4527
   57MOL   C34847500   0.437   1.729   1.926 -0.0406 -0.2970  0.0786
   57MOL   C34947501   0.394   1.587   1.963 -0.3649  0.1882  0.1558
   57MOL   C35047502   0.244   1.566   1.926 -0.0372 -0.3216  0.8822
   57MOL   C35147503   0.192   1.432   1.978  0.1928  0.2329  0.6108
   57MOL   H35247504   1.385   2.238   2.192 -0.2227 -1.7349 -0.0652
   57MOL   H35347505   1.531   2.235   2.271  0.0948 -0.1205  1.0202
   57MOL   H35447506   1.371   2.136   2.479  4.4193  1.7807  0.1022
   57MOL   H35547507   1.196   1.997   2.417  1.3099  0.8196  1.4413
   57MOL   H35647508   1.163   2.157   2.400 -1.2344 -1.7881  1.1578
   57MOL   H35747509   1.242   1.972   2.155 -0.6321 -1.6987  0.6055
   57MOL   H35847510   1.180   2.132   2.152  0.1469  1.8826  3.5977
   57MOL   H35947511   0.959   2.068   2.243  0.5690 -0.0950  0.2478
   57MOL   H36047512   1.002   1.915   2.273 -0.5967  0.1034 -1.2901
   57MOL   H36147513   0.992   2.063   2.001  0.4816 -0.0656  0.5724
   57MOL   H36247514   1.044   1.895   2.011 -2.9294 -2.7857  0.4788
   57MOL   H36347515   0.814   1.829   2.093  1.0212 -0.4293 -0.7520
   57MOL   H36447516   0.751   1.997   2.063 -0.9480 -0.2271 -3.3923
   57MOL   H36547517   0.842   1.955   1.836  0.8134  0.7601  1.9502
   57MOL   H36647518   0.842   1.783   1.876 -2.3985 -1.9280  0.2170
   57MOL   H36747519   0.597   1.965   1.891 -0.1045  0.3734  0.5944
   57MOL   H36847520   0.649   1.863   1.759  0.9708  1.3596 -0.0396
   57MOL   H36947521   0.642   1.663   1.904  1.2525  1.1627 -0.6773
   57MOL   H37047522   0.601   1.767   2.050  0.1102  0.3469 -0.4927
   57MOL   H37147523   0.418   1.738   1.819 -3.2364  0.0684  0.6314
   57MOL   H37247524   0.379   1.807   1.975 -0.2274 -1.0906  1.1457
   57MOL   H37347525   0.414   1.577   2.070 -0.4874  0.7770  0.2324
   57MOL   H37447526   0.468   1.517   1.922  0.1676  0.5169  0.5474
   57MOL   H37547527   0.185   1.641   1.978  1.1429  1.3038 -0.1079
   57MOL   H37647528   0.231   1.575   1.818 -2.2746 -0.4732  1.1014
   57MOL   H37747529   0.121   1.393   1.906 -0.7742  0.9404  1.1661
   57MOL   H37847530   0.270   1.357   1.970 -0.4060 -0.1345 -2.0830
   57MOL   H37947531   0.161   1.439   2.082 -0.4117 -1.6620  0.5702
   57MOL   C38047532   1.475   1.988   2.360 -0.8549  0.3830  0.3960
   57MOL   C38147533   1.610   2.014   2.444 -0.0180  0.6097  0.4152
   57MOL   C38247534   1.577   1.989   2.592 -0.0684  0.0483 -0.2520
   57MOL   C38347535   1.682   2.036   2.693 -0.0243 -0.0370 -0.5487
   57MOL   C38447536   1.682   2.191   2.723  0.5256 -0.1146 -0.6613
   57MOL   C38547537   1.783   2.217   2.830  0.7272  0.0309 -1.1494
   57MOL   C38647538   1.772   2.356   2.896 -0.0702 -0.0174  0.0984
   57MOL   C38747539   1.884   2.396   2.992 -1.1952 -0.5394  0.2275
   57MOL   C38847540   2.020   2.410   2.923  0.3718  0.6219  0.4326
   57MOL   C38947541   2.123   2.477   3.009  0.0077 -0.4594 -0.8992
   57MOL   C39047542   2.264   2.478   2.944 -0.1558  0.4873 -0.2049
   57MOL   C39147543   2.347   2.582   3.022 -0.2187  0.0488  1.1006
   57MOL   C39247544   2.489   2.583   2.979 -0.2008 -0.0819  0.0492
   57MOL   C39347545   2.556   2.715   3.013 -0.2269  1.2730  0.2966
   57MOL   H39447546   1.488   1.966   2.254 -0.3379 -0.7503  0.6955
   57MOL   H39547547   1.437   1.889   2.386 -0.7681 -0.4084 -2.3055
   57MOL   H39647548   1.638   2.119   2.439 -1.4768  1.0198  0.5431
   57MOL   H39747549   1.583   1.881   2.610  0.0942  0.2252  0.8068
   57MOL   H39847550   1.475   2.018   2.616  0.1711  0.1105  0.7110
   57MOL   H39947551   1.778   2.002   2.653  0.8178  1.0385  0.5020
   57MOL   H40047552   1.684   1.985   2.789 -2.2307  1.3882  0.2950
   57MOL   H40147553   1.579   2.221   2.743  0.8603  0.4466  0.2465
   57MOL   H40247554   1.694   2.248   2.631 -0.2818 -0.2089 -0.8310
   57MOL   H40347555   1.883   2.196   2.792  0.7524 -2.1523  0.0247
   57MOL   H40447556   1.771   2.145   2.911 -0.4054  0.8548 -0.5706
   57MOL   H40547557   1.762   2.430   2.816 -2.7400 -0.5620 -0.1227
   57MOL   H40647558   1.686   2.358   2.963 -1.7105 -2.4456 -1.7987
   57MOL   H40747559   1.874   2.487   3.051 -1.3778 -0.9323  0.8099
   57MOL   H40847560   1.892   2.319   3.068 -2.7784  0.1123  1.0785
   57MOL   H40947561   2.052   2.311   2.891  0.5386  0.5459  0.8358
   57MOL   H41047562   2.001   2.454   2.826 -1.6879 -4.0691 -1.4467
   57MOL   H41147563   2.122   2.441   3.112 -0.9061  1.6497 -0.1295
   57MOL   H41247564   2.090   2.581   3.007  2.4466  0.3308 -2.5558
   57MOL   H41347565   2.316   2.383   2.952  1.6454  1.2008 -2.8261
   57MOL   H41447566   2.267   2.496   2.837  2.9415  2.0271  0.0937
   57MOL   H41547567   2.338   2.569   3.130 -3.8669  1.0629  1.0029
   57MOL   H41647568   2.293   2.674   2.998 -0.4836 -0.2169  0.6571
   57MOL   H41747569   2.546   2.498   3.017  0.4184  0.2353 -0.1467
   57MOL   H41847570   2.484   2.553   2.875 -1.6771  0.5728 -0.0742
   57MOL   H41947571   2.562   2.742   3.118  0.5158 -0.2893  0.6822
   57MOL   H42047572   2.511   2.803   2.968 -0.5688  0.1990 -1.5219
   57MOL   H42147573   2.664   2.711   2.997 -0.5322  1.1277 -1.9538
   57MOL   C42247574   1.720   1.924   2.391 -0.2419 -0.2381  1.3113
   57MOL   C42347575   1.749   1.958   2.237  0.2647  0.0211  0.4378
   57MOL   C42447576   1.797   2.105   2.212 -0.0665  0.3572 -0.1723
   57MOL   C42547577   1.779   2.154   2.065 -0.3990  0.2739 -0.2201
   57MOL   C42647578   1.811   2.301   2.062  0.4790 -0.4461 -0.1799
   57MOL   C42747579   1.779   2.383   1.939  0.3052 -0.9278  0.2145
   57MOL   C42847580   1.873   2.343   1.821 -0.4547 -0.1886  0.5590
   57MOL   C42947581   1.868   2.444   1.702  0.6550  1.2040 -0.8835
   57MOL   C43047582   1.925   2.382   1.583  0.4262 -1.1288  0.4377
   57MOL   C43147583   1.981   2.491   1.489 -0.3390  0.7898  0.4887
   57MOL   C43247584   1.874   2.591   1.439  0.0841 -0.7775  0.2176
   57MOL   C43347585   1.905   2.700   1.329  0.9687  0.1158 -0.0841
   57MOL   C43447586   2.001   2.813   1.362  0.1027  0.1684  0.2004
   57MOL   C43547587   2.154   2.784   1.345  0.4148 -0.5226  0.1416
   57MOL   H43647588   1.703   1.819   2.416 -0.9303  0.1116  2.3218
   57MOL   H43747589   1.811   1.954   2.443  0.1655  2.7877 -0.9800
   57MOL   H43847590   1.666   1.948   2.167 -1.1552 -0.6278  2.1515
   57MOL   H43947591   1.905   2.109   2.229 -0.3033 -1.4807  1.9183
   57MOL   H44047592   1.749   2.179   2.275 -3.0774  1.0907 -3.2128
   57MOL   H44147593   1.853   2.110   1.998 -0.0105  1.4470 -0.5714
   57MOL   H44247594   1.674   2.147   2.036 -0.2018  0.2449 -0.9217
   57MOL   H44347595   1.909   2.319   2.106  0.5328  2.4982 -1.3884
   57MOL   H44447596   1.751   2.338   2.145 -1.5966  0.0979 -1.8835
   57MOL   H44547597   1.796   2.486   1.971 -1.6305 -0.1736 -1.0970
   57MOL   H44647598   1.674   2.367   1.913  0.4206 -0.4770 -0.5551
   57MOL   H44747599   1.976   2.318   1.845 -0.4249 -2.5714 -1.8174
   57MOL   H44847600   1.843   2.243   1.790 -0.5399 -0.0201  0.0931
   57MOL   H44947601   1.764   2.472   1.685 -0.1046 -0.5287  0.7478
   57MOL   H45047602   1.927   2.531   1.732  2.5402 -0.8485  1.6197
   57MOL   H45147603   2.006   2.318   1.618  2.1668  0.7740  0.0172
   57MOL   H45247604   1.856   2.313   1.535  0.3193 -2.9420  3.0800
   57MOL   H45347605   2.066   2.541   1.534  0.4687  0.7437 -0.9573
   57MOL   H45447606   2.019   2.449   1.396 -0.2444 -1.8615  1.6839
   57MOL   H45547607   1.786   2.539   1.399 -0.9662  1.3786 -0.3424
   57MOL   H45647608   1.845   2.658   1.520  0.9255  2.5254 -2.0936
   57MOL   H45747609   1.809   2.736   1.294  0.4755 -0.1057  1.0242
   57MOL   H45847610   1.941   2.643   1.243 -0.4002 -0.3142 -0.3738
   57MOL   H45947611   1.970   2.902   1.308 -2.1985 -2.0746 -2.2819
   57MOL   H46047612   1.976   2.829   1.467 -2.6821 -1.5450 -0.1717
   57MOL   H46147613   2.188   2.707   1.414  2.0327  0.2159  0.2110
   57MOL   H46247614   2.205   2.878   1.368  2.0348 -1.2889 -0.2229
   57MOL   H46347615   2.194   2.754   1.249  0.6952  0.8657 -0.1975
   57MOL   C46447616   1.852   1.859   2.181  0.4195  0.0107  0.3284
   57MOL   C46547617   1.800   1.715   2.169 -0.0781 -0.5750 -0.1245
   57MOL   C46647618   1.670   1.698   2.092  0.6620 -0.0858 -0.1761
   57MOL   C46747619   1.657   1.736   1.944  0.1178 -0.9160  0.2400
   57MOL   C46847620   1.509   1.721   1.891  0.2561  0.0447  0.2775
   57MOL   C46947621   1.520   1.763   1.744  0.1700 -0.5983 -0.1942
   57MOL   C47047622   1.381   1.751   1.683  0.2603  0.3363 -0.3780
   57MOL   C47147623   1.360   1.809   1.552 -0.5946 -0.0267 -0.6047
   57MOL   C47247624   1.224   1.769   1.495 -0.0339  0.7465 -0.3701
   57MOL   C47347625   1.197   1.821   1.359 -0.4426  0.2900  0.4024
   57MOL   C47447626   1.065   1.775   1.286  0.2623 -0.6862 -0.5459
   57MOL   C47547627   1.041   1.868   1.163  0.4517  0.5215  0.1260
   57MOL   C47647628   0.936   1.812   1.060 -0.1273  0.2676  0.1984
   57MOL   C47747629   0.929   1.908   0.934 -0.4495  0.0104 -0.1947
   57MOL   H47847630   1.937   1.860   2.249  0.1687 -0.2521  0.6470
   57MOL   H47947631   1.878   1.886   2.079  1.0453  1.6055  0.8883
   57MOL   H48047632   1.781   1.681   2.271 -1.9104  2.0312  0.4795
   57MOL   H48147633   1.657   1.590   2.093  2.1129 -0.2776  1.8358
   57MOL   H48247634   1.584   1.727   2.154 -0.7488  1.8132 -2.9064
   57MOL   H48347635   1.727   1.680   1.882  0.2667 -1.6938  1.0926
   57MOL   H48447636   1.696   1.838   1.947  0.7014 -1.1114 -0.3811
   57MOL   H48547637   1.446   1.786   1.953  0.0726  0.2860 -0.1574
   57MOL   H48647638   1.475   1.618   1.903  1.3988 -0.6783 -2.3615
   57MOL   H48747639   1.560   1.863   1.733  0.5468 -0.9288 -1.9758
   57MOL   H48847640   1.592   1.695   1.698  2.3633  1.1477  0.5887
   57MOL   H48947641   1.366   1.643   1.686  1.9205 -0.0448 -3.2151
   57MOL   H49047642   1.307   1.798   1.747  0.5303  1.0744 -0.6077
   57MOL   H49147643   1.360   1.918   1.563  2.2219  0.1526 -2.0218
   57MOL   H49247644   1.440   1.782   1.484 -0.2492  0.6077 -0.4591
   57MOL   H49347645   1.225   1.660   1.496 -0.0396  0.7598  1.3701
   57MOL   H49447646   1.149   1.799   1.568  1.7114  0.9049  1.3961
   57MOL   H49547647   1.201   1.929   1.370 -1.8893  0.3027  0.9593
   57MOL   H49647648   1.279   1.775   1.303 -0.1201 -1.9057  2.6250
   57MOL   H49747649   1.074   1.673   1.246 -2.2785 -0.6025 -1.4071
   57MOL   H49847650   0.978   1.785   1.351 -1.0791  0.5760 -2.4804
   57MOL   H49947651   1.136   1.882   1.111  0.0825  0.5349 -0.5615
   57MOL   H50047652   0.991   1.962   1.184 -0.8093 -0.1588  0.2523
   57MOL   H50147653   0.949   1.705   1.040  0.6891  0.3063  0.4929
   57MOL   H50247654   0.840   1.819   1.111  0.9683 -0.5451  2.4706
   57MOL   H50347655   1.021   1.908   0.874 -0.3191  0.3941  0.0065
   57MOL   H50447656   0.847   1.877   0.868  0.0631  1.8069 -1.7489
   57MOL   H50547657   0.903   2.011   0.958  0.3078 -0.0057  0.6908
   57MOL   C50647658   1.922   1.631   2.126 -0.2818  0.1664  0.8744
   57MOL   C50747659   1.946   1.500   2.197  0.0586 -0.2783  0.0644
   57MOL   C50847660   2.024   1.392   2.112  0.0525  0.1522  0.1602
   57MOL   C50947661   1.992   1.391   1.960  0.2280  0.1946 -0.0456
   57MOL   C51047662   1.851   1.373   1.899 -1.3027 -0.6333 -0.8237
   57MOL   C51147663   1.851   1.345   1.746  0.2377  0.3754 -0.6400
   57MOL   C51247664   1.726   1.405   1.684  0.0521  0.2508 -0.2240
   57MOL   C51347665   1.703   1.357   1.544  0.6713 -0.0241  0.2074
   57MOL   C51447666   1.582   1.434   1.486 -0.8252  0.0279 -0.3169
   57MOL   C51547667   1.564   1.415   1.329  0.4553 -0.2913  0.1252
   57MOL   C51647668   1.436   1.468   1.267  0.0450 -0.1194  0.4711
   57MOL   C51747669   1.421   1.435   1.117 -0.2070 -1.0309 -0.0900
   57MOL   C51847670   1.279   1.490   1.065 -0.3886 -0.1356 -0.4071
   57MOL   C51947671   1.261   1.449   0.921 -0.1064 -0.1558 -0.0937
   57MOL   H52047672   2.009   1.696   2.131  0.0654 -0.2886  0.7977
   57MOL   H52147673   1.923   1.627   2.017 -1.1039 -0.9842  0.8966
   57MOL   H52247674   1.845   1.461   2.210  1.3133 -2.6950  3.0828
   57MOL   H52347675   2.132   1.408   2.120 -0.0717  0.6877  0.8029
   57MOL   H52447676   1.999   1.297   2.159  1.7794  1.2974  3.6239
   57MOL   H52547677   2.051   1.471   1.916 -0.5576  1.3995  1.0800
   57MOL   H52647678   2.050   1.300   1.940  0.0404  0.4762 -1.9424
   57MOL   H52747679   1.788   1.460   1.922 -2.0187 -2.1614  3.5011
   57MOL   H52847680   1.802   1.287   1.943  0.6114 -1.0463  0.5520
   57MOL   H52947681   1.850   1.239   1.724 -2.1531  0.7497 -2.4684
   57MOL   H53047682   1.933   1.399   1.697  0.3316 -1.0868 -2.1128
   57MOL   H53147683   1.644   1.374   1.748  1.0951 -0.6536  0.6960
   57MOL   H53247684   1.736   1.514   1.690  0.2563  0.2478 -0.4700
   57MOL   H53347685   1.691   1.249   1.553 -1.3056  0.1717  0.0139
   57MOL   H53447686   1.798   1.378   1.494  0.9631  0.3766  0.9166
   57MOL   H53547687   1.597   1.540   1.505  0.2952 -0.3144  0.7878
   57MOL   H53647688   1.487   1.411   1.534 -0.0175  0.0097  1.3261
   57MOL   H53747689   1.651   1.450   1.274  0.6232 -1.0903 -0.1261
   57MOL   H53847690   1.562   1.311   1.294 -1.2826  0.2582 -1.5553
   57MOL   H53947691   1.351   1.424   1.318 -0.9335  0.7247 -0.4058
   57MOL   H54047692   1.445   1.572   1.299 -0.2781  0.2645 -0.6719
   57MOL   H54147693   1.416   1.326   1.118  0.9639 -1.0920 -0.0490
   57MOL   H54247694   1.506   1.469   1.057  1.4980  0.8709  3.3011
   57MOL   H54347695   1.274   1.597   1.085 -1.2316 -0.1210 -0.6766
   57MOL   H54447696   1.192   1.443   1.111 -1.4396  0.7952 -1.4185
   57MOL   H54547697   1.271   1.342   0.901  0.1540  0.0657 -1.1436
   57MOL   H54647698   1.169   1.494   0.885  0.8061  2.3112  0.6082
   57MOL   H54747699   1.326   1.491   0.844 -0.8402  0.6811 -0.2601
   57MOL   C54847700   2.007   1.529   2.333  0.2564 -0.3112  0.4699
   57MOL   C54947701   2.007   1.420   2.444  0.2634 -0.2046 -1.0115
   57MOL   C55047702   2.129   1.431   2.534 -0.4267  0.0120  0.3575
   57MOL   C55147703   2.164   1.291   2.603 -0.5793  1.0894 -0.1583
   57MOL   C55247704   2.253   1.295   2.724 -1.0358 -0.3104  0.0354
   57MOL   C55347705   2.401   1.348   2.689 -0.1720 -0.1187  0.0609
   57MOL   C55447706   2.492   1.348   2.815  0.4816  0.6877  0.0408
   57MOL   C55547707   2.449   1.444   2.923 -0.4124  0.0507  0.2049
   57MOL   C55647708   2.457   1.596   2.885 -0.3428  0.4288 -0.0586
   57MOL   C55747709   2.429   1.690   3.012  0.3661  1.0244 -0.5895
   57MOL   C55847710   2.422   1.839   2.978 -0.3426 -0.2917  0.2924
   57MOL   C55947711   2.361   1.924   3.087  0.1696  0.8535 -0.0149
   57MOL   C56047712   2.357   2.074   3.050  0.4304 -0.2563 -1.0334
   57MOL   C56147713   2.334   2.158   3.177 -0.2091 -0.0108  0.0861
   57MOL   H56247714   2.107   1.557   2.299  0.4393 -0.4686  0.8896
   57MOL   H56347715   1.967   1.626   2.363  0.2021 -0.3639  0.5650
   57MOL   H56447716   2.019   1.320   2.402 -0.9033 -0.3365 -1.0475
   57MOL   H56547717   2.211   1.463   2.470 -0.3389  1.2933  1.0924
   57MOL   H56647718   2.112   1.517   2.598  2.5868  0.7772  0.2100
   57MOL   H56747719   2.210   1.229   2.526 -2.1685 -1.8738  1.1790
   57MOL   H56847720   2.073   1.236   2.627  0.2436  0.9903  3.0216
   57MOL   H56947721   2.216   1.356   2.807  1.5554  0.0024  1.0026
   57MOL   H57047722   2.262   1.197   2.770  1.0301 -1.7189 -3.2352
   57MOL   H57147723   2.392   1.441   2.632  2.1926  0.6771  0.9258
   57MOL   H57247724   2.449   1.275   2.624 -1.7428  1.2745 -2.7959
   57MOL   H57347725   2.486   1.247   2.856 -0.7534  0.2194 -1.2693
   57MOL   H57447726   2.597   1.363   2.791  0.6760  0.8931  0.9694
   57MOL   H57547727   2.506   1.425   3.014  0.3219  0.2794 -0.1981
   57MOL   H57647728   2.348   1.429   2.960  0.2840  0.6245  2.4086
   57MOL   H57747729   2.379   1.619   2.812  0.6122 -0.1668 -1.2808
   57MOL   H57847730   2.554   1.621   2.840 -1.2499 -1.8334 -3.4882
   57MOL   H57947731   2.329   1.664   3.050 -0.0745  1.0222 -1.7425
   57MOL   H58047732   2.492   1.660   3.096  2.0307  0.9929 -1.8521
   57MOL   H58147733   2.351   1.845   2.895 -0.3274 -1.9646  0.1524
   57MOL   H58247734   2.516   1.885   2.946 -1.0828 -0.2906 -1.9536
   57MOL   H58347735   2.264   1.893   3.126 -0.6396  1.8115 -1.2139
   57MOL   H58447736   2.428   1.920   3.173 -2.2613  0.1100  1.8966
   57MOL   H58547737   2.454   2.098   3.006  0.8886  1.6015  0.9349
   57MOL   H58647738   2.275   2.091   2.980  0.3694  0.6262 -0.7526
   57MOL   H58747739   2.345   2.263   3.151  0.7646 -0.6440 -2.1108
   57MOL   H58847740   2.235   2.160   3.222 -0.3270 -1.3325 -0.1123
   57MOL   H58947741   2.402   2.123   3.254 -0.4971 -0.3223  0.1994
   57MOL   C59047742   1.882   1.412   2.535 -0.8228 -0.7731 -0.4828
   57MOL   C59147743   1.749   1.374   2.468 -0.3949  0.2627 -0.0730
   57MOL   C59247744   1.754   1.233   2.405  0.1791 -0.3838  0.6807
   57MOL   C59347745   1.631   1.187   2.325 -0.8025  0.2432 -0.4495
   57MOL   C59447746   1.598   1.261   2.198 -0.0767 -1.0730  0.0569
   57MOL   C59547747   1.482   1.209   2.114 -0.1857 -0.1053 -0.8305
   57MOL   C59647748   1.488   1.266   1.972 -0.4388 -0.3959 -1.0149
   57MOL   C59747749   1.365   1.224   1.893 -0.3052  0.7345  0.5804
   57MOL   C59847750   1.364   1.255   1.743  0.2154 -0.4965 -0.1502
   57MOL   C59947751   1.246   1.197   1.666 -0.6619 -0.5472 -0.4369
   57MOL   C60047752   1.228   1.251   1.530  0.2206  0.0512  0.2209
   57MOL   C60147753   1.115   1.184   1.443  0.4335  0.1644 -0.4577
   57MOL   C60247754   1.092   1.243   1.308 -0.5769 -0.3437 -0.1710
   57MOL   C60347755   0.992   1.168   1.224  0.2472  0.1318 -0.4035
   57MOL   H60447756   1.864   1.513   2.571 -1.9204 -1.0548 -0.2442
   57MOL   H60547757   1.903   1.369   2.633 -1.3231  0.9022  0.3757
   57MOL   H60647758   1.731   1.442   2.385 -1.2785  0.0995 -0.0219
   57MOL   H60747759   1.768   1.174   2.496 -3.2249  0.7782  2.0259
   57MOL   H60847760   1.845   1.219   2.346  0.1705  2.3070 -0.0283
   57MOL   H60947761   1.544   1.178   2.390  0.1457 -3.4293  0.4011
   57MOL   H61047762   1.650   1.086   2.291 -0.5398  0.8337 -2.1254
   57MOL   H61147763   1.687   1.243   2.137  1.9657  0.1275  2.5704
   57MOL   H61247764   1.593   1.369   2.214  0.3589 -1.2658  1.5213
   57MOL   H61347765   1.384   1.220   2.161 -0.5014 -0.4954 -1.3958
   57MOL   H61447766   1.494   1.101   2.103  0.8224 -0.0138 -0.6476
   57MOL   H61547767   1.487   1.375   1.973 -2.8333 -0.3793  1.2492
   57MOL   H61647768   1.575   1.230   1.918  0.7661  0.1047  0.5333
   57MOL   H61747769   1.349   1.116   1.902  1.6078  0.4219  0.3994
   57MOL   H61847770   1.277   1.268   1.941 -1.4621  1.1110 -1.7862
   57MOL   H61947771   1.374   1.364   1.742  0.0507 -0.4706  0.5286
   57MOL   H62047772   1.456   1.216   1.699 -0.0895  0.2516 -1.4811
   57MOL   H62147773   1.277   1.092   1.669 -1.2874 -0.7802 -1.9680
   57MOL   H62247774   1.159   1.207   1.731  1.1398  0.5422  1.8705
   57MOL   H62347775   1.322   1.247   1.475 -0.6961 -0.9886 -1.2922
   57MOL   H62447776   1.193   1.354   1.542 -1.0695 -0.2278 -1.0632
   57MOL   H62547777   1.020   1.187   1.496 -0.0762  1.4161 -1.4349
   57MOL   H62647778   1.138   1.080   1.420 -0.3340  0.1016 -0.9582
   57MOL   H62747779   1.054   1.341   1.337 -0.9869 -0.3294 -0.7550
   57MOL   H62847780   1.186   1.251   1.254  0.5260 -2.9722  1.2427
   57MOL   H62947781   0.898   1.163   1.279  0.7908  2.0752  0.7527
   57MOL   H63047782   1.020   1.063   1.210  0.3364  0.0666  0.2370
   57MOL   H63147783   0.979   1.215   1.127 -1.0049  1.1046  0.2110
   57MOL   C63247784   1.614   1.399   2.552  0.0067 -0.0118 -0.2447
   57MOL   C63347785   1.589   1.543   2.592 -0.6413 -0.0818  0.3585
   57MOL   C63447786   1.488   1.610   2.498 -0.1138  0.4917  0.1547
   57MOL   C63547787   1.342   1.557   2.508 -0.6347 -0.1645 -0.0259
   57MOL   C63647788   1.241   1.599   2.394 -0.3237  0.8756  0.1252
   57MOL   C63747789   1.259   1.526   2.269 -0.3911  0.4185  0.6235
   57MOL   C63847790   1.160   1.584   2.167 -0.4882  0.1562  0.0175
   57MOL   C63947791   1.141   1.509   2.036  0.8865  0.3348 -0.4590
   57MOL   C64047792   1.043   1.578   1.939 -0.3024 -0.3813  0.9701
   57MOL   C64147793   1.021   1.490   1.813  0.0556 -0.3993 -0.0236
   57MOL   C64247794   0.898   1.527   1.728  0.8150  0.1776  0.8133
   57MOL   C64347795   0.866   1.444   1.600 -0.2845 -0.2438  0.3063
   57MOL   C64447796   0.736   1.478   1.533  0.2812 -0.2409  0.3114
   57MOL   C64547797   0.740   1.578   1.421 -0.5390 -0.0816 -0.3103
   57MOL   H64647798   1.622   1.332   2.638  0.9850 -0.8536 -0.9762
   57MOL   H64747799   1.531   1.369   2.487  0.5666 -0.6344 -0.6849
   57MOL   H64847800   1.679   1.603   2.579 -1.1676  0.4463 -0.9149
   57MOL   H64947801   1.484   1.717   2.520 -1.6812  0.5667 -0.4626
   57MOL   H65047802   1.518   1.599   2.394  0.6020 -0.0796  0.4123
   57MOL   H65147803   1.304   1.604   2.598  0.9118 -0.0761  0.6087
   57MOL   H65247804   1.335   1.449   2.526 -0.3504 -0.1074  0.4415
   57MOL   H65347805   1.237   1.707   2.380 -3.7219  0.8432  0.5712
   57MOL   H65447806   1.142   1.580   2.435 -0.2869  1.9546  0.7412
   57MOL   H65547807   1.358   1.542   2.227 -0.0721 -0.4982  1.0253
   57MOL   H65647808   1.244   1.418   2.272  1.3897  0.1300 -0.3795
   57MOL   H65747809   1.064   1.596   2.217 -1.1937  0.9994 -1.5065
   57MOL   H65847810   1.192   1.683   2.132 -0.8712  0.4492  0.4905
   57MOL   H65947811   1.100   1.410   2.059  1.1376  0.6911  1.5732
   57MOL   H66047812   1.242   1.493   1.998  2.0137  0.3784  2.4203
   57MOL   H66147813   1.084   1.675   1.910 -0.0022 -0.7607  0.0902
   57MOL   H66247814   0.959   1.604   2.002  0.6253 -1.1294  2.5605
   57MOL   H66347815   1.103   1.510   1.743  0.0987  0.1432  0.1792
   57MOL   H66447816   1.029   1.385   1.841  2.7045 -0.3397 -0.3490
   57MOL   H66547817   0.811   1.511   1.792  0.4680  0.0082  0.2993
   57MOL   H66647818   0.911   1.634   1.709  2.1741  0.0268  0.8455
   57MOL   H66747819   0.865   1.343   1.641  0.6421 -0.3472  0.0746
   57MOL   H66847820   0.951   1.450   1.532 -0.4301  1.7253  0.2857
   57MOL   H66947821   0.662   1.506   1.607  0.3944 -0.3026  0.4488
   57MOL   H67047822   0.704   1.382   1.493  1.0484  0.8686 -3.1829
   57MOL   H67147823   0.807   1.660   1.445 -0.4734  0.3408 -1.8482
   57MOL   H67247824   0.783   1.541   1.327  0.3562  0.2976 -0.0478
   57MOL   H67347825   0.641   1.609   1.388 -0.3592 -0.4047 -1.1701
   57MOL   C67447826   1.559   1.577   2.737  0.2760  1.2047 -0.3316
   57MOL   C67547827   1.680   1.552   2.829  0.3848 -0.2855 -0.1847
   57MOL   C67647828   1.782   1.667   2.806 -0.0934 -0.0216  0.2933
   57MOL   C67747829   1.917   1.652   2.862 -0.4114 -0.4477 -0.0170
   57MOL   C67847830   2.012   1.773   2.846 -0.2122  0.0313  0.2213
   57MOL   C67947831   2.033   1.815   2.700  0.6911  0.6697  0.5761
   57MOL   C68047832   2.168   1.879   2.666  0.2066  0.1935 -0.3000
   57MOL   C68147833   2.186   1.957   2.530 -0.3363  0.0505 -0.1310
   57MOL   C68247834   2.191   1.870   2.407  1.0092  0.3733  0.4644
   57MOL   C68347835   2.310   1.776   2.403  0.4141 -0.3317 -0.4660
   57MOL   C68447836   2.355   1.730   2.265  0.4052  0.5709  0.7629
   57MOL   C68547837   2.452   1.614   2.252  0.3564 -0.3786  0.4948
   57MOL   C68647838   2.500   1.577   2.110  0.5308 -0.0791  0.0063
   57MOL   C68747839   2.578   1.443   2.111 -1.2269  0.1308  0.4857
   57MOL   H68847840   1.481   1.509   2.769 -1.4172  3.6783  0.9393
   57MOL   H68947841   1.525   1.680   2.746  3.1352  2.2391 -0.9060
   57MOL   H69047842   1.731   1.461   2.795  1.1228 -0.4818  1.4069
   57MOL   H69147843   1.787   1.707   2.704 -2.5137  0.2725  0.2573
   57MOL   H69247844   1.735   1.754   2.853 -1.3590 -0.4789 -0.1008
   57MOL   H69347845   1.903   1.614   2.963 -1.4937  2.2775  0.9080
   57MOL   H69447846   1.958   1.567   2.807  0.3210 -0.1180  0.0081
   57MOL   H69547847   1.971   1.856   2.905  2.5487 -0.8287  3.4690
   57MOL   H69647848   2.110   1.752   2.886 -0.5479 -3.3059 -0.6059
   57MOL   H69747849   2.025   1.729   2.634 -0.4308  1.0624  0.1856
   57MOL   H69847850   1.951   1.885   2.683 -0.3998 -1.1422 -2.0301
   57MOL   H69947851   2.196   1.961   2.732  1.9084 -0.8636  0.3272
   57MOL   H70047852   2.250   1.809   2.683  1.8683  2.0474 -0.5232
   57MOL   H70147853   2.116   2.040   2.518 -1.6882 -1.0210  0.1836
   57MOL   H70247854   2.283   2.007   2.534 -0.1481 -0.4114  4.3426
   57MOL   H70347855   2.098   1.812   2.406 -0.3625  2.4394  2.5862
   57MOL   H70447856   2.193   1.936   2.321 -1.4151  0.2391  0.2599
   57MOL   H70547857   2.287   1.684   2.457  2.7163 -0.9795 -0.5491
   57MOL   H70647858   2.388   1.825   2.461  1.0971 -1.4711 -0.4123
   57MOL   H70747859   2.394   1.815   2.209  0.8606  0.4898  0.9542
   57MOL   H70847860   2.273   1.695   2.203  0.4423 -0.2618  1.1751
   57MOL   H70947861   2.398   1.527   2.291  0.4694  0.5563  2.7644
   57MOL   H71047862   2.536   1.637   2.317  1.4872 -0.0269 -1.0444
   57MOL   H71147863   2.411   1.563   2.048 -0.2324 -0.2338  1.1200
   57MOL   H71247864   2.565   1.658   2.078  0.1215 -0.4491 -1.8527
   57MOL   H71347865   2.615   1.417   2.012  2.8042  3.6266  0.8876
   57MOL   H71447866   2.670   1.451   2.169 -0.8306  0.5126 -0.1889
   57MOL   H71547867   2.535   1.350   2.148  1.1139 -0.5384  1.5941
   57MOL   C71647868   1.641   1.528   2.976 -0.0196 -0.0824 -0.3314
   57MOL   C71747869   1.569   1.386   3.011  0.3265  0.6589 -0.1140
   57MOL   C71847870   1.647   1.265   2.963 -0.2739  0.4220  0.0103
   57MOL   C71947871   1.794   1.251   3.023  0.8776 -0.3244 -0.5309
   57MOL   C72047872   1.864   1.119   2.986 -0.1367  0.2411  0.5195
   57MOL   C72147873   2.001   1.108   3.043  0.3949 -0.5395 -0.1961
   57MOL   C72247874   1.990   1.081   3.198 -0.3186  0.5315  0.4230
   57MOL   C72347875   2.132   1.060   3.259 -0.1144 -0.1966  0.0924
   57MOL   C72447876   2.134   1.014   3.408 -0.1743  0.1719  0.3632
   57MOL   C72547877   2.279   0.997   3.459  0.0207  0.3173 -1.0215
   57MOL   C72647878   2.292   0.962   3.609  0.4324  0.1172 -1.1149
   57MOL   C72747879   2.438   0.946   3.667  0.6045 -0.1246 -0.0279
   57MOL   C72847880   2.443   0.871   3.801  0.2861 -0.7106  0.2913
   57MOL   C72947881   2.574   0.882   3.881  0.1907  0.2019 -1.7590
   57MOL   H73047882   1.733   1.538   3.034 -0.9693 -1.7349  1.5079
   57MOL   H73147883   1.584   1.614   3.008 -0.3358  0.0179 -1.1391
   57MOL   H73247884   1.476   1.381   2.954 -0.3245  3.3795  0.6432
   57MOL   H73347885   1.662   1.259   2.855  2.4346  1.4535  0.2853
   57MOL   H73447886   1.587   1.177   2.984 -0.7642  0.7012 -0.2261
   57MOL   H73547887   1.851   1.337   2.984  1.5711 -0.9336 -0.8810
   57MOL   H73647888   1.783   1.260   3.131 -1.8776  2.4820 -0.9732
   57MOL   H73747889   1.810   1.035   3.029  0.6887 -0.1120  0.8803
   57MOL   H73847890   1.868   1.122   2.877 -3.8325  2.0812  0.3495
   57MOL   H73947891   2.062   1.039   2.985  0.4655  0.5700 -1.4654
   57MOL   H74047892   2.060   1.197   3.021  1.4417 -0.7122  1.7683
   57MOL   H74147893   1.959   1.164   3.261  0.0024 -0.8534  2.4644
   57MOL   H74247894   1.920   1.002   3.221 -0.2915  0.2697 -0.3623
   57MOL   H74347895   2.202   1.140   3.233 -0.8946  0.5136  0.1522
   57MOL   H74447896   2.181   0.971   3.218 -2.2608 -2.9772  3.3788
   57MOL   H74547897   2.076   1.080   3.473 -1.2925  0.1658 -0.6157
   57MOL   H74647898   2.087   0.917   3.422  0.6991 -0.2928  0.0984
   57MOL   H74747899   2.326   0.914   3.407  2.4335  0.7526  0.3961
   57MOL   H74847900   2.337   1.087   3.441 -0.3972  0.4822 -1.5561
   57MOL   H74947901   2.250   1.046   3.663  0.0814  0.4217 -1.8615
   57MOL   H75047902   2.226   0.877   3.630 -1.0014  0.9216 -2.3302
   57MOL   H75147903   2.505   0.887   3.604  1.1584 -0.1835  0.6094
   57MOL   H75247904   2.479   1.046   3.679  2.3928 -1.1259  2.6871
   57MOL   H75347905   2.410   0.767   3.797  1.4707 -1.1815  1.9331
   57MOL   H75447906   2.366   0.920   3.860 -0.2400 -3.3311  1.8464
   57MOL   H75547907   2.614   0.984   3.885  0.5902 -0.0216  1.7274
   57MOL   H75647908   2.646   0.835   3.815  0.6326 -0.2464 -0.9587
   57MOL   H75747909   2.567   0.831   3.977  0.5822 -0.8601 -2.2938
   57MOL   C75847910   1.518   1.381   3.152  0.0656  0.2921 -0.5822
   57MOL   C75947911   1.383   1.450   3.179 -0.5538 -0.0359 -0.2911
   57MOL   C76047912   1.256   1.380   3.153  0.0652 -0.3515 -0.2343
   57MOL   C76147913   1.128   1.463   3.130  0.2253 -0.7834 -0.2688
   57MOL   C76247914   0.990   1.386   3.144  0.9303 -0.1575 -0.1144
   57MOL   C76347915   0.877   1.485   3.104 -0.2088 -0.3253 -0.4894
   57MOL   C76447916   0.745   1.424   3.076  0.1362 -0.5183 -0.2534
   57MOL   C76547917   0.632   1.529   3.068  0.2194 -0.5671  0.9203
   57MOL   C76647918   0.662   1.648   2.971  0.1103 -0.2904 -0.2577
   57MOL   C76747919   0.538   1.733   2.952 -0.3549  0.2908  0.4263
   57MOL   C76847920   0.558   1.854   2.866 -0.1487 -0.8128 -0.2757
   57MOL   C76947921   0.422   1.927   2.853  0.4066  0.0534  0.4425
   57MOL   C77047922   0.444   2.053   2.772 -0.4599  0.1536 -0.2642
   57MOL   C77147923   0.320   2.115   2.705 -0.0680 -0.0530  0.0015
   57MOL   H77247924   1.517   1.274   3.170 -2.0078 -0.0848 -2.5575
   57MOL   H77347925   1.588   1.421   3.224 -0.3363  0.5170 -0.3121
   57MOL   H77447926   1.366   1.541   3.121 -3.5616 -0.6568 -0.4738
   57MOL   H77547927   1.266   1.318   3.064  0.6456  0.7328 -0.9340
   57MOL   H77647928   1.244   1.309   3.235 -1.9389  0.3676  0.1201
   57MOL   H77747929   1.126   1.547   3.200 -0.8873  0.1480 -1.4049
   57MOL   H77847930   1.128   1.499   3.027 -0.3723 -0.2545 -0.0860
   57MOL   H77947931   0.981   1.340   3.243 -1.6090  0.0378 -0.2268
   57MOL   H78047932   0.995   1.298   3.080 -1.9836 -1.3176  1.2103
   57MOL   H78147933   0.903   1.533   3.009  0.5262  2.5715  1.1176
   57MOL   H78247934   0.871   1.554   3.187  0.7959 -1.9371  0.9503
   57MOL   H78347935   0.749   1.375   2.979 -1.5630 -0.2687 -0.4646
   57MOL   H78447936   0.712   1.359   3.157 -2.1912  1.6749  0.6401
   57MOL   H78547937   0.597   1.573   3.161 -0.8553  2.6963 -0.9708
   57MOL   H78647938   0.543   1.483   3.023 -0.1455  1.1627 -0.1760
   57MOL   H78747939   0.713   1.615   2.881 -0.2622 -0.9853 -0.2208
   57MOL   H78847940   0.736   1.716   3.013  0.3050  0.2960 -1.5331
   57MOL   H78947941   0.499   1.757   3.051  1.4632 -1.9110  1.7363
   57MOL   H79047942   0.453   1.682   2.906  0.1842 -1.7680  1.6833
   57MOL   H79147943   0.636   1.917   2.908 -0.7776 -1.0885  1.3491
   57MOL   H79247944   0.591   1.814   2.770 -0.6272 -1.0952 -0.3235
   57MOL   H79347945   0.354   1.859   2.801  2.8898 -1.4018 -0.9762
   57MOL   H79447946   0.383   1.940   2.954 -0.2760  0.0130  0.1866
   57MOL   H79547947   0.491   2.123   2.841 -1.4988  0.8830 -0.2869
   57MOL   H79647948   0.516   2.031   2.692 -0.2276  2.3365 -0.7105
   57MOL   H79747949   0.345   2.211   2.659  0.1301  0.3028  0.8376
   57MOL   H79847950   0.281   2.061   2.619  2.3442 -0.0040 -1.1743
   57MOL   H79947951   0.241   2.138   2.776 -0.5907 -0.0446 -0.5768
   57MOL   C80047952   1.379   1.493   3.323  0.6492 -0.3037 -0.7546
   57MOL   C80147953   1.478   1.599   3.377 -0.2908 -0.4046  0.2406
   57MOL   C80247954   1.462   1.608   3.529  0.4121  0.2507 -0.3100
   57MOL   C80347955   1.554   1.713   3.588 -0.3004  0.4515  0.1391
   57MOL   C80447956   1.502   1.854   3.557  0.4847  0.3342 -0.0840
   57MOL   C80547957   1.574   1.968   3.637  0.8579  0.0318 -0.6535
   57MOL   C80647958   1.494   2.096   3.646  1.1689 -0.8308 -0.2814
   57MOL   C80747959   1.544   2.208   3.739 -0.0986  0.9358 -0.5776
   57MOL   C80847960   1.462   2.344   3.721 -0.0240  0.4745  0.4258
   57MOL   C80947961   1.527   2.456   3.805  0.6614  0.3651  0.0629
   57MOL   C81047962   1.458   2.588   3.792  0.5853  0.3353  0.3469
   57MOL   C81147963   1.314   2.586   3.860 -0.2402  0.0560  0.2790
   57MOL   C81247964   1.217   2.698   3.803  0.1523  0.6772 -0.5503
   57MOL   C81347965   1.271   2.836   3.839 -0.4831 -0.3231 -0.3344
   57MOL   H81447966   1.387   1.399   3.379  0.0842  0.4267  0.5765
   57MOL   H81547967   1.281   1.534   3.346  1.1691 -0.0138  1.0282
   57MOL   H81647968   1.470   1.698   3.332 -2.1346 -0.3181  0.7405
   57MOL   H81747969   1.482   1.511   3.576  2.1038  0.1651 -1.1995
   57MOL   H81847970   1.359   1.639   3.550  1.0009  1.7937  0.3175
   57MOL   H81947971   1.652   1.702   3.542  0.7061  2.0205  1.8390
   57MOL   H82047972   1.563   1.699   3.696 -0.0514 -2.8337 -0.2692
   57MOL   H82147973   1.514   1.869   3.450  0.1261 -0.3314 -0.2224
   57MOL   H82247974   1.396   1.853   3.583  0.4404  0.1706 -0.2695
   57MOL   H82347975   1.669   1.995   3.590  0.9240  0.2692 -0.3873
   57MOL   H82447976   1.606   1.934   3.736 -0.6285 -3.2521 -1.2297
   57MOL   H82547977   1.479   2.135   3.546  0.5126  0.8357  0.4549
   57MOL   H82647978   1.394   2.062   3.675  1.8941 -3.4299 -0.7229
   57MOL   H82747979   1.540   2.166   3.839  0.0927 -1.0564 -1.3700
   57MOL   H82847980   1.648   2.228   3.713 -0.2664  3.1744  0.3699
   57MOL   H82947981   1.451   2.364   3.614  2.2503 -1.9840 -0.3397
   57MOL   H83047982   1.361   2.338   3.761  0.0051  0.5141  0.5049
   57MOL   H83147983   1.632   2.471   3.779  1.0843  0.2865  1.6626
   57MOL   H83247984   1.525   2.424   3.910 -0.0104  0.1712 -0.0091
   57MOL   H83347985   1.527   2.665   3.827 -1.0489  2.5623 -1.2080
   57MOL   H83447986   1.443   2.615   3.688  1.2161 -0.5098  0.0336
   57MOL   H83547987   1.322   2.610   3.966  1.5622  0.2860  0.1198
   57MOL   H83647988   1.262   2.492   3.842  0.6193 -0.1948 -1.0009
   57MOL   H83747989   1.205   2.670   3.698 -0.9736 -1.6961  0.1741
   57MOL   H83847990   1.119   2.698   3.851  0.2819 -0.1411 -0.2696
   57MOL   H83947991   1.294   2.835   3.945 -0.1210 -1.2403 -0.4213
   57MOL   H84047992   1.364   2.858   3.785  1.3292 -3.0648  1.5598
   57MOL   H84147993   1.211   2.923   3.811  0.4231  0.7277  0.9450
   57MOL   H84247994   1.584   1.579   3.363 -0.6639 -1.7774 -0.6739
   58MOL     C147995   3.152   3.185   4.377  0.1422  0.1185  0.3527
   58MOL     C247996   3.116   3.154   4.224  0.4435  1.0573 -0.2797
   58MOL     C347997   2.971   3.191   4.190  0.1849  0.8755 -0.3829
   58MOL     C447998   2.858   3.129   4.276 -0.9257 -0.8387  0.1220
   58MOL     C547999   2.714   3.166   4.223 -0.0215  0.7784 -0.1369
   58MOL     C648000   2.608   3.115   4.323 -0.0544  0.2286  0.5171
   58MOL     C748001   2.455   3.160   4.293 -1.0401  0.2101  0.1452
   58MOL     C848002   2.413   3.115   4.153  0.4381  0.2401 -0.2845
   58MOL     C948003   2.269   3.162   4.113 -0.1537  0.0392  0.2293
   58MOL    C1048004   2.231   3.103   3.977  0.0086 -0.3137 -0.5589
   58MOL    C1148005   2.091   3.134   3.939 -0.3606  0.5005 -0.2654
   58MOL    C1248006   2.063   3.251   3.840  0.4281  0.1755  0.5415
   58MOL    C1348007   1.921   3.256   3.805  0.3591 -0.9212  0.4243
   58MOL    C1448008   1.891   3.367   3.697  0.0212  0.2415  0.1048
   58MOL    H1548009   3.119   3.285   4.409 -0.3140 -0.0473  0.4139
   58MOL    H1648010   3.257   3.169   4.400  0.0340 -1.9040 -0.5114
   58MOL    H1748011   3.109   3.046   4.215  0.5724  1.0934 -0.8210
   58MOL    H1848012   2.966   3.296   4.217 -0.5195  0.4485  1.2140
   58MOL    H1948013   2.937   3.179   4.087 -1.4343  4.0686 -0.2784
   58MOL    H2048014   2.875   3.171   4.375 -1.1455 -0.0596 -0.1768
   58MOL    H2148015   2.870   3.021   4.287 -0.6208 -0.6413  1.9342
   58MOL    H2248016   2.698   3.118   4.127 -1.6584 -0.7233  0.8624
   58MOL    H2348017   2.713   3.275   4.213 -0.4208  0.9169  1.4037
   58MOL    H2448018   2.640   3.130   4.426  0.5353 -1.0058  0.5253
   58MOL    H2548019   2.615   3.006   4.321  1.5950  0.3064  1.3547
   58MOL    H2648020   2.392   3.130   4.377 -0.3109  0.0526  0.6442
   58MOL    H2748021   2.463   3.269   4.295 -2.3171  0.4084 -3.3634
   58MOL    H2848022   2.416   3.006   4.151  1.7978  0.2693  0.2165
   58MOL    H2948023   2.477   3.164   4.080 -0.9254  0.6900 -1.2081
   58MOL    H3048024   2.208   3.132   4.198  0.2622 -1.0689  0.1469
   58MOL    H3148025   2.282   3.270   4.123 -1.2138  0.2192 -0.3428
   58MOL    H3248026   2.302   3.132   3.900 -0.6389  0.9668 -0.6855
   58MOL    H3348027   2.232   2.995   3.991 -0.8002 -0.2021  0.4523
   58MOL    H3448028   2.054   3.038   3.903  2.5263 -0.0273 -1.9272
   58MOL    H3548029   2.035   3.143   4.033 -0.9686  1.0027 -0.6779
   58MOL    H3648030   2.126   3.237   3.752 -2.7752  0.8917 -1.9503
   58MOL    H3748031   2.088   3.348   3.885  1.3784 -0.1524  0.7259
   58MOL    H3848032   1.899   3.166   3.748  0.9116 -0.2600 -0.8615
   58MOL    H3948033   1.862   3.279   3.893  0.4989 -1.0197  0.5449
   58MOL    H4048034   1.940   3.346   3.602  0.4377  2.2059 -0.1387
   58MOL    H4148035   1.784   3.383   3.682 -0.4639 -0.2384  2.6717
   58MOL    H4248036   1.934   3.457   3.742  2.7086 -0.6650 -0.5962
   58MOL    H4348037   3.101   3.131   4.457  1.6112 -0.5582  0.8360
   58MOL    C4448038   3.214   3.215   4.123  0.3836 -0.0148 -0.1251
   58MOL    C4548039   3.337   3.129   4.106 -0.6259 -0.3100 -0.2234
   58MOL    C4648040   3.452   3.200   4.035  0.3159  0.1250 -0.0600
   58MOL    C4748041   3.477   3.344   4.081 -0.3056  0.8739 -0.3927
   58MOL    C4848042   3.622   3.382   4.047  0.1884  0.1374  0.4600
   58MOL    C4948043   3.634   3.541   4.048  0.4109 -0.2386 -0.4882
   58MOL    C5048044   3.773   3.595   4.068 -0.4028  0.0130 -0.9100
   58MOL    C5148045   3.779   3.748   4.066 -0.3343 -0.4446 -0.0847
   58MOL    C5248046   3.733   3.815   3.936  0.1547  0.4670 -0.3594
   58MOL    C5348047   3.813   3.776   3.811  0.2463 -0.6907 -0.2652
   58MOL    C5448048   3.785   3.872   3.695  0.3019  0.6745  0.4196
   58MOL    C5548049   3.869   3.865   3.567 -0.5013 -0.4236  0.4694
   58MOL    C5648050   3.819   3.959   3.456  0.5171  0.0501 -0.7008
   58MOL    C5748051   3.892   3.950   3.318 -0.1084  0.0513  0.0589
   58MOL    H5848052   3.167   3.224   4.025 -0.5765  2.5515  0.5179
   58MOL    H5948053   3.233   3.318   4.154 -0.5974 -0.5052  2.2200
   58MOL    H6048054   3.374   3.113   4.207 -1.4588 -0.6591  0.0284
   58MOL    H6148055   3.543   3.141   4.043 -0.6564 -1.2987  0.5732
   58MOL    H6248056   3.429   3.198   3.928 -2.0978  1.0141  0.4035
   58MOL    H6348057   3.453   3.350   4.187 -1.1488 -1.5553 -0.4303
   58MOL    H6448058   3.407   3.422   4.050  1.3753  1.5066 -2.7309
   58MOL    H6548059   3.656   3.342   3.951 -1.4365 -0.8379  0.2615
   58MOL    H6648060   3.684   3.341   4.126  1.0252  1.5698  0.5661
   58MOL    H6748061   3.588   3.589   3.961 -2.6803  0.9641  1.6969
   58MOL    H6848062   3.574   3.591   4.124 -0.7190 -0.1215 -1.4243
   58MOL    H6948063   3.809   3.559   4.165  1.1395  3.2446 -0.2219
   58MOL    H7048064   3.834   3.542   3.995  2.6399  0.2297  1.3792
   58MOL    H7148065   3.884   3.776   4.078  0.0866 -1.4169 -1.3590
   58MOL    H7248066   3.718   3.781   4.150 -0.8060  1.0265 -0.9866
   58MOL    H7348067   3.629   3.787   3.915  0.0861  0.5623 -0.1485
   58MOL    H7448068   3.730   3.923   3.950  1.9546  0.5461 -0.5759
   58MOL    H7548069   3.788   3.674   3.783  1.0959 -0.6575 -1.1376
   58MOL    H7648070   3.921   3.784   3.815  0.2820 -1.6378  1.0081
   58MOL    H7748071   3.797   3.975   3.731 -0.1782  0.9259 -0.1293
   58MOL    H7848072   3.680   3.867   3.670  0.5622 -0.7271 -0.4065
   58MOL    H7948073   3.974   3.884   3.588  0.1454 -1.9886 -1.1516
   58MOL    H8048074   3.861   3.769   3.514 -0.3186 -0.4763  0.5377
   58MOL    H8148075   3.825   4.066   3.476  0.7172  0.1358 -1.1999
   58MOL    H8248076   3.716   3.925   3.450  0.7490 -0.8610  0.3350
   58MOL    H8348077   4.000   3.966   3.317 -0.2419  0.9716  0.0517
   58MOL    H8448078   3.845   4.016   3.246  0.3391 -1.4173 -1.6053
   58MOL    H8548079   3.877   3.850   3.277  1.0220  0.7728 -2.1470
   58MOL    C8648080   3.315   2.993   4.036 -0.2323 -0.6324 -0.0235
   58MOL    C8748081   3.430   2.896   4.018  0.2174  0.3319  0.7163
   58MOL    C8848082   3.391   2.764   3.938  0.0098  0.2328  0.6224
   58MOL    C8948083   3.285   2.664   3.987 -0.2698 -0.3568  0.5758
   58MOL    C9048084   3.242   2.561   3.880 -0.1180  0.1510 -0.2311
   58MOL    C9148085   3.359   2.464   3.837  0.4626  0.1666 -0.3964
   58MOL    C9248086   3.307   2.334   3.767  0.1426  0.1164 -0.2301
   58MOL    C9348087   3.397   2.250   3.677 -0.1995  0.4438  0.1435
   58MOL    C9448088   3.512   2.324   3.618  0.1516  0.4066  0.1036
   58MOL    C9548089   3.600   2.230   3.532 -0.3496 -0.4000 -0.2428
   58MOL    C9648090   3.727   2.308   3.478  0.0498  0.3522  0.1203
   58MOL    C9748091   3.720   2.321   3.329  0.3354  0.4000 -0.3869
   58MOL    C9848092   3.829   2.415   3.282  0.5947  0.1201 -0.0316
   58MOL    C9948093   3.849   2.410   3.130  0.2565 -0.3277  0.0910
   58MOL   H10048094   3.235   2.928   4.070 -2.2917  2.9385  2.2808
   58MOL   H10148095   3.278   3.026   3.939 -1.3599  2.4021  1.3659
   58MOL   H10248096   3.517   2.941   3.969  0.2255  0.2402  0.6460
   58MOL   H10348097   3.345   2.810   3.851 -2.9076  1.5784  2.7791
   58MOL   H10448098   3.482   2.712   3.908 -0.4003 -0.2279  0.1487
   58MOL   H10548099   3.322   2.612   4.075 -2.4253 -2.0673  0.5130
   58MOL   H10648100   3.199   2.719   4.025 -0.6633 -0.7791  0.3016
   58MOL   H10748101   3.198   2.605   3.791  1.9836 -0.8212 -1.8111
   58MOL   H10848102   3.166   2.504   3.934 -0.1165  0.5522  0.1978
   58MOL   H10948103   3.421   2.452   3.926 -0.5139 -0.6957  0.1767
   58MOL   H11048104   3.410   2.522   3.760  1.6085 -1.7732 -1.1334
   58MOL   H11148105   3.266   2.269   3.844 -1.2638 -0.4224 -1.3887
   58MOL   H11248106   3.220   2.367   3.709 -0.2196 -0.6194 -0.1177
   58MOL   H11348107   3.340   2.210   3.593  1.0487  0.2679 -0.6266
   58MOL   H11448108   3.447   2.174   3.737 -0.6801 -1.1820 -1.4615
   58MOL   H11548109   3.464   2.402   3.558  2.2191  1.2319 -0.5160
   58MOL   H11648110   3.578   2.369   3.693 -1.6239 -1.0048  2.5909
   58MOL   H11748111   3.530   2.203   3.453 -2.7031  0.5163  1.4624
   58MOL   H11848112   3.629   2.151   3.602  0.7461  1.3879  1.3505
   58MOL   H11948113   3.726   2.401   3.535 -2.0195 -0.0346  0.7919
   58MOL   H12048114   3.816   2.253   3.506  0.1893  0.1183 -0.7658
   58MOL   H12148115   3.727   2.225   3.279  0.7865  0.7814 -1.0791
   58MOL   H12248116   3.631   2.374   3.295  0.5674  0.8711 -0.2657
   58MOL   H12348117   3.925   2.388   3.327 -0.7443  0.2748  3.0377
   58MOL   H12448118   3.816   2.517   3.317  4.3090  0.2001  1.4279
   58MOL   H12548119   3.951   2.436   3.102  1.2600 -0.5798  3.3190
   58MOL   H12648120   3.833   2.311   3.088  1.6015  0.3450 -2.0940
   58MOL   H12748121   3.777   2.475   3.080  1.7919  1.4780  0.1626
   58MOL   C12848122   3.490   2.860   4.158 -0.7679  0.1121  0.0634
   58MOL   C12948123   3.574   2.732   4.175 -1.3831  0.4603  1.0051
   58MOL   C13048124   3.700   2.724   4.090 -0.3349  0.1784  0.1423
   58MOL   C13148125   3.799   2.834   4.104 -0.0748 -0.0669 -0.1781
   58MOL   C13248126   3.932   2.799   4.034  0.2625  0.1183 -0.2426
   58MOL   C13348127   4.051   2.892   4.062 -0.3802 -0.0213 -0.2015
   58MOL   C13448128   4.162   2.864   3.968 -0.0640  0.0819  0.2316
   58MOL   C13548129   4.271   2.972   3.970 -0.4084  0.0843  0.3903
   58MOL   C13648130   4.381   2.935   3.870 -0.5787 -0.2189  0.5953
   58MOL   C13748131   4.491   3.036   3.860 -0.5631 -0.5777  0.2414
   58MOL   C13848132   4.604   2.990   3.760  0.3616 -0.4458  0.0358
   58MOL   C13948133   4.715   3.090   3.719 -0.5131 -0.1956  0.4924
   58MOL   C14048134   4.818   3.022   3.623 -0.1197  0.1046  0.2814
   58MOL   C14148135   4.942   3.119   3.615  0.6719  0.1843 -0.3874
   58MOL   H14248136   3.547   2.943   4.200 -0.6023  0.1005 -0.1378
   58MOL   H14348137   3.398   2.848   4.215 -0.7968 -4.8938 -0.7802
   58MOL   H14448138   3.518   2.651   4.127 -1.9224  1.3566  0.0986
   58MOL   H14548139   3.736   2.621   4.101 -1.5710 -0.3093 -0.2937
   58MOL   H14648140   3.666   2.722   3.986 -0.5109 -2.5349  0.1990
   58MOL   H14748141   3.756   2.927   4.066  0.4096 -0.0161 -0.5993
   58MOL   H14848142   3.827   2.855   4.207  0.6863 -1.9567  0.0170
   58MOL   H14948143   3.962   2.695   4.048  1.0470  0.1074 -1.9477
   58MOL   H15048144   3.915   2.802   3.927  0.3799  0.7546 -0.2459
   58MOL   H15148145   4.022   2.994   4.037  2.2861  1.3851  2.1365
   58MOL   H15248146   4.065   2.883   4.169  1.5901 -0.3118 -0.4467
   58MOL   H15348147   4.210   2.770   3.992  0.7669  0.1850 -0.9876
   58MOL   H15448148   4.121   2.863   3.867  0.5610  0.5741 -0.0307
   58MOL   H15548149   4.223   3.062   3.932  0.5367  0.8278  0.9522
   58MOL   H15648150   4.306   2.982   4.073 -1.7131  2.6038  0.6258
   58MOL   H15748151   4.409   2.832   3.892  0.2047  0.3404  2.2789
   58MOL   H15848152   4.330   2.924   3.774 -2.9335  0.7754  1.6868
   58MOL   H15948153   4.546   3.041   3.954 -0.9047 -0.9960  0.4613
   58MOL   H16048154   4.459   3.138   3.839  1.3733  0.0086 -0.0177
   58MOL   H16148155   4.640   2.895   3.800  0.6394 -1.2487 -2.0399
   58MOL   H16248156   4.547   2.955   3.674 -1.3037  1.1292  0.4716
   58MOL   H16348157   4.687   3.182   3.667  0.7234  0.2170  0.5369
   58MOL   H16448158   4.766   3.121   3.811  4.7962 -1.2833 -1.8816
   58MOL   H16548159   4.851   2.928   3.667 -1.0887 -0.3352  0.0682
   58MOL   H16648160   4.782   2.990   3.525  0.8874 -3.8816  1.0989
   58MOL   H16748161   4.948   3.203   3.544  0.5663  0.7365  0.2556
   58MOL   H16848162   4.966   3.163   3.711 -2.1681 -0.6390  0.7364
   58MOL   H16948163   5.038   3.068   3.601  2.4459  3.1233  0.4578
   58MOL   C17048164   3.602   2.698   4.322  0.1214 -0.0574  0.1130
   58MOL   C17148165   3.478   2.639   4.398 -0.1175  0.5891 -0.2252
   58MOL   C17248166   3.514   2.506   4.480  0.9690  0.1963 -0.0510
   58MOL   C17348167   3.633   2.520   4.583 -1.1289  0.4598 -0.8639
   58MOL   C17448168   3.672   2.384   4.638  0.1455 -0.3217 -0.5885
   58MOL   C17548169   3.799   2.376   4.726 -0.2771  0.0260 -0.4897
   58MOL   C17648170   3.824   2.245   4.787 -0.2036  0.3115  0.5135
   58MOL   C17748171   3.966   2.217   4.839  0.1170 -0.1106 -0.8211
   58MOL   C17848172   3.964   2.077   4.919 -0.2332 -0.2148 -0.8798
   58MOL   C17948173   4.090   2.038   4.995  0.1371  0.3863  0.0453
   58MOL   C18048174   4.095   1.888   5.027  0.3032 -0.2926 -0.6697
   58MOL   C18148175   4.235   1.833   5.062  0.3235  0.1949  0.4931
   58MOL   C18248176   4.226   1.703   5.138  0.2582  0.3278  0.3733
   58MOL   C18348177   4.363   1.634   5.145  0.0451  0.2687  0.2265
   58MOL   H18448178   3.654   2.774   4.379 -1.1373  0.2642  0.8509
   58MOL   H18548179   3.675   2.618   4.330 -1.9707 -1.9075  1.2760
   58MOL   H18648180   3.401   2.612   4.326 -0.4562 -1.3634  0.8413
   58MOL   H18748181   3.434   2.462   4.539  0.3890 -0.2248 -1.1420
   58MOL   H18848182   3.546   2.434   4.406 -0.0883  1.9975 -2.3162
   58MOL   H18948183   3.721   2.563   4.535 -0.2561 -0.4694 -0.1285
   58MOL   H19048184   3.619   2.583   4.670 -2.2857 -3.8456  2.2252
   58MOL   H19148185   3.587   2.344   4.694  0.4587  2.1200  1.6760
   58MOL   H19248186   3.690   2.319   4.552 -0.7797 -1.2228 -0.1104
   58MOL   H19348187   3.779   2.451   4.803  2.4800  1.3248 -1.0015
   58MOL   H19448188   3.879   2.408   4.659  1.3800 -2.1602  0.3973
   58MOL   H19548189   3.805   2.173   4.708 -0.2580  2.4075 -1.4551
   58MOL   H19648190   3.751   2.223   4.864 -2.2243  0.6324 -1.2671
   58MOL   H19748191   4.005   2.294   4.905  1.4005 -1.9258  0.5725
   58MOL   H19848192   4.034   2.216   4.753 -1.2735  0.1501 -1.9464
   58MOL   H19948193   3.944   2.006   4.839 -1.9828 -1.6382  0.7759
   58MOL   H20048194   3.880   2.055   4.985 -2.2462 -1.2638 -3.6860
   58MOL   H20148195   4.108   2.096   5.086 -0.9168  1.6918 -0.5716
   58MOL   H20248196   4.178   2.062   4.935 -0.6359  0.1961 -1.1787
   58MOL   H20348197   4.065   1.822   4.946 -0.5364  0.7543 -1.2160
   58MOL   H20448198   4.035   1.868   5.116 -0.3375 -3.4209 -1.7281
   58MOL   H20548199   4.293   1.818   4.971 -0.3846  0.9341 -0.0883
   58MOL   H20648200   4.296   1.902   5.121  2.4337 -0.8435 -0.4071
   58MOL   H20748201   4.191   1.718   5.240  0.5357  1.6102  0.2908
   58MOL   H20848202   4.158   1.631   5.093 -1.2200  2.3274 -0.6788
   58MOL   H20948203   4.354   1.544   5.206  1.5688 -1.7124 -2.3239
   58MOL   H21048204   4.443   1.696   5.185  0.4269  0.1991 -0.4052
   58MOL   H21148205   4.370   1.594   5.043 -2.0022  3.0401 -1.0598
   58MOL   C21248206   3.415   2.749   4.482  0.1884 -0.3523  0.1197
   58MOL   C21348207   3.268   2.732   4.513  0.4876 -0.3621  0.5166
   58MOL   C21448208   3.206   2.812   4.634 -0.5643 -0.1658  0.4405
   58MOL   C21548209   3.263   2.754   4.762 -0.3113 -0.1993  0.8529
   58MOL   C21648210   3.184   2.785   4.888  0.4005  0.1655  1.1552
   58MOL   C21748211   3.044   2.729   4.890 -0.0330  0.2485  0.4698
   58MOL   C21848212   2.991   2.730   5.033  0.2685  0.3543 -0.5133
   58MOL   C21948213   2.839   2.708   5.046  0.0516 -0.3548 -0.4956
   58MOL   C22048214   2.802   2.690   5.194  0.5186 -0.3123  0.3028
   58MOL   C22148215   2.799   2.826   5.272 -0.1317 -0.1780  0.0123
   58MOL   C22248216   2.773   2.801   5.426  0.5500  0.0409  0.5284
   58MOL   C22348217   2.759   2.928   5.511  0.0141  0.1027  0.2918
   58MOL   C22448218   2.686   2.915   5.648 -0.1466  0.3970 -0.2612
   58MOL   C22548219   2.685   3.048   5.731  0.1080 -0.2416  0.0938
   58MOL   H22648220   3.441   2.847   4.441  1.7728 -0.6375  0.4153
   58MOL   H22748221   3.469   2.761   4.577  2.1831 -2.3827 -0.7227
   58MOL   H22848222   3.254   2.630   4.547  1.6101 -0.1688  1.5776
   58MOL   H22948223   3.241   2.914   4.617  0.7061 -0.2617  2.3203
   58MOL   H23048224   3.098   2.808   4.642 -0.5946 -0.3768 -0.1031
   58MOL   H23148225   3.367   2.778   4.787 -0.1241 -2.1003  1.9443
   58MOL   H23248226   3.283   2.647   4.760 -2.2638 -0.5521 -1.4174
   58MOL   H23348227   3.170   2.893   4.893 -1.5165 -0.0417  0.7348
   58MOL   H23448228   3.241   2.756   4.977 -1.2125  0.2322  2.2485
   58MOL   H23548229   3.056   2.628   4.853 -0.1780  0.7655 -1.0184
   58MOL   H23648230   2.976   2.779   4.822 -0.1780 -0.7245 -0.1010
   58MOL   H23748231   3.051   2.660   5.092  0.7726  1.9951  0.9386
   58MOL   H23848232   3.015   2.830   5.068 -0.1710  1.1507 -2.4128
   58MOL   H23948233   2.807   2.804   5.006  1.6928  0.9073  1.1167
   58MOL   H24048234   2.794   2.631   4.985 -1.8689  1.0990 -0.9603
   58MOL   H24148235   2.872   2.621   5.240  2.1120  1.9467  1.3707
   58MOL   H24248236   2.706   2.640   5.207 -0.1119  1.2971  2.1424
   58MOL   H24348237   2.895   2.879   5.272  0.3037 -0.9282  1.5587
   58MOL   H24448238   2.722   2.889   5.229  0.8163  1.0924  0.1683
   58MOL   H24548239   2.863   2.754   5.466 -0.8632 -3.5773 -0.3847
   58MOL   H24648240   2.688   2.734   5.437  0.8704 -0.5419 -0.5217
   58MOL   H24748241   2.708   3.002   5.449 -2.4668 -0.6989  1.3140
   58MOL   H24848242   2.858   2.973   5.516 -1.1396  3.0691 -1.9065
   58MOL   H24948243   2.715   2.826   5.703 -1.2346  0.5639  0.5935
   58MOL   H25048244   2.584   2.904   5.611 -1.1040 -0.9780  2.6226
   58MOL   H25148245   2.648   3.131   5.669  1.7988  0.9941  0.7027
   58MOL   H25248246   2.618   3.041   5.816 -1.9522  3.0236 -1.1590
   58MOL   H25348247   2.790   3.067   5.754 -0.2911  2.8186 -0.3032
   58MOL   C25448248   3.170   2.753   4.388 -0.6152 -0.0764  0.3062
   58MOL   C25548249   3.019   2.735   4.400  0.5696 -0.7981 -0.2808
   58MOL   C25648250   2.930   2.734   4.269  0.6694  0.2663 -0.0902
   58MOL   C25748251   2.954   2.614   4.178 -0.0611  0.4293 -0.0857
   58MOL   C25848252   2.890   2.621   4.031 -0.8742 -0.8984 -0.3359
   58MOL   C25948253   2.888   2.478   3.967  0.0123 -0.2438  0.0481
   58MOL   C26048254   2.838   2.480   3.819  0.2885 -0.2690  0.4395
   58MOL   C26148255   2.848   2.348   3.739  0.6520  0.1607  0.9673
   58MOL   C26248256   2.735   2.242   3.770  0.6709  0.8519  0.1252
   58MOL   C26348257   2.589   2.287   3.746  0.4749  0.2500 -0.5480
   58MOL   C26448258   2.480   2.177   3.764  0.1110 -0.0132 -0.3901
   58MOL   C26548259   2.495   2.071   3.652  0.7975  0.3029  0.8057
   58MOL   C26648260   2.435   1.935   3.696  0.0097 -0.3548 -0.0204
   58MOL   C26748261   2.440   1.817   3.601  0.7439  0.0032 -0.1279
   58MOL   H26848262   3.200   2.707   4.294 -2.4220 -2.3519  0.7798
   58MOL   H26948263   3.177   2.860   4.369 -0.8389 -0.4543 -2.0260
   58MOL   H27048264   2.989   2.831   4.442  1.5976  0.3167 -2.0194
   58MOL   H27148265   2.955   2.827   4.216  0.5263 -0.0186 -0.6692
   58MOL   H27248266   2.827   2.752   4.301  1.2453  2.0054  0.8764
   58MOL   H27348267   2.913   2.529   4.233  0.6115 -1.9705 -3.1142
   58MOL   H27448268   3.062   2.603   4.166 -0.2255 -2.0624  0.3875
   58MOL   H27548269   2.929   2.697   3.964 -0.0796  0.0524  1.1908
   58MOL   H27648270   2.784   2.644   4.044 -0.4828  4.2026 -4.6070
   58MOL   H27748271   2.817   2.413   4.016  1.4326 -1.2162  0.8561
   58MOL   H27848272   2.980   2.422   3.984 -0.5351 -1.4711 -0.9235
   58MOL   H27948273   2.736   2.519   3.814  0.7481  0.7310 -1.7151
   58MOL   H28048274   2.898   2.556   3.770 -0.4917 -0.5003 -0.9173
   58MOL   H28148275   2.943   2.295   3.741  0.7904  0.4504  2.5977
   58MOL   H28248276   2.823   2.369   3.635  2.7906 -0.3429  0.3337
   58MOL   H28348277   2.763   2.147   3.724  0.3362  1.4145 -1.2850
   58MOL   H28448278   2.735   2.212   3.874 -1.5977 -0.9721 -0.3500
   58MOL   H28548279   2.566   2.340   3.653  0.5012  1.5003  0.1465
   58MOL   H28648280   2.568   2.351   3.831  0.2770 -2.2028  1.2999
   58MOL   H28748281   2.377   2.212   3.767 -0.6633 -2.2609  0.2088
   58MOL   H28848282   2.489   2.131   3.862 -1.3560  0.3224 -0.0844
   58MOL   H28948283   2.459   2.104   3.555  0.0327 -1.0659  0.6179
   58MOL   H29048284   2.599   2.048   3.630  0.9392 -0.2742  2.0189
   58MOL   H29148285   2.494   1.908   3.784  0.5969  1.7806  0.2740
   58MOL   H29248286   2.331   1.951   3.725  0.3911 -0.2500  1.3384
   58MOL   H29348287   2.384   1.848   3.513  0.9702  0.1069 -0.2383
   58MOL   H29448288   2.403   1.724   3.641  1.0895 -0.0596  0.0503
   58MOL   H29548289   2.542   1.811   3.562  1.2384  2.6807  0.6198
   58MOL   C29648290   2.971   2.616   4.493 -0.3361 -0.7028 -0.2641
   58MOL   C29748291   2.824   2.607   4.541  0.5197  0.1317  0.1889
   58MOL   C29848292   2.807   2.511   4.662 -0.2267  0.4078 -0.1991
   58MOL   C29948293   2.880   2.375   4.648 -0.5619 -0.0120 -0.2973
   58MOL   C30048294   2.844   2.269   4.754  0.6782  0.1675 -0.1875
   58MOL   C30148295   2.700   2.232   4.745  0.2988  0.4630 -0.2173
   58MOL   C30248296   2.668   2.110   4.834 -0.1275  0.6633 -0.0418
   58MOL   C30348297   2.529   2.057   4.793 -0.1839 -0.0522 -0.9222
   58MOL   C30448298   2.494   1.926   4.862  0.4809  0.0033  0.1060
   58MOL   C30548299   2.344   1.916   4.883  0.2042 -0.2637 -0.8543
   58MOL   C30648300   2.300   1.800   4.974 -0.4698 -0.0623  0.7648
   58MOL   C30748301   2.336   1.663   4.925  0.5541 -0.1117  0.1508
   58MOL   C30848302   2.252   1.563   5.007  0.0173  0.9180  0.0860
   58MOL   C30948303   2.300   1.417   4.989 -0.0734  0.8844  0.0360
   58MOL   H31048304   3.022   2.617   4.589 -0.2359  1.2377 -0.3160
   58MOL   H31148305   3.002   2.525   4.442  1.2703 -0.9633  1.1474
   58MOL   H31248306   2.760   2.570   4.461 -1.5893 -0.9619  2.2914
   58MOL   H31348307   2.702   2.482   4.670 -0.6354  2.3621  2.0031
   58MOL   H31448308   2.838   2.567   4.751  1.9622 -0.2222 -0.5293
   58MOL   H31548309   2.988   2.393   4.648 -0.4131 -0.8867 -0.9592
   58MOL   H31648310   2.863   2.328   4.551  1.4945  0.5449 -0.9652
   58MOL   H31748311   2.904   2.180   4.732  1.2121  0.8798 -1.7071
   58MOL   H31848312   2.855   2.303   4.857  0.1982 -0.2870  0.0172
   58MOL   H31948313   2.671   2.208   4.643 -0.0313  0.6134 -0.1587
   58MOL   H32048314   2.623   2.307   4.763  1.7526  2.4054 -1.8491
   58MOL   H32148315   2.749   2.040   4.812 -1.0900  0.0977 -1.8234
   58MOL   H32248316   2.678   2.130   4.941 -1.4851 -0.4946  0.3094
   58MOL   H32348317   2.499   2.057   4.689 -1.1562 -0.0048 -0.6502
   58MOL   H32448318   2.460   2.130   4.836 -0.8457 -0.7804 -0.7254
   58MOL   H32548319   2.537   1.840   4.810 -0.1102 -0.6021  0.5995
   58MOL   H32648320   2.543   1.927   4.960 -1.1643  0.1309  0.9380
   58MOL   H32748321   2.285   1.913   4.792 -2.3133 -1.1874  0.7595
   58MOL   H32848322   2.311   2.008   4.932 -0.4657 -0.8334 -0.2325
   58MOL   H32948323   2.195   1.810   5.000 -0.2396  0.4517  1.5030
   58MOL   H33048324   2.356   1.822   5.065  0.0385 -1.2883  0.7579
   58MOL   H33148325   2.443   1.641   4.935  0.1782 -2.3337 -0.5465
   58MOL   H33248326   2.311   1.645   4.821  2.8431 -0.3625 -0.3792
   58MOL   H33348327   2.150   1.572   4.970 -0.7647 -1.4389  1.5230
   58MOL   H33448328   2.245   1.594   5.111 -0.4925  1.4386 -0.0989
   58MOL   H33548329   2.401   1.395   5.025 -0.3398 -0.1928  0.1585
   58MOL   H33648330   2.236   1.342   5.036 -0.5069  1.6140  0.6226
   58MOL   H33748331   2.291   1.390   4.884 -1.4168 -0.1625  0.4028
   58MOL   C33848332   2.761   2.749   4.580  0.4458  0.3088 -0.1330
   58MOL   C33948333   2.606   2.751   4.598  0.5169 -0.8127 -0.4814
   58MOL   C34048334   2.549   2.868   4.673  0.6579  0.0842  0.2514
   58MOL   C34148335   2.601   2.888   4.813  0.2729 -0.0889  0.5080
   58MOL   C34248336   2.510   2.989   4.890  0.4493  0.0604  0.2630
   58MOL   C34348337   2.529   3.002   5.040  0.2728 -0.3031 -0.2036
   58MOL   C34448338   2.426   3.094   5.105  0.1048  0.0019  0.3874
   58MOL   C34548339   2.437   3.098   5.253  0.1990 -0.1504  0.2599
   58MOL   C34648340   2.397   2.955   5.319 -0.2483  0.2414 -0.3966
   58MOL   C34748341   2.244   2.938   5.324  1.1140  0.5423 -0.1605
   58MOL   C34848342   2.195   2.801   5.367  0.2000  0.9015 -0.0427
   58MOL   C34948343   2.049   2.774   5.340  0.3866 -0.1436  0.0742
   58MOL   C35048344   2.023   2.724   5.194 -0.4352 -0.0401 -0.9271
   58MOL   C35148345   1.881   2.716   5.150  0.3303 -0.2025 -0.6071
   58MOL   H35248346   2.796   2.779   4.678  0.8874  0.7568 -0.4236
   58MOL   H35348347   2.793   2.832   4.517  1.6538 -1.1518 -1.5173
   58MOL   H35448348   2.584   2.672   4.670  1.5129 -1.2716 -0.6734
   58MOL   H35548349   2.558   2.955   4.609  0.6524 -1.3942 -1.8207
   58MOL   H35648350   2.442   2.851   4.687 -0.0840  2.6710 -1.9294
   58MOL   H35748351   2.703   2.926   4.818 -0.5313  2.3102 -0.4958
   58MOL   H35848352   2.585   2.798   4.872  1.5413 -1.1009 -0.6361
   58MOL   H35948353   2.410   2.948   4.878  1.5336 -2.7268  0.4636
   58MOL   H36048354   2.503   3.086   4.841  0.1352 -0.2043 -0.2223
   58MOL   H36148355   2.519   2.904   5.087  0.0608  1.0144  2.6473
   58MOL   H36248356   2.631   3.035   5.061  0.1837 -0.6126  0.7379
   58MOL   H36348357   2.445   3.193   5.064 -0.6803 -0.8328 -2.0713
   58MOL   H36448358   2.321   3.085   5.076  0.7600  1.1744 -2.4725
   58MOL   H36548359   2.535   3.126   5.289  1.3468 -1.7778 -1.5097
   58MOL   H36648360   2.368   3.177   5.284  1.0450  1.4393 -1.8278
   58MOL   H36748361   2.452   2.869   5.279  0.2258  0.4493 -0.1918
   58MOL   H36848362   2.433   2.962   5.421 -2.2030  3.2572  0.1379
   58MOL   H36948363   2.200   3.014   5.389  2.5533  0.4675  0.9273
   58MOL   H37048364   2.205   2.955   5.224  2.3650  3.2264 -0.2374
   58MOL   H37148365   2.223   2.782   5.471  2.3650 -3.2885 -1.2746
   58MOL   H37248366   2.255   2.733   5.307  2.6321  1.6577  1.4325
   58MOL   H37348367   1.988   2.858   5.373 -0.8103 -1.1545  0.5085
   58MOL   H37448368   2.010   2.691   5.400  1.7998 -1.9215 -1.4000
   58MOL   H37548369   2.087   2.778   5.124  1.2698  0.6453  1.0988
   58MOL   H37648370   2.063   2.623   5.194 -0.6865 -0.1529  0.7138
   58MOL   H37748371   1.872   2.659   5.058  0.9620 -0.6035 -0.4162
   58MOL   H37848372   1.832   2.658   5.228  3.0050 -0.4807  0.9231
   58MOL   H37948373   1.830   2.810   5.127 -1.8085 -1.2802 -0.3927
   58MOL   C38048374   2.536   2.735   4.460  0.0395  0.4908  0.7930
   58MOL   C38148375   2.390   2.672   4.461  0.4746 -1.2435 -0.4210
   58MOL   C38248376   2.303   2.696   4.332 -0.2847 -0.3035  0.3344
   58MOL   C38348377   2.222   2.824   4.322 -0.0320  0.5626  0.6328
   58MOL   C38448378   2.084   2.816   4.394 -0.2620 -0.5858 -0.3156
   58MOL   C38548379   2.024   2.956   4.382  0.2688  0.0450 -0.2961
   58MOL   C38648380   1.889   2.964   4.449 -1.1043  1.6712 -0.3638
   58MOL   C38748381   1.833   3.106   4.442 -0.2382  0.7231 -1.0096
   58MOL   C38848382   1.713   3.136   4.539 -1.0147  0.2354 -0.2076
   58MOL   C38948383   1.667   3.280   4.544  0.4806  0.3996  0.0681
   58MOL   C39048384   1.546   3.297   4.634 -0.3295  0.1516  0.4852
   58MOL   C39148385   1.490   3.434   4.644 -0.3466  0.2599 -0.3951
   58MOL   C39248386   1.371   3.458   4.750  0.3492  0.0864  0.3887
   58MOL   C39348387   1.330   3.604   4.758  0.3022 -0.2862  0.1651
   58MOL   H39448388   2.595   2.682   4.386 -1.6001 -2.1984  1.3479
   58MOL   H39548389   2.528   2.834   4.414  0.8753 -0.4447 -1.4029
   58MOL   H39648390   2.331   2.714   4.543  0.9043 -0.7174 -0.3842
   58MOL   H39748391   2.229   2.616   4.327  0.9787 -1.5132  0.4208
   58MOL   H39848392   2.361   2.688   4.240 -2.0474 -2.5079 -0.6395
   58MOL   H39948393   2.192   2.828   4.217  0.5906 -2.1774  0.3057
   58MOL   H40048394   2.279   2.912   4.352  0.6734  0.0890  0.6979
   58MOL   H40148395   2.102   2.791   4.499 -0.1740 -1.8649 -0.6277
   58MOL   H40248396   2.023   2.737   4.351 -0.3202 -0.5998 -0.2073
   58MOL   H40348397   2.027   2.978   4.276 -1.1308 -0.2424 -0.4047
   58MOL   H40448398   2.089   3.033   4.426 -1.4440  1.6235 -0.4479
   58MOL   H40548399   1.817   2.894   4.408 -0.3065  1.8220 -2.0539
   58MOL   H40648400   1.897   2.943   4.556  2.1232  0.2565 -0.8378
   58MOL   H40748401   1.909   3.183   4.453  1.1882 -0.5200 -2.1544
   58MOL   H40848402   1.793   3.106   4.340 -3.1498  2.0742  0.0595
   58MOL   H40948403   1.630   3.072   4.510 -2.1642  1.4527  0.3684
   58MOL   H41048404   1.739   3.114   4.643 -1.4195  3.8522  0.7144
   58MOL   H41148405   1.642   3.318   4.445 -0.2032 -0.1293  0.0280
   58MOL   H41248406   1.743   3.340   4.594  0.8723 -0.6430  0.7502
   58MOL   H41348407   1.472   3.217   4.634  0.5534 -0.6732 -0.0938
   58MOL   H41448408   1.575   3.274   4.737 -0.1043  1.6403  0.7627
   58MOL   H41548409   1.453   3.459   4.545 -0.5550  0.8372 -0.1773
   58MOL   H41648410   1.581   3.489   4.671 -0.0832 -1.6446  2.8020
   58MOL   H41748411   1.280   3.400   4.735  1.3369 -1.5919  0.7847
   58MOL   H41848412   1.402   3.427   4.849 -0.6286 -0.9671  0.3643
   58MOL   H41948413   1.285   3.640   4.665  1.7998 -0.7430 -0.7578
   58MOL   H42048414   1.413   3.671   4.782  1.1449 -0.4867 -2.0094
   58MOL   H42148415   1.264   3.617   4.843 -1.5825 -3.4453 -0.7377
   58MOL   C42248416   2.417   2.521   4.490 -0.2170  0.0301 -0.2600
   58MOL   C42348417   2.308   2.446   4.571  0.3482  0.2200  0.6211
   58MOL   C42448418   2.307   2.301   4.517 -0.9423 -0.6362 -0.4915
   58MOL   C42548419   2.223   2.278   4.397 -0.2309  0.5505  0.6391
   58MOL   C42648420   2.205   2.135   4.349 -0.0540  0.9390 -0.1911
   58MOL   C42748421   2.164   2.117   4.206  0.1748  0.1989 -0.5039
   58MOL   C42848422   2.169   1.973   4.159 -0.1060  0.4588 -0.5377
   58MOL   C42948423   2.139   1.969   4.012 -0.0250 -0.5784  0.0828
   58MOL   C43048424   1.988   1.970   3.981  1.0523  0.0742 -0.6593
   58MOL   C43148425   1.947   1.981   3.832  0.2196  0.1626 -0.0967
   58MOL   C43248426   1.968   2.128   3.783  0.1784 -0.0785  1.0306
   58MOL   C43348427   1.957   2.124   3.634 -0.2929  0.2016  0.7649
   58MOL   C43448428   1.968   2.268   3.562  0.6741 -0.2355 -0.4171
   58MOL   C43548429   2.110   2.328   3.567 -0.0077  0.2307  0.7695
   58MOL   H43648430   2.516   2.505   4.531 -1.0091 -0.7335  1.3845
   58MOL   H43748431   2.415   2.470   4.393 -2.4663  0.6691 -0.5756
   58MOL   H43848432   2.216   2.497   4.544  1.4874  1.2496 -1.4014
   58MOL   H43948433   2.278   2.224   4.589 -1.0079 -0.4103 -0.2747
   58MOL   H44048434   2.407   2.261   4.499 -1.2965 -2.2893  1.0488
   58MOL   H44148435   2.126   2.326   4.409 -1.4274 -1.0497 -2.2010
   58MOL   H44248436   2.272   2.328   4.313  0.1353  0.4231  0.7757
   58MOL   H44348437   2.124   2.088   4.404  0.1881  1.9328  1.0341
   58MOL   H44448438   2.295   2.076   4.361 -1.9653 -1.8826  0.6891
   58MOL   H44548439   2.226   2.178   4.141  0.6902  0.0446 -0.1634
   58MOL   H44648440   2.058   2.137   4.189  0.0507 -0.9030 -1.0650
   58MOL   H44748441   2.262   1.920   4.179 -0.6637 -0.0191  0.8514
   58MOL   H44848442   2.093   1.907   4.201  1.3204  0.3215  1.9159
   58MOL   H44948443   2.193   2.051   3.964 -0.7277  0.6031  1.2710
   58MOL   H45048444   2.175   1.874   3.973  1.1979 -0.0486 -0.0816
   58MOL   H45148445   1.938   1.884   4.027 -1.4749  0.3223 -2.8548
   58MOL   H45248446   1.938   2.051   4.034  0.3642 -0.0297 -1.1508
   58MOL   H45348447   2.018   1.912   3.787  0.6335 -0.8790  2.1014
   58MOL   H45448448   1.844   1.953   3.808 -0.4778  1.9331  0.7417
   58MOL   H45548449   1.887   2.180   3.834  0.0925  0.4036  0.4032
   58MOL   H45648450   2.061   2.177   3.811  0.7131  1.0345 -2.5113
   58MOL   H45748451   1.863   2.073   3.612  0.2651  0.7004 -3.1381
   58MOL   H45848452   2.029   2.052   3.595 -0.3188  1.0167 -0.8249
   58MOL   H45948453   1.936   2.247   3.459 -0.8355 -0.4040  0.0696
   58MOL   H46048454   1.896   2.345   3.591  0.7041  0.4187 -2.0178
   58MOL   H46148455   2.144   2.376   3.475  4.2309 -1.3334  1.4152
   58MOL   H46248456   2.182   2.246   3.569  0.0872  0.2132 -1.6032
   58MOL   H46348457   2.132   2.386   3.657  2.4791 -1.7904  1.5181
   58MOL   C46448458   2.335   2.454   4.726  0.6809 -0.5075 -0.3498
   58MOL   C46548459   2.202   2.454   4.825 -0.4495  0.0938 -0.7257
   58MOL   C46648460   2.108   2.574   4.803 -0.7679  0.1037  0.1351
   58MOL   C46748461   2.175   2.714   4.814 -0.6771 -0.3558 -0.5789
   58MOL   C46848462   2.063   2.820   4.805  0.2862 -0.6329  0.5114
   58MOL   C46948463   2.111   2.961   4.819 -0.0068 -0.5031 -0.7310
   58MOL   C47048464   1.990   3.053   4.837  0.6634  0.3618 -0.1526
   58MOL   C47148465   2.034   3.192   4.869  0.2355 -0.5471  0.1280
   58MOL   C47248466   1.920   3.286   4.907 -0.1706  0.4165 -0.2507
   58MOL   C47348467   1.960   3.432   4.937  0.2879  0.8294  0.6871
   58MOL   C47448468   1.856   3.519   5.005  0.0736  1.0987 -0.4938
   58MOL   C47548469   1.725   3.544   4.933  0.1390  0.5794  0.8632
   58MOL   C47648470   1.647   3.670   4.982 -0.1801  0.4746 -0.2404
   58MOL   C47748471   1.543   3.633   5.087  0.8124 -0.3637 -0.4850
   58MOL   H47848472   2.388   2.548   4.738 -1.7199  1.2748 -3.0709
   58MOL   H47948473   2.400   2.370   4.750  1.3633  0.0098 -0.3900
   58MOL   H48048474   2.248   2.451   4.924 -2.2562 -1.0242  0.1145
   58MOL   H48148475   2.057   2.553   4.709 -0.1196  0.1319 -0.2258
   58MOL   H48248476   2.026   2.563   4.873 -3.3398  0.8571 -2.6744
   58MOL   H48348477   2.245   2.723   4.731 -0.9711  1.6909 -0.6322
   58MOL   H48448478   2.237   2.710   4.904  0.1621  0.6127 -1.1027
   58MOL   H48548479   1.988   2.812   4.884 -1.0272  0.4609 -0.6181
   58MOL   H48648480   2.010   2.806   4.711 -0.0886 -1.3113  0.8209
   58MOL   H48748481   2.173   2.968   4.908 -0.6489 -2.3499 -0.1104
   58MOL   H48848482   2.168   2.989   4.730  0.5696 -1.2071 -0.5959
   58MOL   H48948483   1.917   3.064   4.756  0.5347  2.7872  0.2414
   58MOL   H49048484   1.930   3.020   4.922 -0.0137  2.0245  0.0425
   58MOL   H49148485   2.110   3.196   4.946  0.2325 -0.0763  0.1095
   58MOL   H49248486   2.079   3.234   4.779 -2.2281 -2.8886 -2.3267
   58MOL   H49348487   1.840   3.282   4.833 -0.6573 -1.2400  0.3276
   58MOL   H49448488   1.869   3.255   4.999  0.6184  1.0625  0.4031
   58MOL   H49548489   2.050   3.421   4.998 -0.4559  0.8895  1.7972
   58MOL   H49648490   1.994   3.488   4.850 -0.0713 -1.3976 -0.9261
   58MOL   H49748491   1.843   3.480   5.106  0.1063 -0.4146 -1.0738
   58MOL   H49848492   1.908   3.613   5.028  0.7853  0.6852 -0.4030
   58MOL   H49948493   1.660   3.457   4.928 -1.0425  1.5473 -1.6597
   58MOL   H50048494   1.757   3.568   4.832  0.4875 -1.0748  0.5633
   58MOL   H50148495   1.719   3.736   5.030 -0.9247  0.9762  0.1968
   58MOL   H50248496   1.605   3.719   4.894 -0.8186  0.0697 -0.1614
   58MOL   H50348497   1.556   3.533   5.128 -1.7947  0.2049  1.9255
   58MOL   H50448498   1.538   3.707   5.167  1.4601 -1.0235  0.1677
   58MOL   H50548499   1.449   3.646   5.032  1.9967  1.8972 -2.0606
   58MOL   C50648500   2.133   2.317   4.815  0.7295  0.1773 -0.2183
   58MOL   C50748501   2.013   2.286   4.901 -0.6563  0.7113  0.6304
   58MOL   C50848502   1.983   2.132   4.887 -0.3826  0.4497  0.2004
   58MOL   C50948503   1.992   2.065   4.751 -0.2221  0.1605  0.1994
   58MOL   C51048504   1.964   1.915   4.757  0.9995 -0.7773  0.3568
   58MOL   C51148505   1.975   1.861   4.612 -0.2489  0.0223 -1.0738
   58MOL   C51248506   1.916   1.723   4.602 -0.3106 -0.0229 -0.3515
   58MOL   C51348507   1.992   1.610   4.679  0.5036  0.2735 -0.6839
   58MOL   C51448508   1.922   1.474   4.677 -0.1945  0.0879 -0.2820
   58MOL   C51548509   1.999   1.384   4.769  0.2241 -0.1977 -0.6600
   58MOL   C51648510   1.927   1.250   4.794  0.0567 -0.1384 -0.4637
   58MOL   C51748511   2.012   1.167   4.889  0.7624 -0.2751  0.6780
   58MOL   C51848512   1.951   1.036   4.929  0.2542  0.2664 -0.7066
   58MOL   C51948513   1.813   1.054   4.988 -0.3514 -0.7940  0.0631
   58MOL   H52048514   2.207   2.241   4.837  2.1940  1.6602  0.0672
   58MOL   H52148515   2.104   2.301   4.711 -4.4829  1.4843  0.8620
   58MOL   H52248516   1.938   2.347   4.852 -0.5569 -1.0924 -1.8974
   58MOL   H52348517   2.058   2.078   4.945 -1.4356 -0.1637  1.0009
   58MOL   H52448518   1.882   2.118   4.925 -0.3452  1.7561  0.8046
   58MOL   H52548519   1.917   2.111   4.686 -2.9737  1.0626  3.8667
   58MOL   H52648520   2.091   2.082   4.709 -0.4056 -0.3160 -0.4353
   58MOL   H52748521   1.861   1.910   4.792  0.6343  1.8511 -0.2647
   58MOL   H52848522   2.039   1.875   4.826  0.8774  0.3767  1.1840
   58MOL   H52948523   2.079   1.848   4.582  0.3813  1.3756  0.5266
   58MOL   H53048524   1.924   1.926   4.541 -0.3916  0.7395 -0.3119
   58MOL   H53148525   1.818   1.726   4.649 -0.5624 -1.3213 -0.7607
   58MOL   H53248526   1.914   1.698   4.496 -0.4889  2.3090 -0.9183
   58MOL   H53348527   2.001   1.640   4.784 -0.2373 -0.4463 -0.4011
   58MOL   H53448528   2.094   1.597   4.643  0.3441 -1.4882 -0.5479
   58MOL   H53548529   1.933   1.442   4.574  0.7306  1.5693 -0.6603
   58MOL   H53648530   1.821   1.481   4.716  0.3342  0.0526  1.1388
   58MOL   H53748531   2.097   1.364   4.725  0.6036 -4.3625  1.8106
   58MOL   H53848532   2.012   1.436   4.864 -1.0031 -0.0639 -0.5662
   58MOL   H53948533   1.827   1.272   4.832 -0.4602 -0.3902 -1.6758
   58MOL   H54048534   1.903   1.195   4.704 -0.8051 -0.8438  0.1835
   58MOL   H54148535   2.024   1.212   4.987  1.6919 -0.7980  0.8113
   58MOL   H54248536   2.114   1.159   4.851  1.0356  0.2986  1.2981
   58MOL   H54348537   2.015   0.971   4.989  1.5222  2.9850  0.9795
   58MOL   H54448538   1.940   0.979   4.837  0.5705 -1.8668  0.5414
   58MOL   H54548539   1.795   1.133   5.061 -2.4155  0.4848 -1.7707
   58MOL   H54648540   1.745   1.066   4.904  1.9133  3.2217 -1.3592
   58MOL   H54748541   1.782   0.961   5.035 -1.4991 -0.1956  0.5162
   58MOL   C54848542   2.043   2.326   5.047  0.0570  0.4044  0.3771
   58MOL   C54948543   1.940   2.265   5.153 -0.2681 -0.6030  0.0775
   58MOL   C55048544   2.002   2.262   5.294  0.6384  0.1658  0.6231
   58MOL   C55148545   2.048   2.396   5.344 -0.4043 -0.5167 -0.0878
   58MOL   C55248546   2.094   2.371   5.489  0.5057  0.6383  0.2597
   58MOL   C55348547   2.130   2.500   5.565 -0.7750 -0.2037 -0.5454
   58MOL   C55448548   2.249   2.470   5.655  0.2262  0.0356  0.0528
   58MOL   C55548549   2.276   2.593   5.751  0.1236 -0.2600  0.3404
   58MOL   C55648550   2.182   2.605   5.877  0.2839  0.2556 -0.0684
   58MOL   C55748551   2.208   2.736   5.959 -0.1469 -0.0390  0.5722
   58MOL   C55848552   2.118   2.757   6.077 -0.0139  0.7991  0.1115
   58MOL   C55948553   2.100   2.889   6.139  0.0122  0.3733  0.0883
   58MOL   C56048554   1.968   2.889   6.224 -0.1577 -0.0577  0.1936
   58MOL   C56148555   1.932   3.021   6.288 -0.1565  1.0449 -0.1145
   58MOL   H56248556   2.137   2.280   5.079  0.1490  0.6444  0.4501
   58MOL   H56348557   2.057   2.434   5.054  2.9408  0.1920 -1.0232
   58MOL   H56448558   1.934   2.158   5.134 -0.9913 -0.4778 -0.4397
   58MOL   H56548559   1.932   2.224   5.369  0.9135  2.4449  2.0833
   58MOL   H56648560   2.090   2.199   5.285  0.0733 -0.6877  0.9567
   58MOL   H56748561   1.967   2.468   5.334 -0.1687 -0.0358  1.3363
   58MOL   H56848562   2.134   2.436   5.291 -0.1480  0.6410  1.1781
   58MOL   H56948563   2.011   2.317   5.536 -1.0892  2.8622  0.0755
   58MOL   H57048564   2.182   2.307   5.491 -0.0526 -0.1364  0.4224
   58MOL   H57148565   2.042   2.538   5.618 -2.7794 -1.4792 -2.8387
   58MOL   H57248566   2.168   2.565   5.487  1.6081  1.3079  1.7936
   58MOL   H57348567   2.229   2.380   5.713 -2.6268 -0.2101 -1.2062
   58MOL   H57448568   2.336   2.438   5.598  0.7759 -0.0992  0.9585
   58MOL   H57548569   2.258   2.679   5.687 -3.1168 -0.9772  0.2257
   58MOL   H57648570   2.380   2.591   5.785 -0.3056 -0.2837  1.6763
   58MOL   H57748571   2.198   2.530   5.955  3.1060  0.0039 -0.8393
   58MOL   H57848572   2.075   2.587   5.869  0.4510 -0.9923  0.3588
   58MOL   H57948573   2.307   2.724   6.004 -0.2099  0.4160  0.8410
   58MOL   H58048574   2.201   2.823   5.894 -0.8102 -0.8602 -0.4539
   58MOL   H58148575   2.145   2.681   6.151 -0.9083  0.7136  0.3582
   58MOL   H58248576   2.020   2.739   6.032 -0.7018 -0.2181  1.9637
   58MOL   H58348577   2.190   2.916   6.195 -0.2017 -1.5442  1.4135
   58MOL   H58448578   2.083   2.962   6.060  0.0020  1.7693  1.3720
   58MOL   H58548579   1.890   2.869   6.150  2.1434  0.0318 -2.3312
   58MOL   H58648580   1.958   2.803   6.289  2.8051  0.6349  1.6713
   58MOL   H58748581   1.849   2.996   6.353  0.2066 -0.8414 -0.3421
   58MOL   H58848582   2.011   3.065   6.349 -0.1734  0.9126  0.0046
   58MOL   H58948583   1.904   3.091   6.209 -1.1627 -1.2079 -1.8064
   58MOL   C59048584   1.803   2.336   5.147  0.6547  0.1420  0.0649
   58MOL   C59148585   1.683   2.242   5.161  0.1576  0.1058  0.5476
   58MOL   C59248586   1.667   2.169   5.294 -0.4266  0.0705  0.7942
   58MOL   C59348587   1.659   2.262   5.412  0.4446  0.5201 -0.6960
   58MOL   C59448588   1.635   2.191   5.552  0.2008 -0.7199 -1.3591
   58MOL   C59548589   1.612   2.286   5.667  0.1475 -0.7183 -0.3413
   58MOL   C59648590   1.472   2.350   5.680  0.2844 -0.1619  0.4415
   58MOL   C59748591   1.444   2.410   5.818 -0.3485 -0.0678  0.2976
   58MOL   C59848592   1.304   2.472   5.820  0.6945  0.3213  0.1208
   58MOL   C59948593   1.277   2.561   5.948  0.2257 -0.9060 -0.1332
   58MOL   C60048594   1.133   2.607   5.960 -0.0386 -0.3242 -0.8403
   58MOL   C60148595   1.089   2.652   6.094  0.2610 -0.4367 -0.0980
   58MOL   C60248596   1.033   2.541   6.186 -0.5172 -0.1851 -0.0324
   58MOL   C60348597   0.990   2.613   6.318  0.2265  0.3852  0.3549
   58MOL   H60448598   1.787   2.385   5.051 -2.7758 -1.5211 -0.2856
   58MOL   H60548599   1.789   2.420   5.215 -0.0941 -0.6033  0.8447
   58MOL   H60648600   1.692   2.157   5.093 -0.6230  1.4901 -1.3571
   58MOL   H60748601   1.748   2.097   5.301  2.6245  2.8930 -3.4360
   58MOL   H60848602   1.582   2.101   5.293  1.6883 -2.6766  1.3056
   58MOL   H60948603   1.570   2.322   5.397  1.1490  1.5124 -0.9691
   58MOL   H61048604   1.743   2.330   5.425  0.1547  0.6577  0.5220
   58MOL   H61148605   1.721   2.127   5.571 -0.6631 -1.7106 -0.7152
   58MOL   H61248606   1.548   2.124   5.552 -0.4501  0.1091  0.6119
   58MOL   H61348607   1.685   2.366   5.673  1.0038 -1.2547 -2.7937
   58MOL   H61448608   1.625   2.228   5.758  1.7487  0.2901  0.0824
   58MOL   H61548609   1.472   2.425   5.601 -1.3066 -0.4592  0.1298
   58MOL   H61648610   1.406   2.264   5.670 -0.0332  0.3894 -2.8861
   58MOL   H61748611   1.441   2.338   5.900 -1.6398  0.2986  0.5866
   58MOL   H61848612   1.513   2.494   5.820  0.3286 -0.5702 -1.2114
   58MOL   H61948613   1.288   2.542   5.737  0.5673  0.8392  0.5803
   58MOL   H62048614   1.232   2.391   5.813  0.1601  0.8404 -0.5202
   58MOL   H62148615   1.296   2.497   6.034 -1.6679  0.3955  1.2753
   58MOL   H62248616   1.349   2.642   5.960 -1.8652  1.0674 -0.7158
   58MOL   H62348617   1.059   2.531   5.934 -1.0146 -0.1015  1.2019
   58MOL   H62448618   1.118   2.692   5.892 -1.0741  0.7190  0.6695
   58MOL   H62548619   1.014   2.730   6.079  0.2036 -0.4602  0.0686
   58MOL   H62648620   1.175   2.700   6.142 -0.0522 -1.0944  1.1343
   58MOL   H62748621   0.948   2.485   6.146 -1.4763  1.1101  0.1627
   58MOL   H62848622   1.113   2.467   6.192  1.0109  1.5394  1.4073
   58MOL   H62948623   0.936   2.707   6.310  2.2304  1.4271 -1.7511
   58MOL   H63048624   1.082   2.639   6.372  0.7762  1.0461 -0.8761
   58MOL   H63148625   0.921   2.557   6.380 -0.9309  1.7637  0.3459
   58MOL   C63248626   1.551   2.307   5.130 -0.6208  0.5822  0.5287
   58MOL   C63348627   1.525   2.321   4.978  0.1527 -0.4229  0.2149
   58MOL   C63448628   1.484   2.182   4.907 -0.2241 -0.4704 -0.5502
   58MOL   C63548629   1.495   2.199   4.754 -0.6421  0.7203  0.2092
   58MOL   C63648630   1.426   2.090   4.669  0.0569  0.9887 -0.7030
   58MOL   C63748631   1.465   1.942   4.708 -0.1184 -0.2474 -0.5196
   58MOL   C63848632   1.412   1.836   4.608  0.5970 -0.6748 -0.1356
   58MOL   C63948633   1.486   1.702   4.625  0.9528 -0.1563  0.8517
   58MOL   C64048634   1.447   1.593   4.516 -0.0781 -0.2549 -0.2309
   58MOL   C64148635   1.542   1.468   4.516  0.2755  0.9156 -0.3828
   58MOL   C64248636   1.500   1.361   4.618 -0.3875  0.6307  1.1258
   58MOL   C64348637   1.578   1.228   4.590 -0.5303 -0.5084 -1.1494
   58MOL   C64448638   1.502   1.138   4.488 -0.4754 -0.0025  0.6893
   58MOL   C64548639   1.358   1.102   4.538 -0.6349  0.2231  0.4585
   58MOL   H64648640   1.561   2.402   5.181  0.1614  0.7060  0.1621
   58MOL   H64748641   1.464   2.261   5.176  0.2695  0.2858  1.9262
   58MOL   H64848642   1.609   2.358   4.920  0.9918 -2.4035  0.1128
   58MOL   H64948643   1.545   2.100   4.944 -1.0094 -0.2117  1.3571
   58MOL   H65048644   1.386   2.145   4.936 -0.7395  0.9929 -0.4146
   58MOL   H65148645   1.601   2.195   4.729 -0.8032 -2.4116 -0.2829
   58MOL   H65248646   1.468   2.296   4.713  0.4909  2.1864  2.7964
   58MOL   H65348647   1.432   2.102   4.561 -1.5132  0.8618 -0.8157
   58MOL   H65448648   1.323   2.104   4.704  0.2279  1.2144 -0.2746
   58MOL   H65548649   1.574   1.932   4.715 -0.1001  0.8774  1.1329
   58MOL   H65648650   1.419   1.900   4.798  0.8601  0.2858  0.2446
   58MOL   H65748651   1.304   1.824   4.616  0.8083 -1.6308  1.5553
   58MOL   H65848652   1.439   1.870   4.508  0.7585 -1.7592 -0.4613
   58MOL   H65948653   1.472   1.662   4.726 -2.3601 -1.7851 -0.1906
   58MOL   H66048654   1.595   1.711   4.619  0.8602  0.7078  0.4478
   58MOL   H66148655   1.448   1.632   4.414 -3.2599 -0.4780 -0.3962
   58MOL   H66248656   1.345   1.562   4.538  1.4541 -4.7632  1.1088
   58MOL   H66348657   1.531   1.409   4.425 -0.8569 -0.5192  0.6712
   58MOL   H66448658   1.646   1.498   4.530 -0.1193  1.1151  2.4772
   58MOL   H66548659   1.534   1.387   4.719 -2.2828 -3.0635  2.7792
   58MOL   H66648660   1.394   1.336   4.627  0.4428 -2.7058  2.3282
   58MOL   H66748661   1.585   1.170   4.682  1.2270  1.0317 -0.2820
   58MOL   H66848662   1.682   1.247   4.564  0.0244 -1.5023  0.3227
   58MOL   H66948663   1.544   1.037   4.488 -0.3761  0.0250  1.7684
   58MOL   H67048664   1.504   1.172   4.385 -0.2902  0.5590  0.8772
   58MOL   H67148665   1.347   1.117   4.646 -0.0104  1.5819  0.3524
   58MOL   H67248666   1.286   1.175   4.501  0.4515  0.8241 -0.5027
   58MOL   H67348667   1.324   1.007   4.498 -0.0966 -0.2361  1.0783
   58MOL   C67448668   1.413   2.428   4.967  0.0110 -0.0268 -0.5299
   58MOL   C67548669   1.469   2.572   4.976  0.2409  0.2915 -0.1656
   58MOL   C67648670   1.505   2.619   4.836 -0.7519  0.5221  0.0496
   58MOL   C67748671   1.622   2.713   4.818 -0.0707 -0.9716 -0.3292
   58MOL   C67848672   1.638   2.763   4.672  0.2720 -0.3632  0.1569
   58MOL   C67948673   1.675   2.654   4.570 -0.5408  0.2343  0.8950
   58MOL   C68048674   1.811   2.595   4.601  0.0054 -0.5826 -0.5460
   58MOL   C68148675   1.855   2.475   4.520 -0.1162  0.0497 -0.4404
   58MOL   C68248676   1.782   2.338   4.536 -0.2821  0.6222 -0.3771
   58MOL   C68348677   1.847   2.234   4.446 -0.8281 -0.4396 -0.1406
   58MOL   C68448678   1.752   2.117   4.413 -0.5239 -0.1462 -0.3113
   58MOL   C68548679   1.803   2.029   4.298  0.2388 -0.0040 -0.3117
   58MOL   C68648680   1.739   1.891   4.267 -0.1609  0.1711 -0.0912
   58MOL   C68748681   1.604   1.895   4.207  0.3490  0.2921  0.7727
   58MOL   H68848682   1.340   2.403   5.044 -0.9671  0.7813 -1.2047
   58MOL   H68948683   1.379   2.426   4.864 -0.6426  0.9286 -0.3362
   58MOL   H69048684   1.560   2.573   5.036  0.3801  0.0905 -0.3725
   58MOL   H69148685   1.529   2.532   4.775 -1.1943  0.2418  0.2749
   58MOL   H69248686   1.415   2.663   4.794  0.0433  2.3470  0.1668
   58MOL   H69348687   1.605   2.798   4.885  1.6210 -0.1300 -0.9304
   58MOL   H69448688   1.715   2.680   4.864 -0.0274 -0.7896 -0.2857
   58MOL   H69548689   1.556   2.823   4.633  0.2068  0.2232  1.1720
   58MOL   H69648690   1.706   2.848   4.684 -0.2521  0.0875 -0.0210
   58MOL   H69748691   1.596   2.581   4.553  0.2037 -0.1398 -0.9945
   58MOL   H69848692   1.697   2.708   4.478  1.7770 -0.5670  0.9711
   58MOL   H69948693   1.888   2.671   4.593  1.5304 -1.5360  3.8743
   58MOL   H70048694   1.823   2.562   4.704  1.6510 -0.5554 -0.7213
   58MOL   H70148695   1.832   2.509   4.419 -2.9568  1.7952  0.7304
   58MOL   H70248696   1.964   2.469   4.520 -0.1058  0.0068  1.2117
   58MOL   H70348697   1.777   2.298   4.637 -0.2773  0.5819 -0.3924
   58MOL   H70448698   1.681   2.354   4.500 -0.4514  1.7203  0.5642
   58MOL   H70548699   1.944   2.199   4.484 -1.2153  0.0982  1.3877
   58MOL   H70648700   1.873   2.273   4.348 -0.9286  0.1244  0.0546
   58MOL   H70748701   1.655   2.159   4.387 -0.5454 -0.8141 -1.3615
   58MOL   H70848702   1.732   2.059   4.503  0.2970 -2.3251 -1.4826
   58MOL   H70948703   1.906   2.005   4.325  0.4186 -0.0971 -1.0685
   58MOL   H71048704   1.797   2.085   4.206 -2.1699  1.3544  0.6346
   58MOL   H71148705   1.811   1.834   4.210 -0.4166  1.0338 -1.2897
   58MOL   H71248706   1.740   1.845   4.366  1.5331 -2.0334 -1.0874
   58MOL   H71348707   1.551   1.802   4.185  0.5369 -0.6329  4.0071
   58MOL   H71448708   1.538   1.963   4.261  0.2858  1.0080 -0.2001
   58MOL   H71548709   1.621   1.942   4.110  1.9245 -1.6003  0.1064
   58MOL   C71648710   1.381   2.662   5.058 -0.0394 -0.6241 -0.3033
   58MOL   C71748711   1.375   2.638   5.209 -0.4281  0.2544  0.6257
   58MOL   C71848712   1.490   2.709   5.288 -0.1287 -0.6023  0.3136
   58MOL   C71948713   1.518   2.666   5.430 -0.2544 -0.8210 -0.0987
   58MOL   C72048714   1.628   2.758   5.486 -0.2776  0.3613 -0.7974
   58MOL   C72148715   1.693   2.711   5.612 -0.0591 -0.3621 -0.1841
   58MOL   C72248716   1.807   2.802   5.653  0.4336 -0.2929 -0.1240
   58MOL   C72348717   1.784   2.905   5.758  0.3092  0.4100  0.0437
   58MOL   C72448718   1.921   2.973   5.807 -0.0758  0.0820  0.5181
   58MOL   C72548719   2.004   3.046   5.708 -0.3489 -0.4533  0.4612
   58MOL   C72648720   2.120   3.114   5.785  1.1419  0.0714 -0.7360
   58MOL   C72748721   2.205   3.216   5.701 -0.4797  0.2218 -0.1539
   58MOL   C72848722   2.137   3.344   5.655 -0.4137 -0.6834  0.6795
   58MOL   C72948723   2.237   3.412   5.561 -0.8349 -0.6856  0.1070
   58MOL   H73048724   1.418   2.764   5.051 -1.4349  0.0963  2.0644
   58MOL   H73148725   1.287   2.674   5.004 -1.3786 -2.3121  1.5776
   58MOL   H73248726   1.387   2.529   5.211 -0.1626  0.2888  1.0263
   58MOL   H73348727   1.454   2.812   5.295 -0.9604 -0.8576 -0.1105
   58MOL   H73448728   1.584   2.691   5.236  3.0754  0.1152  5.4750
   58MOL   H73548729   1.428   2.666   5.492  0.6741  0.3266  1.2954
   58MOL   H73648730   1.558   2.565   5.442 -0.8028 -1.1302 -0.8642
   58MOL   H73748731   1.715   2.768   5.420  0.6002 -0.7897  0.1442
   58MOL   H73848732   1.585   2.855   5.511 -0.4204  0.3852 -1.1390
   58MOL   H73948733   1.617   2.704   5.690 -2.0787  2.2112 -1.8395
   58MOL   H74048734   1.733   2.610   5.600  0.2948 -0.4623  1.7057
   58MOL   H74148735   1.896   2.748   5.688  1.1436  0.4402 -0.7884
   58MOL   H74248736   1.850   2.868   5.578 -0.7076  0.1674 -0.3784
   58MOL   H74348737   1.738   2.850   5.840  0.7795  2.1223  1.5072
   58MOL   H74448738   1.713   2.979   5.721 -0.9736 -2.1160 -2.8029
   58MOL   H74548739   1.880   3.032   5.889  0.4840  0.4246  0.5574
   58MOL   H74648740   1.982   2.902   5.862  1.5680 -0.4044 -1.8836
   58MOL   H74748741   2.053   2.975   5.641  1.7669 -0.2652  1.7442
   58MOL   H74848742   1.937   3.104   5.645  0.9484 -1.0184 -1.4781
   58MOL   H74948743   2.089   3.174   5.871 -0.3392  1.2654 -2.0642
   58MOL   H75048744   2.188   3.036   5.819  2.7908  1.5525 -0.5709
   58MOL   H75148745   2.295   3.251   5.751 -2.5201  2.1769  2.2569
   58MOL   H75248746   2.235   3.155   5.615  1.6340 -0.6080  1.1358
   58MOL   H75348747   2.108   3.402   5.743 -0.5524  0.6174 -0.2111
   58MOL   H75448748   2.043   3.318   5.606 -0.5291  0.9748 -0.0170
   58MOL   H75548749   2.192   3.488   5.496  1.1541  0.1609 -0.3100
   58MOL   H75648750   2.273   3.336   5.492  1.2819 -2.7648  3.3747
   58MOL   H75748751   2.329   3.458   5.595 -0.2521 -0.7794 -1.3340
   58MOL   C75848752   1.244   2.691   5.261 -0.0780  0.2019 -0.1825
   58MOL   C75948753   1.127   2.590   5.251  0.6612  0.6793  0.2600
   58MOL   C76048754   1.085   2.540   5.391 -0.2842  0.3394 -0.2951
   58MOL   C76148755   1.188   2.427   5.445  0.1326 -0.0090  0.3553
   58MOL   C76248756   1.144   2.289   5.390  0.0392  0.0921 -0.1409
   58MOL   C76348757   1.227   2.174   5.439  0.7155  0.3325  0.0002
   58MOL   C76448758   1.177   2.116   5.574  0.2587  0.5067 -0.0946
   58MOL   C76548759   1.262   2.011   5.643  0.9111 -0.0953  0.0864
   58MOL   C76648760   1.215   1.966   5.780 -0.3778  0.0136  0.0619
   58MOL   C76748761   1.310   1.864   5.844 -0.3654 -0.1381 -0.2515
   58MOL   C76848762   1.253   1.830   5.982  0.2408  0.2487 -0.6685
   58MOL   C76948763   1.350   1.723   6.047 -0.0848  0.4988 -0.1545
   58MOL   C77048764   1.333   1.711   6.202  0.7699  0.2405  0.1264
   58MOL   C77148765   1.404   1.593   6.267  0.9926  0.2874 -0.1729
   58MOL   H77248766   1.252   2.715   5.367  0.8993 -2.3703  0.3569
   58MOL   H77348767   1.216   2.786   5.215  0.5420  0.4566 -0.0517
   58MOL   H77448768   1.164   2.500   5.202 -0.4049  0.7322 -0.6549
   58MOL   H77548769   1.078   2.627   5.457  0.4417  0.2715 -0.1280
   58MOL   H77648770   0.984   2.498   5.385 -0.4626  0.4837  1.3739
   58MOL   H77748771   1.288   2.445   5.405  0.4846 -2.0742  0.2902
   58MOL   H77848772   1.203   2.440   5.552 -1.2785  2.6479  0.2946
   58MOL   H77948773   1.175   2.294   5.285  1.0879 -0.5324  0.1282
   58MOL   H78048774   1.040   2.257   5.395 -0.5064  1.7023 -0.8179
   58MOL   H78148775   1.329   2.213   5.442 -0.6708  4.0414  0.4468
   58MOL   H78248776   1.223   2.079   5.385  0.4254 -0.4134  1.2945
   58MOL   H78348777   1.163   2.197   5.646  0.1047 -0.6851  1.2397
   58MOL   H78448778   1.076   2.074   5.584  0.3589 -0.1158 -1.6532
   58MOL   H78548779   1.367   2.038   5.637  0.3840  1.8183 -1.3186
   58MOL   H78648780   1.261   1.921   5.581  1.9195 -0.2264  0.2646
   58MOL   H78748781   1.117   1.922   5.765  0.1028 -0.8204 -0.6501
   58MOL   H78848782   1.199   2.061   5.832 -1.5747  1.0515 -2.1017
   58MOL   H78948783   1.414   1.895   5.841  0.1894 -1.8710  0.4694
   58MOL   H79048784   1.319   1.781   5.773 -2.1093 -1.2582  0.8022
   58MOL   H79148785   1.263   1.927   6.030 -1.9644 -0.3911  1.1451
   58MOL   H79248786   1.150   1.796   5.980  0.6603 -1.0301 -0.8583
   58MOL   H79348787   1.330   1.630   5.993 -0.4985  0.6259 -0.2180
   58MOL   H79448788   1.451   1.751   6.016  0.0443 -0.7095 -0.9103
   58MOL   H79548789   1.365   1.805   6.248 -1.1346 -1.1240  4.4099
   58MOL   H79648790   1.229   1.702   6.231  0.5863 -1.2155 -0.9049
   58MOL   H79748791   1.391   1.496   6.219  4.6561 -1.2741  1.7466
   58MOL   H79848792   1.512   1.609   6.265  1.6304 -3.1552  1.8573
   58MOL   H79948793   1.366   1.574   6.368 -1.5350 -3.2998 -1.6677
   58MOL   C80048794   1.005   2.655   5.175  0.8713  0.0887 -0.1240
   58MOL   C80148795   0.896   2.554   5.126 -0.2396 -0.3154  0.4133
   58MOL   C80248796   0.780   2.632   5.059  0.6930  0.0669 -0.1727
   58MOL   C80348797   0.819   2.680   4.915  0.1745 -0.2113  0.7815
   58MOL   C80448798   0.694   2.718   4.836  0.1687 -0.0984 -0.4150
   58MOL   C80548799   0.733   2.743   4.685 -0.4603  0.0031  0.2007
   58MOL   C80648800   0.613   2.784   4.596 -0.4439 -0.5887 -0.8265
   58MOL   C80748801   0.645   2.806   4.444 -0.3511 -0.3650 -0.3793
   58MOL   C80848802   0.544   2.872   4.354  0.1719 -0.0701 -0.3935
   58MOL   C80948803   0.596   2.880   4.218  0.0436  0.1708  0.1110
   58MOL   C81048804   0.488   2.913   4.119  0.9760 -0.3766 -0.1698
   58MOL   C81148805   0.544   2.895   3.973  0.0934  0.0812  0.2960
   58MOL   C81248806   0.436   2.950   3.886  0.3392 -0.2681  0.9853
   58MOL   C81348807   0.474   2.966   3.738 -0.4411 -0.3503 -0.2650
   58MOL   H81448808   1.048   2.694   5.082 -2.3613 -0.6833 -2.0405
   58MOL   H81548809   0.951   2.733   5.229 -0.2829  0.1600 -1.3500
   58MOL   H81648810   0.855   2.497   5.209 -1.6301 -0.1362 -0.1327
   58MOL   H81748811   0.747   2.721   5.113  0.2338  0.9982 -1.9441
   58MOL   H81848812   0.694   2.565   5.055  1.0298 -0.3771 -0.1068
   58MOL   H81948813   0.875   2.600   4.865 -0.4654 -1.1883  1.6320
   58MOL   H82048814   0.883   2.768   4.919  0.7755 -0.4408 -2.1124
   58MOL   H82148815   0.629   2.630   4.837  1.7766 -1.2899  1.0963
   58MOL   H82248816   0.641   2.806   4.874  1.8440  1.7722 -2.3028
   58MOL   H82348817   0.795   2.667   4.639  0.7905  0.4721  1.0673
   58MOL   H82448818   0.788   2.837   4.683  1.6463 -1.2183 -0.3868
   58MOL   H82548819   0.546   2.700   4.612 -0.4445 -0.7199 -1.5082
   58MOL   H82648820   0.570   2.879   4.629  1.9729  0.3770 -0.3933
   58MOL   H82748821   0.739   2.862   4.438 -0.3626 -0.0120  2.1546
   58MOL   H82848822   0.667   2.709   4.400 -1.1964 -0.1668 -1.2676
   58MOL   H82948823   0.450   2.815   4.354  0.2301 -0.1744  0.1595
   58MOL   H83048824   0.525   2.973   4.390 -0.2948  0.5640 -2.3577
   58MOL   H83148825   0.636   2.782   4.195  2.3000  1.4150 -1.4651
   58MOL   H83248826   0.681   2.948   4.218 -1.4235  2.1008 -1.7763
   58MOL   H83348827   0.392   2.863   4.133  0.7298 -0.2906 -1.4518
   58MOL   H83448828   0.446   3.011   4.143  0.9289 -0.6037  0.6817
   58MOL   H83548829   0.558   2.790   3.949  1.9477 -0.0450  1.8836
   58MOL   H83648830   0.642   2.941   3.963  0.0575  0.1165  0.0909
   58MOL   H83748831   0.342   2.895   3.882 -0.0540  0.4687 -0.0533
   58MOL   H83848832   0.413   3.051   3.919  2.1658  0.7823 -0.8527
   58MOL   H83948833   0.401   3.029   3.689 -0.3292 -0.2174 -0.2592
   58MOL   H84048834   0.575   3.007   3.735 -0.2940 -0.7848 -1.4632
   58MOL   H84148835   0.469   2.873   3.681  0.3288 -0.1071 -0.7351
   58MOL   H84248836   0.930   2.479   5.055  1.1148  1.5966 -1.0322
   59MOL     C148837   0.673   6.943   5.041 -0.1192  0.5520  0.2066
   59MOL     C248838   0.693   7.034   4.915  0.6432 -0.2835  0.0663
   59MOL     C348839   0.843   7.080   4.910 -0.3296  0.6560  0.3359
   59MOL     C448840   0.880   7.201   4.812 -0.0585  0.3953  0.2998
   59MOL     C548841   1.030   7.228   4.820 -0.2830  0.2194 -0.2496
   59MOL     C648842   1.075   7.331   4.716 -0.1264  0.1641  0.3028
   59MOL     C748843   1.001   7.462   4.746  0.5594 -0.3375 -0.7197
   59MOL     C848844   1.070   7.586   4.686 -0.0627  0.1069 -0.5418
   59MOL     C948845   1.012   0.025   4.748  0.0443  0.5849 -0.1094
   59MOL    C1048846   1.073   0.149   4.692  0.1773  0.1140  0.0927
   59MOL    C1148847   1.009   0.282   4.718 -0.2601 -0.5722  0.2531
   59MOL    C1248848   1.060   0.397   4.637 -0.3610  0.0713 -0.0762
   59MOL    C1348849   1.017   0.541   4.694  0.4275  0.1105 -0.3658
   59MOL    C1448850   1.080   0.578   4.822 -0.0062 -0.3110  0.0906
   59MOL    H1548851   0.567   6.928   5.065 -0.5757  4.0374  0.6171
   59MOL    H1648852   0.738   6.980   5.120  1.4519 -0.6307 -0.5077
   59MOL    H1748853   0.627   7.119   4.932  0.7492 -0.3572  0.8697
   59MOL    H1848854   0.871   7.106   5.013 -0.1288 -0.7566  0.6471
   59MOL    H1948855   0.903   6.993   4.885  0.9816  2.4085 -2.9209
   59MOL    H2048856   0.825   7.286   4.851 -0.9110  0.1915 -0.4378
   59MOL    H2148857   0.844   7.175   4.712  0.1732  1.7628 -0.1452
   59MOL    H2248858   1.084   7.134   4.819  0.0661  0.4152 -2.3554
   59MOL    H2348859   1.052   7.274   4.916  2.9654  1.9633 -1.7590
   59MOL    H2448860   1.050   7.286   4.620  1.9366 -1.1827  0.3626
   59MOL    H2548861   1.183   7.343   4.708  0.0733 -0.9718  1.2119
   59MOL    H2648862   0.896   7.459   4.717  0.9266 -0.8277 -2.0681
   59MOL    H2748863   1.000   7.481   4.853 -0.5671 -3.5044 -0.1208
   59MOL    H2848864   1.065   7.591   4.577  0.0440  1.7576 -0.4738
   59MOL    H2948865   1.179   7.584   4.695 -0.1391 -2.3640  0.1032
   59MOL    H3048866   0.903   0.019   4.739 -0.0061  0.6089  0.4603
   59MOL    H3148867   1.027   0.019   4.856  1.1658 -1.3633 -0.3553
   59MOL    H3248868   1.179   0.160   4.717 -0.0240 -1.4615  1.7233
   59MOL    H3348869   1.071   0.127   4.586 -0.5288  1.0599 -0.0950
   59MOL    H3448870   0.906   0.268   4.687 -0.8339 -0.8938  2.2322
   59MOL    H3548871   1.010   0.303   4.825  0.9691 -1.9816  0.5419
   59MOL    H3648872   1.034   0.395   4.531  3.0793 -0.7552 -0.9749
   59MOL    H3748873   1.169   0.395   4.629 -0.2621 -0.5504  1.2637
   59MOL    H3848874   1.064   0.617   4.632  1.1016  0.1630  0.1960
   59MOL    H3948875   0.909   0.553   4.690  0.1751 -2.0827 -0.8090
   59MOL    H4048876   1.024   0.555   4.913  0.7371 -1.2508  0.3282
   59MOL    H4148877   1.181   0.536   4.827  0.9738  2.1440  1.6159
   59MOL    H4248878   1.097   0.685   4.812  0.6577 -0.4599 -0.4595
   59MOL    H4348879   0.711   6.844   5.015  0.2140  0.8913 -0.6330
   59MOL    C4448880   0.663   6.957   4.787 -0.2106 -0.1641 -0.3456
   59MOL    C4548881   0.511   6.941   4.758  0.3840  0.6212  0.3243
   59MOL    C4648882   0.476   6.783   4.733  0.2599  0.0402 -0.1512
   59MOL    C4748883   0.324   6.742   4.719  0.0345 -0.9063 -0.0608
   59MOL    C4848884   0.311   6.595   4.704  0.2175 -0.1574  0.5672
   59MOL    C4948885   0.371   6.542   4.569 -0.1370  0.4224 -0.0582
   59MOL    C5048886   0.338   6.394   4.552  0.4126 -0.3720 -0.2446
   59MOL    C5148887   0.362   6.347   4.407 -0.7938 -0.7934 -0.4085
   59MOL    C5248888   0.380   6.191   4.381 -0.1777 -1.0411 -0.4872
   59MOL    C5348889   0.290   6.129   4.277  0.4324 -0.1791  0.9947
   59MOL    C5448890   0.320   5.975   4.252 -0.1221  0.1975 -0.3755
   59MOL    C5548891   0.226   5.913   4.153  0.4038  0.2339  0.6222
   59MOL    C5648892   0.116   5.817   4.215 -0.0425 -0.8018  0.2779
   59MOL    C5748893   0.025   5.746   4.113 -0.2702  0.0505 -1.1094
   59MOL    H5848894   0.697   6.999   4.692  0.8851 -0.8033 -0.2404
   59MOL    H5948895   0.716   6.862   4.785  1.4030  0.7367 -0.7570
   59MOL    H6048896   0.461   6.971   4.850 -1.6047  0.0281 -0.5312
   59MOL    H6148897   0.512   6.758   4.633 -1.0294  0.7667 -0.7967
   59MOL    H6248898   0.527   6.730   4.813 -1.6155  0.3232  1.2753
   59MOL    H6348899   0.275   6.800   4.640 -2.0680 -2.4822  0.0548
   59MOL    H6448900   0.282   6.775   4.814  0.4977 -1.7785  0.4535
   59MOL    H6548901   0.205   6.575   4.690  0.0571  1.8536 -1.3496
   59MOL    H6648902   0.343   6.535   4.789 -0.1549 -1.3680 -0.1280
   59MOL    H6748903   0.351   6.584   4.471  1.2134 -0.9584 -0.9455
   59MOL    H6848904   0.480   6.543   4.573 -0.1537 -1.1386  1.9751
   59MOL    H6948905   0.399   6.326   4.612  2.1929  0.5354 -0.9942
   59MOL    H7048906   0.237   6.375   4.588 -1.1258  1.6517 -3.2151
   59MOL    H7148907   0.453   6.394   4.372  0.8902 -1.7060  2.5774
   59MOL    H7248908   0.284   6.383   4.340 -1.6828 -1.1208  0.4338
   59MOL    H7348909   0.486   6.169   4.366  0.1698 -0.2731  0.7168
   59MOL    H7448910   0.356   6.138   4.473 -0.4179 -0.1280 -0.0117
   59MOL    H7548911   0.309   6.189   4.188  0.8313 -1.0098  0.5118
   59MOL    H7648912   0.183   6.138   4.299  0.4704  2.1004  0.3899
   59MOL    H7748913   0.332   5.924   4.348 -1.9469 -1.7695 -1.1494
   59MOL    H7848914   0.423   5.973   4.215  0.2362 -0.0263  0.6116
   59MOL    H7948915   0.180   5.992   4.093 -0.0486 -0.3518  0.1928
   59MOL    H8048916   0.288   5.856   4.084 -0.4213  1.7406 -1.4231
   59MOL    H8148917   0.048   5.868   4.283  0.3630 -0.5503  0.4919
   59MOL    H8248918   0.157   5.734   4.272 -0.0263 -0.2894  1.0090
   59MOL    H8348919   0.086   5.685   4.047  0.9608  0.2680 -0.1851
   59MOL    H8448920   7.654   5.816   4.062 -1.9092 -0.6958 -0.0489
   59MOL    H8548921   7.665   5.671   4.169  0.2101 -0.6656 -1.6034
   59MOL    C8648922   0.467   7.026   4.627 -0.0003  0.1374 -0.0286
   59MOL    C8748923   0.463   7.187   4.643  0.1767  0.8740 -0.1842
   59MOL    C8848924   0.334   7.224   4.725 -0.3844  0.0816 -0.2154
   59MOL    C8948925   0.201   7.232   4.655 -1.0096 -0.2779  0.0710
   59MOL    C9048926   0.087   7.287   4.752 -0.3791  0.1909 -0.6399
   59MOL    C9148927   7.646   7.286   4.680 -0.0376  0.0104 -0.1349
   59MOL    C9248928   7.521   7.323   4.758  1.1605  0.1037 -0.1500
   59MOL    C9348929   7.398   7.307   4.668  0.5973 -0.1655 -0.0732
   59MOL    C9448930   7.272   7.340   4.742  0.4939  0.1083 -0.0228
   59MOL    C9548931   7.235   7.487   4.766 -0.3661  0.7870  0.8101
   59MOL    C9648932   7.135   7.494   4.889  0.1875 -0.2768  0.6476
   59MOL    C9748933   7.115   7.635   4.940 -0.2209  0.0036  0.2170
   59MOL    C9848934   7.005   0.030   4.873 -0.8919  0.0596 -0.4410
   59MOL    C9948935   6.978   0.161   4.944 -0.0209 -0.1350 -0.1140
   59MOL   H10048936   0.520   7.003   4.534 -2.2695  2.9166 -2.1033
   59MOL   H10148937   0.366   6.995   4.600  0.6517 -2.1845  0.0649
   59MOL   H10248938   0.549   7.220   4.702  1.5788 -1.2755 -0.9752
   59MOL   H10348939   0.327   7.161   4.814 -1.5958  0.1755 -0.2322
   59MOL   H10448940   0.346   7.327   4.759  0.8619 -0.0548 -0.2297
   59MOL   H10548941   0.199   7.307   4.576 -2.0067 -0.5894 -0.2081
   59MOL   H10648942   0.165   7.137   4.617 -1.2819 -0.5837  1.0785
   59MOL   H10748943   0.118   7.387   4.783  1.0098 -0.1633 -0.8515
   59MOL   H10848944   0.090   7.225   4.842 -1.8426 -0.4595 -1.0193
   59MOL   H10948945   7.636   7.187   4.634 -0.6362  0.0865 -0.1681
   59MOL   H11048946   7.665   7.355   4.598 -1.2522 -0.2715 -0.6595
   59MOL   H11148947   7.507   7.263   4.847 -0.7999 -1.5349 -1.5071
   59MOL   H11248948   7.525   7.429   4.785  0.6733 -0.2626  1.3877
   59MOL   H11348949   7.394   7.201   4.644  1.3862  0.0449 -1.1998
   59MOL   H11448950   7.399   7.376   4.583 -0.0211 -0.2813 -0.1787
   59MOL   H11548951   7.189   7.274   4.718  1.1190 -0.5133 -0.5261
   59MOL   H11648952   7.292   7.313   4.846 -0.5722  1.0203  0.4149
   59MOL   H11748953   7.187   7.537   4.682  1.5281 -0.7308 -1.2236
   59MOL   H11848954   7.325   7.546   4.784 -2.0646  3.7979 -0.1891
   59MOL   H11948955   7.045   7.443   4.855  0.2616 -0.5080  0.7960
   59MOL   H12048956   7.160   7.436   4.978  1.5203 -0.0010  0.4621
   59MOL   H12148957   7.090   7.623   5.045 -2.2963 -1.6902 -0.4427
   59MOL   H12248958   7.213   7.683   4.942  0.3250 -1.1390  1.6257
   59MOL   H12348959   6.916   7.662   4.871 -0.6186 -0.3007 -2.1768
   59MOL   H12448960   7.034   0.054   4.771 -2.4428  1.5065 -0.5602
   59MOL   H12548961   7.073   0.211   4.959  0.1126 -0.9261  1.8643
   59MOL   H12648962   6.921   0.230   4.882  1.4576 -0.9719 -2.4788
   59MOL   H12748963   6.935   0.153   5.045 -1.9496  0.8756 -0.8246
   59MOL   C12848964   0.473   7.261   4.504 -0.3355  0.4630  0.5536
   59MOL   C12948965   0.478   7.414   4.510  0.1730 -0.4551 -0.1511
   59MOL   C13048966   0.611   7.474   4.562 -0.7064  0.2246  0.1147
   59MOL   C13148967   0.630   7.633   4.572 -0.3631 -0.0656 -0.5354
   59MOL   C13248968   0.722   0.002   4.469  0.1688  0.1935 -0.1852
   59MOL   C13348969   0.718   0.157   4.470  0.1073  0.2523 -0.0771
   59MOL   C13448970   0.606   0.218   4.381  0.2350  0.8363 -0.1595
   59MOL   C13548971   0.610   0.373   4.381  0.8661  0.3411  0.5587
   59MOL   C13648972   0.483   0.433   4.314 -0.0665  0.2632  0.4776
   59MOL   C13748973   0.492   0.582   4.278 -0.6973  0.1784 -0.4181
   59MOL   C13848974   0.388   0.628   4.166  0.1460  0.3873  0.2698
   59MOL   C13948975   0.408   0.762   4.100 -0.2172 -0.7960  0.7571
   59MOL   C14048976   0.312   0.797   3.986 -0.0965 -0.1440  0.4822
   59MOL   C14148977   0.362   0.917   3.914  0.9117  0.1143 -0.2420
   59MOL   H14248978   0.565   7.225   4.457 -0.5102  0.8064 -0.0401
   59MOL   H14348979   0.391   7.222   4.445  0.1876 -1.2613  0.9334
   59MOL   H14448980   0.404   7.443   4.585  1.2162 -0.3383  0.8515
   59MOL   H14548981   0.629   7.434   4.662  2.1031  1.2074  0.0395
   59MOL   H14648982   0.692   7.419   4.514 -0.4200  0.1153  0.7211
   59MOL   H14748983   0.534   7.684   4.579 -0.7032 -1.0888  3.8150
   59MOL   H14848984   0.678   7.643   4.670 -1.0411 -1.3959 -0.0444
   59MOL   H14948985   0.823   7.659   4.483 -0.2646 -0.4964  1.0770
   59MOL   H15048986   0.688   7.676   4.368  1.8260 -2.1368 -0.2805
   59MOL   H15148987   0.710   0.198   4.571  0.3541  1.4002 -0.5156
   59MOL   H15248988   0.812   0.191   4.428  0.1672  0.1157 -0.0526
   59MOL   H15348989   0.599   0.171   4.283  0.5721  0.3663  0.0377
   59MOL   H15448990   0.523   0.187   4.446 -1.3361  2.5254 -1.3416
   59MOL   H15548991   0.615   0.412   4.483 -0.0376  2.2169 -0.0966
   59MOL   H15648992   0.699   0.404   4.326  0.5524  0.4293  0.0970
   59MOL   H15748993   0.468   0.366   4.230  2.2115 -1.3855  1.3175
   59MOL   H15848994   0.393   0.416   4.373 -0.1276  1.4908  0.7561
   59MOL   H15948995   0.591   0.589   4.231  0.2948  0.4027  1.6347
   59MOL   H16048996   0.476   0.640   4.369 -2.7022  1.4524 -1.5556
   59MOL   H16148997   0.380   0.544   4.097  1.9589 -0.5082  1.0868
   59MOL   H16248998   0.284   0.625   4.198  0.0063 -0.9590 -0.2605
   59MOL   H16348999   0.394   0.833   4.181 -0.3120  1.2013 -0.9512
   59MOL   H16449000   0.513   0.775   4.072 -0.1385 -1.3683  0.7825
   59MOL   H16549001   0.312   0.706   3.926  1.3558  0.2265 -0.1094
   59MOL   H16649002   0.210   0.816   4.018  0.1755 -1.0119  1.9626
   59MOL   H16749003   0.350   1.007   3.976  0.5354  0.4136 -0.7438
   59MOL   H16849004   0.466   0.906   3.884  1.0006 -2.2726  0.8221
   59MOL   H16949005   0.297   0.934   3.828 -0.5690  0.9472  1.0084
   59MOL   C17049006   0.437   7.470   4.368  0.3901 -0.5814 -0.5495
   59MOL   C17149007   0.285   7.474   4.336 -0.4780 -0.0284  0.0641
   59MOL   C17249008   0.232   7.604   4.380 -0.2570  0.5077 -0.2782
   59MOL   C17349009   0.086   7.624   4.377 -0.1747 -0.4103 -0.0196
   59MOL   C17449010   0.028   0.028   4.478 -0.4609  0.4570  0.2171
   59MOL   C17549011   7.578   0.058   4.437  0.3076 -0.1135 -0.2065
   59MOL   C17649012   7.497   0.153   4.531 -0.3921  0.0904 -0.3549
   59MOL   C17749013   7.492   0.118   4.678  0.7377 -0.5403 -0.4821
   59MOL   C17849014   7.384   0.197   4.756  0.5543 -0.2031  0.1447
   59MOL   C17949015   7.407   0.348   4.736  0.0920 -0.2397 -0.2145
   59MOL   C18049016   7.355   0.430   4.855  0.2787 -0.4344 -0.0886
   59MOL   C18149017   7.387   0.577   4.840  0.5932  0.5366  0.2444
   59MOL   C18249018   7.319   0.672   4.934  0.1726  0.3262 -0.1630
   59MOL   C18349019   7.358   0.819   4.906 -0.1419  0.5399  0.4542
   59MOL   H18449020   0.495   7.410   4.298 -0.1233 -2.6708  0.7661
   59MOL   H18549021   0.488   7.564   4.347 -2.8993  0.8791 -2.2634
   59MOL   H18649022   0.247   7.388   4.392 -0.8613 -0.3813 -0.7213
   59MOL   H18749023   0.270   7.610   4.482 -0.0035 -0.3769 -0.3166
   59MOL   H18849024   0.280   7.691   4.336  0.5787 -0.3027 -0.9963
   59MOL   H18949025   0.057   7.656   4.277  0.3130  1.1515  0.3268
   59MOL   H19049026   0.039   7.526   4.393  0.2494 -0.5573  0.3285
   59MOL   H19149027   0.035   7.687   4.580  1.8588 -1.9671 -0.7498
   59MOL   H19249028   0.068   0.130   4.476 -0.8166  0.6119  0.7535
   59MOL   H19349029   7.522   7.661   4.427  1.3787 -0.5585 -2.5094
   59MOL   H19449030   7.582   0.092   4.333  1.5368 -3.8786 -1.4704
   59MOL   H19549031   7.397   0.150   4.486 -0.5537 -0.4193  0.0264
   59MOL   H19649032   7.538   0.253   4.524  3.3938 -1.4812 -2.1922
   59MOL   H19749033   7.589   0.131   4.726 -0.3509 -0.5556  1.8432
   59MOL   H19849034   7.474   0.014   4.708 -2.6198  0.0653 -0.2068
   59MOL   H19949035   7.407   0.177   4.861  3.8566 -1.0622 -0.6878
   59MOL   H20049036   7.281   0.175   4.729  0.8992 -0.2488 -1.1634
   59MOL   H20149037   7.359   0.393   4.649  1.2559  0.0899 -0.7068
   59MOL   H20249038   7.510   0.378   4.716  0.6707 -1.1480  1.3022
   59MOL   H20349039   7.411   0.404   4.945  1.3394  1.9238 -0.0471
   59MOL   H20449040   7.249   0.415   4.878  0.3705  1.5968  1.7865
   59MOL   H20549041   7.492   0.586   4.867  0.4166 -1.2839  1.5724
   59MOL   H20649042   7.386   0.612   4.736 -0.7760  2.7746  0.9738
   59MOL   H20749043   7.213   0.660   4.911  0.1742  1.7945 -1.0042
   59MOL   H20849044   7.342   0.639   5.035 -1.3632  0.3159  0.2041
   59MOL   H20949045   7.302   0.897   4.957  0.6524  1.2861  0.1972
   59MOL   H21049046   7.335   0.849   4.804 -0.6990  0.2023  0.4797
   59MOL   H21149047   7.462   0.838   4.933 -0.4287  0.0765  1.9373
   59MOL   C21249048   0.258   7.462   4.184  0.2600  0.8856 -0.0015
   59MOL   C21349049   0.117   7.412   4.142 -0.0654  0.4440  0.7200
   59MOL   C21449050   0.114   7.400   3.988  0.2299  0.7147 -0.3461
   59MOL   C21549051   0.139   7.525   3.909  0.9220 -0.1808 -0.0660
   59MOL   C21649052   0.058   7.534   3.779  0.0308  0.6199  0.7425
   59MOL   C21749053   0.113   7.655   3.693  0.2683 -0.0704 -0.4161
   59MOL   C21849054   0.017   7.682   3.581  0.1376 -0.3834  0.3394
   59MOL   C21949055   0.061   0.098   3.484 -0.7511  0.5268  0.2510
   59MOL   C22049056   0.117   0.224   3.537 -0.2990  0.4944 -0.7020
   59MOL   C22149057   0.008   0.312   3.598 -0.3991  0.0459 -0.2476
   59MOL   C22249058   0.075   0.411   3.702  0.3572 -0.2954 -0.2480
   59MOL   C22349059   7.672   0.516   3.756  0.3708  0.4204 -0.0225
   59MOL   C22449060   0.046   0.637   3.829 -0.0506 -0.1051  0.1821
   59MOL   C22549061   7.640   0.745   3.854  0.1232  0.3595  0.2226
   59MOL   H22649062   0.328   7.388   4.146 -0.8479  0.5088 -1.3953
   59MOL   H22749063   0.284   7.552   4.128 -0.9559  1.8456  0.9307
   59MOL   H22849064   0.044   7.488   4.169 -0.6433  0.6784 -1.4308
   59MOL   H22949065   0.196   7.331   3.971 -0.3336 -0.1712  0.4978
   59MOL   H23049066   0.021   7.359   3.949  1.8465 -0.3421 -3.2230
   59MOL   H23149067   0.245   7.546   3.891  0.7975  0.6055  0.1054
   59MOL   H23249068   0.116   7.604   3.981 -1.6543 -2.7796  2.0661
   59MOL   H23349069   7.655   7.572   3.804  0.5601  1.9935  0.8277
   59MOL   H23449070   0.053   7.442   3.721 -0.0073  0.3148  1.2270
   59MOL   H23549071   0.210   7.623   3.656 -0.4320  0.2891 -2.5993
   59MOL   H23649072   0.113   0.048   3.757 -1.4961  1.1125 -2.0025
   59MOL   H23749073   7.690   7.598   3.515 -2.1140 -0.4590  1.1290
   59MOL   H23849074   7.624   0.017   3.637 -0.8985 -0.5350 -1.1818
   59MOL   H23949075   0.135   0.056   3.417 -0.9363  0.6734 -0.0465
   59MOL   H24049076   7.672   0.125   3.421 -1.3496 -0.3222  0.6780
   59MOL   H24149077   0.156   0.290   3.460 -3.1631  2.1671 -0.8147
   59MOL   H24249078   0.190   0.204   3.615 -0.9724  0.2543 -0.1296
   59MOL   H24349079   7.658   0.367   3.516  1.4902  0.5510 -0.9602
   59MOL   H24449080   7.629   0.247   3.645  1.0438 -0.5426  1.2767
   59MOL   H24549081   0.159   0.462   3.655  0.0827 -1.6144 -2.2160
   59MOL   H24649082   0.116   0.354   3.785 -0.2139 -1.0677 -0.4922
   59MOL   H24749083   7.614   0.452   3.822  0.1589 -1.3825 -1.9114
   59MOL   H24849084   7.608   0.550   3.675 -2.4949  1.1301  2.4713
   59MOL   H24949085   0.133   0.675   3.775 -1.4641  2.7928 -0.1295
   59MOL   H25049086   0.078   0.594   3.924  0.0431  0.5151  0.4301
   59MOL   H25149087   7.678   0.821   3.921 -0.0968  1.4458 -0.8600
   59MOL   H25249088   7.620   0.791   3.757  1.9183  0.2939 -0.1972
   59MOL   H25349089   7.547   0.707   3.897 -0.3040 -0.5986 -1.4885
   59MOL   C25449090   0.072   7.283   4.214 -0.1287 -0.1749 -0.1232
   59MOL   C25549091   7.624   7.224   4.184 -1.0386  0.2781 -0.3396
   59MOL   C25649092   7.621   7.070   4.200  0.0267  0.5288 -0.1878
   59MOL   C25749093   7.652   7.020   4.336  0.5770 -0.1119 -0.1103
   59MOL   C25849094   7.644   6.870   4.336 -0.0715 -0.0601  0.0138
   59MOL   C25949095   0.004   6.800   4.461  0.6910  0.0563 -1.4016
   59MOL   C26049096   7.601   6.797   4.582  0.3055 -0.4904  0.3290
   59MOL   C26149097   7.651   6.742   4.714  0.3647 -0.5580 -0.1907
   59MOL   C26249098   7.545   6.751   4.813 -0.6634  0.5869 -0.4522
   59MOL   C26349099   7.518   6.898   4.868 -0.1852  0.2152  0.3279
   59MOL   C26449100   7.452   6.901   5.009  0.5522 -0.3852  0.0468
   59MOL   C26549101   7.388   7.035   5.043 -0.2399 -0.3768  0.5537
   59MOL   C26649102   7.322   7.034   5.177 -0.2954  0.4120 -0.0311
   59MOL   C26749103   7.262   7.169   5.214  0.8543 -0.4733  0.3511
   59MOL   H26849104   0.074   7.303   4.321 -1.2470  1.2600 -0.3535
   59MOL   H26949105   0.152   7.210   4.201  0.7070  0.9796 -1.5694
   59MOL   H27049106   7.599   7.245   4.080 -0.0838  2.7746 -0.1003
   59MOL   H27149107   0.002   7.039   4.129 -0.9339 -0.7609 -0.6814
   59MOL   H27249108   7.532   7.028   4.154  1.3482 -1.9375 -0.5766
   59MOL   H27349109   7.573   7.065   4.396 -0.3650 -2.6360  0.5934
   59MOL   H27449110   0.053   7.062   4.364  0.4077  1.2968 -1.5078
   59MOL   H27549111   0.007   6.832   4.252  0.0846 -1.1403  0.5984
   59MOL   H27649112   7.540   6.844   4.317  0.3144 -2.1321  0.6060
   59MOL   H27749113   0.095   6.852   4.493 -0.6684  1.0868  0.9055
   59MOL   H27849114   0.039   6.698   4.443  1.7867 -0.1295  1.5132
   59MOL   H27949115   7.573   6.900   4.605 -1.4136 -0.9627  0.3830
   59MOL   H28049116   7.512   6.740   4.557 -0.4942  0.9434 -0.1666
   59MOL   H28149117   0.051   6.789   4.739 -0.9296  1.2119  1.6193
   59MOL   H28249118   7.683   6.639   4.701 -1.4343 -1.0437 -0.8253
   59MOL   H28349119   7.451   6.710   4.778  0.0027 -0.9242 -0.4839
   59MOL   H28449120   7.573   6.689   4.899 -0.0930 -2.2418 -2.6177
   59MOL   H28549121   7.447   6.942   4.799  1.0406  0.5985 -0.7131
   59MOL   H28649122   7.613   6.950   4.855 -1.6488  2.6527 -0.9488
   59MOL   H28749123   7.518   6.863   5.087 -1.6598 -0.6347  1.8284
   59MOL   H28849124   7.374   6.825   5.005  0.8055 -0.5947 -1.3242
   59MOL   H28949125   7.459   7.117   5.048  0.1019 -0.4991 -1.8786
   59MOL   H29049126   7.316   7.061   4.965 -0.4007 -2.8985 -0.1810
   59MOL   H29149127   7.240   6.963   5.189  0.5788 -0.5874  0.0610
   59MOL   H29249128   7.386   7.003   5.259 -0.6008  3.8903  1.6255
   59MOL   H29349129   7.345   7.240   5.206  1.1250 -0.9379 -1.1372
   59MOL   H29449130   7.217   7.168   5.313 -0.2726 -1.4849 -0.1523
   59MOL   H29549131   7.195   7.214   5.140 -0.1553 -0.3195  1.3597
   59MOL   C29649132   7.523   7.309   4.271  0.1998 -0.3452 -0.4963
   59MOL   C29749133   7.371   7.289   4.239 -0.3199 -0.2189 -0.4135
   59MOL   C29849134   7.312   7.158   4.305  0.2093 -0.0405  0.1995
   59MOL   C29949135   7.182   7.134   4.233  0.1542  0.2997 -0.6278
   59MOL   C30049136   7.102   7.018   4.290  0.5872 -0.4904  0.0962
   59MOL   C30149137   7.173   6.879   4.275  0.2590  0.5178 -0.2933
   59MOL   C30249138   7.076   6.765   4.312 -1.0310  0.1550 -0.2392
   59MOL   C30349139   7.147   6.627   4.297 -0.3762 -0.1303 -0.4132
   59MOL   C30449140   7.277   6.620   4.372  0.9215 -0.4409 -0.1333
   59MOL   C30549141   7.321   6.480   4.402  0.8908  0.2193 -0.0537
   59MOL   C30649142   7.441   6.462   4.496 -0.1261 -0.0553 -0.5189
   59MOL   C30749143   7.436   6.350   4.592 -0.0817  0.4876  0.2045
   59MOL   C30849144   7.571   6.317   4.662  0.1820 -0.1450  0.0635
   59MOL   C30949145   7.668   6.259   4.557  0.4573 -0.3545  0.0486
   59MOL   H31049146   7.543   7.416   4.262 -2.2327  0.3727  2.0562
   59MOL   H31149147   7.536   7.292   4.378  0.8014  0.6452 -0.4012
   59MOL   H31249148   7.356   7.291   4.131 -1.4541 -0.1184 -0.2501
   59MOL   H31349149   7.309   7.167   4.414  0.2284 -0.7949  0.2609
   59MOL   H31449150   7.383   7.078   4.287 -0.0125  0.1632 -1.6765
   59MOL   H31549151   7.205   7.099   4.133 -1.4030 -2.8958  0.0708
   59MOL   H31649152   7.119   7.223   4.226 -2.2967 -1.1901  1.4263
   59MOL   H31749153   7.073   7.037   4.394  4.8062  0.6286  1.1458
   59MOL   H31849154   7.007   7.015   4.237 -0.1187  2.7488  1.0510
   59MOL   H31949155   7.260   6.885   4.340 -0.7344  0.0519  1.0910
   59MOL   H32049156   7.210   6.859   4.174  0.4194  2.8651 -0.7314
   59MOL   H32149157   7.059   6.785   4.418  3.0329  2.0233  0.1808
   59MOL   H32249158   6.984   6.766   4.254 -1.0516 -0.3479 -0.2165
   59MOL   H32349159   7.162   6.610   4.190 -0.3530  1.5259 -0.7019
   59MOL   H32449160   7.070   6.554   4.322 -1.0662 -0.8103 -4.2192
   59MOL   H32549161   7.362   6.673   4.330 -0.7223  1.3863 -1.1952
   59MOL   H32649162   7.263   6.676   4.464 -1.6532 -1.5308  0.1984
   59MOL   H32749163   7.354   6.425   4.314  2.1128 -1.2643  1.2884
   59MOL   H32849164   7.233   6.434   4.447  0.3650  0.5190 -0.7694
   59MOL   H32949165   7.439   6.548   4.564  0.4295 -0.3434 -0.1393
   59MOL   H33049166   7.537   6.472   4.446  0.5064 -0.0974  0.6508
   59MOL   H33149167   7.412   6.259   4.536  0.7215  1.6734 -2.1322
   59MOL   H33249168   7.352   6.366   4.660 -1.8603  0.9800 -2.0486
   59MOL   H33349169   7.551   6.241   4.737 -0.1958  0.3289  0.4377
   59MOL   H33449170   7.620   6.398   4.716  0.5243 -2.2966  3.0877
   59MOL   H33549171   7.688   6.334   4.481 -2.6061  0.6956  0.1879
   59MOL   H33649172   0.072   6.232   4.591  0.9115  0.9602 -0.1887
   59MOL   H33749173   7.622   6.178   4.500  0.9327 -0.7358  0.2071
   59MOL   C33849174   7.297   7.414   4.296  0.5852 -0.0488  0.1485
   59MOL   C33949175   7.257   7.523   4.192  0.8585  0.4922 -0.1853
   59MOL   C34049176   7.139   7.614   4.252  0.0925  0.6638  0.1310
   59MOL   C34149177   7.188   0.030   4.339 -0.2420  0.5024  0.6960
   59MOL   C34249178   7.081   0.137   4.358  0.0975 -0.0136 -0.5806
   59MOL   C34349179   7.126   0.259   4.443 -0.0696  0.8414  0.2485
   59MOL   C34449180   7.213   0.367   4.376  0.0492 -0.1556  0.7062
   59MOL   C34549181   7.121   0.471   4.303 -0.2901  0.4942  0.7696
   59MOL   C34649182   7.189   0.580   4.214  0.1795  0.2799 -0.1237
   59MOL   C34749183   7.277   0.672   4.303  0.2457  0.0017 -0.4451
   59MOL   C34849184   7.381   0.745   4.217  0.0624 -0.2030 -0.3977
   59MOL   C34949185   7.459   0.850   4.294 -0.2239  0.5621  0.0289
   59MOL   C35049186   7.565   0.915   4.204 -0.5798  0.4243  0.3183
   59MOL   C35149187   7.628   1.035   4.280 -0.5057  0.1936 -0.1525
   59MOL   H35249188   7.208   7.375   4.346  0.9078 -0.5379  0.3370
   59MOL   H35349189   7.362   7.455   4.373 -0.5496 -0.3281  1.2582
   59MOL   H35449190   7.214   7.471   4.106  1.7224 -0.4013 -0.0974
   59MOL   H35549191   7.067   7.644   4.176 -2.4513 -1.9687  1.3822
   59MOL   H35649192   7.078   7.542   4.306  1.6006 -2.3512 -1.9695
   59MOL   H35749193   7.264   0.078   4.277  0.0835  0.9979  1.4808
   59MOL   H35849194   7.219   7.683   4.434  0.5878 -1.4188 -0.4173
   59MOL   H35949195   7.007   0.081   4.415 -0.7388  0.4882 -1.1721
   59MOL   H36049196   7.043   0.181   4.266  1.4764 -1.1021 -1.7039
   59MOL   H36149197   7.038   0.301   4.491 -0.9303 -0.9233  0.2744
   59MOL   H36249198   7.188   0.213   4.519 -0.2172 -0.5556 -0.4595
   59MOL   H36349199   7.275   0.414   4.453 -1.4390 -0.5247  2.1550
   59MOL   H36449200   7.285   0.319   4.310 -0.5080 -0.6299  0.4433
   59MOL   H36549201   7.061   0.411   4.235  0.8067  0.5384 -0.2441
   59MOL   H36649202   7.070   0.520   4.386  1.9346  1.1426  1.8065
   59MOL   H36749203   7.258   0.531   4.146  0.7253  2.1782 -0.9663
   59MOL   H36849204   7.120   0.651   4.166 -0.2936  0.7871  1.2682
   59MOL   H36949205   7.212   0.735   4.364 -0.1119 -0.9804  0.2112
   59MOL   H37049206   7.314   0.615   4.389  0.3898 -0.7283 -0.9808
   59MOL   H37149207   7.340   0.801   4.133  0.8658  0.4223 -0.3787
   59MOL   H37249208   7.456   0.676   4.177 -0.9173 -3.4335  3.0317
   59MOL   H37349209   7.508   0.800   4.378  1.0069  0.6245 -0.6269
   59MOL   H37449210   7.390   0.928   4.324  0.0592  1.3041 -1.1655
   59MOL   H37549211   7.642   0.844   4.173 -1.1339 -1.1507  2.4694
   59MOL   H37649212   7.516   0.951   4.114  3.4095  2.4993 -1.1390
   59MOL   H37749213   7.568   1.120   4.314  2.1866  1.7391  0.9219
   59MOL   H37849214   7.664   0.994   4.375 -1.6863  0.0292  0.2327
   59MOL   H37949215   0.020   1.063   4.221 -0.3037  1.3799  0.6832
   59MOL   C38049216   7.379   7.593   4.120 -0.4720  0.4986  0.5203
   59MOL   C38149217   7.349   7.691   3.997 -0.3707 -0.2050 -0.1805
   59MOL   C38249218   7.480   0.072   3.972  0.2922  0.1287 -0.1141
   59MOL   C38349219   7.497   0.208   4.042 -0.7976 -0.7483  0.0348
   59MOL   C38449220   7.645   0.246   4.054 -0.4382  0.6466  0.3580
   59MOL   C38549221   7.680   0.382   4.121 -0.3308 -0.7830  0.0916
   59MOL   C38649222   7.632   0.411   4.261 -1.3628  0.0723  0.2226
   59MOL   C38749223   0.021   0.527   4.331 -0.4654 -0.1805 -0.2176
   59MOL   C38849224   7.670   0.578   4.464  0.0530  0.2052 -0.3813
   59MOL   C38949225   0.049   0.703   4.515 -0.2751 -0.9021 -0.1787
   59MOL   C39049226   7.691   0.747   4.654  0.3147  0.3710 -0.3954
   59MOL   C39149227   0.098   0.851   4.704  0.3384  0.0642  0.8662
   59MOL   C39249228   0.059   0.910   4.839  0.1886  0.2207 -0.1743
   59MOL   C39349229   0.146   1.035   4.872 -0.3056  0.1586 -0.1628
   59MOL   H39449230   7.448   7.515   4.091  0.8746  1.0204  2.2635
   59MOL   H39549231   7.423   7.649   4.202  0.2034  0.4337  0.2055
   59MOL   H39649232   7.269   0.064   4.026  0.9137  0.9910  0.5558
   59MOL   H39749233   7.496   0.088   3.865 -1.3295 -1.8935 -0.6794
   59MOL   H39849234   7.565   0.009   3.998  1.5429  0.9063 -2.1585
   59MOL   H39949235   7.455   0.195   4.142  3.4105  2.3781  2.3464
   59MOL   H40049236   7.440   0.283   3.987 -0.4419 -1.7735 -1.7507
   59MOL   H40149237   7.686   0.237   3.953 -0.1048 -0.2309  0.5634
   59MOL   H40249238   7.692   0.169   4.115 -0.9159 -2.2919 -2.8121
   59MOL   H40349239   7.650   0.466   4.059  0.5952  0.0430  0.7391
   59MOL   H40449240   0.093   0.387   4.118 -0.3037  0.2136  1.9759
   59MOL   H40549241   7.525   0.435   4.261 -1.2136  0.8159  2.0637
   59MOL   H40649242   7.638   0.322   4.324  3.0973 -0.4858 -0.8673
   59MOL   H40749243   0.123   0.489   4.343 -1.1210 -1.5318  1.2953
   59MOL   H40849244   0.039   0.617   4.273 -2.4592 -0.8832 -1.9958
   59MOL   H40949245   7.565   0.604   4.449 -0.0814  0.7151  1.3113
   59MOL   H41049246   7.674   0.491   4.529  0.2579 -0.1984 -0.9369
   59MOL   H41149247   0.048   0.788   4.446  1.5801 -0.5553  0.2119
   59MOL   H41249248   0.154   0.679   4.525 -0.6163 -1.8616  1.3048
   59MOL   H41349249   7.595   0.795   4.638  0.6889  1.1358 -0.3431
   59MOL   H41449250   7.692   0.664   4.725  0.0870  0.1916 -0.6015
   59MOL   H41549251   0.107   0.930   4.629  0.7801 -0.2461  0.5879
   59MOL   H41649252   0.195   0.803   4.716  0.9111  0.3578 -2.0332
   59MOL   H41749253   7.655   0.951   4.822 -0.1467  0.6490  2.6039
   59MOL   H41849254   0.060   0.837   4.920 -1.9934  0.9328  0.5379
   59MOL   H41949255   0.080   1.106   4.923 -0.1071 -0.9634  1.6910
   59MOL   H42049256   0.189   1.098   4.794 -0.9340 -1.0540 -1.5079
   59MOL   H42149257   0.223   1.018   4.946 -0.9405  2.0599  0.9831
   59MOL   C42249258   7.309   7.610   3.873  0.2428  0.6586  0.8213
   59MOL   C42349259   7.280   7.688   3.744 -0.1320  0.3749 -0.4050
   59MOL   C42449260   7.266   7.582   3.639 -0.1214 -0.5802 -0.3513
   59MOL   C42549261   7.401   7.518   3.587 -0.0662 -0.6321 -0.4792
   59MOL   C42649262   7.384   7.378   3.530 -0.3977  0.0828  0.2310
   59MOL   C42749263   7.521   7.306   3.516 -0.1021  0.6389 -0.0315
   59MOL   C42849264   7.562   7.234   3.647  0.6246  0.0563  0.2346
   59MOL   C42949265   7.686   7.148   3.629 -0.3616 -0.5411  0.7317
   59MOL   C43049266   0.050   7.088   3.757  0.4639 -0.1308  0.4065
   59MOL   C43149267   0.176   6.995   3.729  0.1912  0.5551  0.5855
   59MOL   C43249268   0.306   7.075   3.702  0.4347  0.5478  0.4359
   59MOL   C43349269   0.419   6.996   3.632 -1.0964  0.0613 -0.5456
   59MOL   C43449270   0.473   6.892   3.724 -0.4491  0.8215 -0.2699
   59MOL   C43549271   0.598   6.830   3.672  0.0634 -0.3389 -0.5026
   59MOL   H43649272   7.225   7.547   3.902 -0.6085  2.1059  1.5949
   59MOL   H43749273   7.388   7.536   3.862  0.6644  0.8984  2.1413
   59MOL   H43849274   7.366   0.054   3.717  0.3410  0.1669  0.5765
   59MOL   H43949275   7.209   7.618   3.553  0.2617 -1.2720 -0.9074
   59MOL   H44049276   7.207   7.497   3.674 -0.0439 -0.3123  0.4243
   59MOL   H44149277   7.436   7.586   3.509  1.7541 -0.0481  0.8133
   59MOL   H44249278   7.470   7.494   3.668  0.7986  1.6773 -0.4763
   59MOL   H44349279   7.330   7.386   3.436  0.2701 -2.1316 -0.3525
   59MOL   H44449280   7.321   7.323   3.600  1.4519  1.0995  2.7585
   59MOL   H44549281   7.600   7.374   3.482  0.0547  1.9550  2.8290
   59MOL   H44649282   7.503   7.228   3.442 -0.6255 -1.5638  2.3692
   59MOL   H44749283   7.578   7.304   3.729  1.4331  0.8468 -0.5828
   59MOL   H44849284   7.488   7.161   3.681 -1.0218  2.3130  1.6069
   59MOL   H44949285   7.661   7.071   3.556  0.9145 -1.9628  1.7763
   59MOL   H45049286   0.058   7.214   3.574  1.6615 -2.2371  1.1030
   59MOL   H45149287   0.080   7.170   3.822 -0.0368  1.2044 -1.0030
   59MOL   H45249288   7.673   7.027   3.810  0.6325 -1.0630 -0.4303
   59MOL   H45349289   0.193   6.934   3.818  0.4307  0.9851  0.8347
   59MOL   H45449290   0.142   6.923   3.655 -0.5828  0.0144  1.4555
   59MOL   H45549291   0.283   7.162   3.641  0.8574  0.3345 -0.0241
   59MOL   H45649292   0.345   7.115   3.796  1.2930  1.8071 -0.4390
   59MOL   H45749293   0.485   7.077   3.601  0.3748  0.1527  2.6635
   59MOL   H45849294   0.389   6.953   3.537  0.5138 -1.5472 -0.3657
   59MOL   H45949295   0.501   6.927   3.824  1.1034 -0.7134 -0.1547
   59MOL   H46049296   0.394   6.818   3.740 -1.4626  1.8594 -0.4317
   59MOL   H46149297   0.635   6.739   3.720 -0.9995 -0.4244  0.1615
   59MOL   H46249298   0.683   6.898   3.677 -0.2302 -0.1225  1.9463
   59MOL   H46349299   0.588   6.795   3.569 -0.8979 -0.9359 -0.2100
   59MOL   C46449300   7.144   0.057   3.765 -0.3339  0.1770  0.0285
   59MOL   C46549301   7.121   0.176   3.669  0.0074  0.4255 -0.3383
   59MOL   C46649302   6.970   0.206   3.642 -0.8242  0.7496  0.3418
   59MOL   C46749303   6.874   0.238   3.766 -0.0617 -0.1360 -0.7067
   59MOL   C46849304   6.729   0.217   3.745 -0.0596  0.2733 -0.2424
   59MOL   C46949305   6.641   0.244   3.864 -0.6194 -0.3727  0.4629
   59MOL   C47049306   6.486   0.232   3.851  0.5090 -0.1067  0.4745
   59MOL   C47149307   6.407   0.320   3.952  0.4971 -0.2661 -0.0175
   59MOL   C47249308   6.255   0.305   3.947 -0.1945 -0.2293  0.4928
   59MOL   C47349309   6.178   0.381   3.831  0.5870 -0.9979 -0.5913
   59MOL   C47449310   6.027   0.376   3.839 -0.2765 -0.7447 -0.4045
   59MOL   C47549311   5.951   0.440   3.728  0.8288 -0.1840  0.2262
   59MOL   C47649312   5.808   0.383   3.714  0.7035 -0.1992 -0.0868
   59MOL   C47749313   5.757   0.383   3.572 -0.1471 -0.6189  0.1452
   59MOL   H47849314   7.124   0.096   3.865 -3.8954 -0.9290 -0.2012
   59MOL   H47949315   7.066   7.678   3.760 -1.1254  0.9492  0.7006
   59MOL   H48049316   7.168   0.151   3.573  2.4526  0.7201  0.7458
   59MOL   H48149317   6.963   0.288   3.570 -0.5814  0.2050 -0.3027
   59MOL   H48249318   6.935   0.112   3.601  0.4571  1.2758 -2.0489
   59MOL   H48349319   6.897   0.342   3.790  0.9472  0.0224 -2.2448
   59MOL   H48449320   6.904   0.173   3.848 -2.3575 -0.9869 -0.5062
   59MOL   H48549321   6.734   0.116   3.704  1.2530  0.1904  0.0836
   59MOL   H48649322   6.710   0.285   3.662  1.3111  0.5741 -0.3311
   59MOL   H48749323   6.675   0.192   3.953 -0.1784  1.1031  1.1748
   59MOL   H48849324   6.664   0.350   3.873  1.9216 -0.8259 -0.2806
   59MOL   H48949325   6.455   0.255   3.749  1.5280 -0.6199  0.0397
   59MOL   H49049326   6.454   0.129   3.865  1.4927 -0.5703 -0.5883
   59MOL   H49149327   6.449   0.295   4.050 -0.5095  1.5274  0.8922
   59MOL   H49249328   6.427   0.427   3.939 -0.5353 -0.0748 -0.0446
   59MOL   H49349329   6.232   0.198   3.951  0.8964 -0.5532 -1.4841
   59MOL   H49449330   6.226   0.346   4.044 -0.0711  1.5467 -0.2146
   59MOL   H49549331   6.209   0.485   3.830 -0.2886 -0.7316 -0.5935
   59MOL   H49649332   6.215   0.349   3.733  1.7609  3.8959 -1.8471
   59MOL   H49749333   5.997   0.272   3.844 -0.6804 -0.7012 -1.9143
   59MOL   H49849334   5.993   0.403   3.939  1.9211 -0.4910  0.3052
   59MOL   H49949335   6.001   0.430   3.631  2.6844  0.8502  1.0464
   59MOL   H50049336   5.943   0.546   3.749  0.9056 -0.3531  1.1169
   59MOL   H50149337   5.806   0.281   3.752 -1.0650 -1.2165 -2.7348
   59MOL   H50249338   5.738   0.435   3.780  0.1230 -3.6765  2.1335
   59MOL   H50349339   5.831   0.339   3.505 -0.3454 -2.5151  1.1224
   59MOL   H50449340   5.664   0.329   3.558 -0.7763  0.3041  0.7274
   59MOL   H50549341   5.733   0.482   3.533  3.7556 -0.0279 -1.0233
   59MOL   C50649342   7.195   0.295   3.727  0.8380 -0.4346  0.3625
   59MOL   C50749343   7.207   0.425   3.632 -0.0129 -0.2962 -0.6602
   59MOL   C50849344   7.242   0.544   3.721  0.2653 -0.5061 -0.5351
   59MOL   C50949345   7.120   0.622   3.777  0.1962 -1.4793 -0.0759
   59MOL   C51049346   7.149   0.737   3.867 -0.2148 -0.1619  0.0433
   59MOL   C51149347   7.209   0.854   3.777  0.4842  0.4600 -0.3228
   59MOL   C51249348   7.272   0.961   3.856 -0.4624 -0.1399  0.0372
   59MOL   C51349349   7.323   1.078   3.768  0.3078  0.0718  0.5926
   59MOL   C51449350   7.457   1.053   3.703 -0.2998 -0.0952  0.5198
   59MOL   C51549351   7.509   1.170   3.621 -0.1973  0.1734 -0.6750
   59MOL   C51649352   7.431   1.215   3.495  0.2746 -0.3799  0.2386
   59MOL   C51749353   7.516   1.298   3.407  0.2868 -0.2825 -0.2761
   59MOL   C51849354   7.442   1.366   3.296 -0.2344  0.0651 -0.0962
   59MOL   C51949355   7.532   1.439   3.190 -0.0894 -0.1338  0.0919
   59MOL   H52049356   7.294   0.254   3.747  1.6080  1.1027 -0.2693
   59MOL   H52149357   7.151   0.323   3.823 -0.8005  0.9107 -0.7563
   59MOL   H52249358   7.105   0.452   3.605  0.1493 -0.2822 -1.2773
   59MOL   H52349359   7.294   0.497   3.805  1.2224  0.5901 -0.5030
   59MOL   H52449360   7.315   0.610   3.673  2.4467 -1.6823  1.0405
   59MOL   H52549361   7.065   0.665   3.693  1.7598 -0.3795 -0.5748
   59MOL   H52649362   7.050   0.556   3.827  2.0433 -2.6086  1.1024
   59MOL   H52749363   7.226   0.721   3.943 -1.6104 -1.3127  1.2582
   59MOL   H52849364   7.067   0.758   3.936  1.0139  1.6509  1.0003
   59MOL   H52949365   7.129   0.900   3.720  0.1582 -2.5052 -2.3609
   59MOL   H53049366   7.277   0.820   3.699 -0.0541 -1.2359 -0.0791
   59MOL   H53149367   7.196   0.993   3.928  1.0291  1.2988  1.0138
   59MOL   H53249368   7.360   0.926   3.910 -0.6960 -0.4631  0.2129
   59MOL   H53349369   7.347   1.166   3.827  2.6152 -1.2345  1.7074
   59MOL   H53449370   7.245   1.107   3.698  2.1494  2.4395 -0.5162
   59MOL   H53549371   7.463   0.967   3.637  1.5612  0.9070 -0.6478
   59MOL   H53649372   7.530   1.023   3.778 -1.2975 -1.5507  0.9516
   59MOL   H53749373   7.500   1.256   3.688 -1.2500  0.0297 -0.6165
   59MOL   H53849374   7.613   1.157   3.591 -0.0867  0.3435 -0.3750
   59MOL   H53949375   7.396   1.126   3.442  1.4338 -0.5602 -0.2432
   59MOL   H54049376   7.344   1.265   3.536 -0.2823 -1.0140 -0.1446
   59MOL   H54149377   7.597   1.233   3.375  0.2283  0.1479 -1.3321
   59MOL   H54249378   7.567   1.368   3.473  2.0433  0.6814 -2.5788
   59MOL   H54349379   7.381   1.440   3.348 -0.6189 -0.3550  0.0566
   59MOL   H54449380   7.379   1.294   3.243  0.5527 -0.6392 -0.0886
   59MOL   H54549381   7.585   1.365   3.131 -0.8453 -1.0409  0.5343
   59MOL   H54649382   7.482   1.511   3.126  1.1202 -0.6481 -1.4684
   59MOL   H54749383   7.602   1.512   3.231 -1.7080  1.4512  0.0938
   59MOL   C54849384   7.308   0.403   3.512  0.6244 -0.7938 -0.5642
   59MOL   C54949385   7.269   0.478   3.381  0.1693  0.5104  0.3886
   59MOL   C55049386   7.394   0.516   3.297  0.2090  0.5625  0.4757
   59MOL   C55149387   7.482   0.639   3.335 -0.1126 -0.3418  0.5233
   59MOL   C55249388   7.606   0.651   3.252 -0.6040 -0.1337 -0.8078
   59MOL   C55349389   0.012   0.763   3.307  0.4279 -0.1273  0.6426
   59MOL   C55449390   0.075   0.723   3.443 -0.4974  0.0396  0.0981
   59MOL   C55549391   0.113   0.853   3.528 -0.0266 -0.3407 -0.1426
   59MOL   C55649392   0.219   0.952   3.462  0.4877  0.8575  0.1881
   59MOL   C55749393   0.154   1.079   3.418  0.3914  0.0036  0.4606
   59MOL   C55849394   0.260   1.179   3.346  0.0235  0.4543  0.1940
   59MOL   C55949395   0.187   1.303   3.297  0.2889 -0.7545 -0.1637
   59MOL   C56049396   0.274   1.406   3.215  0.5636 -0.2076  0.4064
   59MOL   C56149397   0.185   1.527   3.186  0.4856  0.9159 -0.4684
   59MOL   H56249398   7.409   0.428   3.543  0.3791 -0.9750  0.4328
   59MOL   H56349399   7.315   0.296   3.491 -1.9247 -1.2483  0.6094
   59MOL   H56449400   7.228   0.574   3.410 -0.5364  0.6144 -0.9235
   59MOL   H56549401   7.448   0.421   3.295 -1.2442 -0.2494 -1.0425
   59MOL   H56649402   7.377   0.524   3.190  0.6118 -1.8628  0.2033
   59MOL   H56749403   7.508   0.618   3.438 -1.9116  0.3474  1.1332
   59MOL   H56849404   7.420   0.729   3.329  1.8290  0.9494 -0.9312
   59MOL   H56949405   7.663   0.559   3.246  0.7081  0.5364  0.9154
   59MOL   H57049406   7.575   0.671   3.149 -1.5099 -0.0760 -0.5308
   59MOL   H57149407   7.650   0.855   3.319  0.5253  0.2240 -1.4575
   59MOL   H57249408   0.089   0.780   3.233  0.2639  0.3172  0.5712
   59MOL   H57349409   0.011   0.657   3.500 -0.0249 -0.6179 -0.1299
   59MOL   H57449410   0.155   0.655   3.414  1.8433  2.3896  0.8327
   59MOL   H57549411   0.156   0.825   3.624  2.1729  0.5701 -0.8367
   59MOL   H57649412   0.022   0.906   3.557  1.0708  1.7631 -0.4887
   59MOL   H57749413   0.265   0.894   3.382  2.4524  0.7710  1.3416
   59MOL   H57849414   0.297   0.972   3.536  0.0088 -3.0503  1.9217
   59MOL   H57949415   0.088   1.057   3.334 -0.0023  0.6435  0.5953
   59MOL   H58049416   0.101   1.134   3.496  2.0511  0.9051  0.9764
   59MOL   H58149417   0.318   1.127   3.270 -0.9661 -1.4817  0.7405
   59MOL   H58249418   0.332   1.214   3.420 -0.0684  0.3403  0.3364
   59MOL   H58349419   0.106   1.270   3.232 -1.9379  0.8143  1.7176
   59MOL   H58449420   0.152   1.353   3.388  0.8946  2.6332 -1.7219
   59MOL   H58549421   0.356   1.454   3.270  0.4443  3.2959 -2.2609
   59MOL   H58649422   0.309   1.369   3.119 -2.2307  2.3685 -1.7073
   59MOL   H58749423   0.236   1.609   3.136 -2.7215  2.5587 -1.1479
   59MOL   H58849424   0.104   1.492   3.122  1.2159 -3.3457  0.7430
   59MOL   H58949425   0.138   1.562   3.278  0.1958  0.0459 -0.2799
   59MOL   C59049426   7.161   0.405   3.299  0.3647 -0.3384  0.6876
   59MOL   C59149427   7.070   0.493   3.213  0.0697  0.0638 -0.4419
   59MOL   C59249428   7.008   0.403   3.101 -0.5116 -0.3738  0.0158
   59MOL   C59349429   7.090   0.382   2.975 -0.3918  0.5008 -0.4891
   59MOL   C59449430   7.037   0.276   2.879 -0.7833  0.0569 -0.3663
   59MOL   C59549431   6.894   0.293   2.838 -0.2328  0.4678  0.2856
   59MOL   C59649432   6.849   0.198   2.729  0.7282 -0.7325 -0.5422
   59MOL   C59749433   6.705   0.239   2.685 -0.5722  0.1476 -0.0014
   59MOL   C59849434   6.660   0.133   2.576  0.0777  0.3883  0.0747
   59MOL   C59949435   6.517   0.175   2.520  0.7363 -0.8319  0.0570
   59MOL   C60049436   6.445   0.059   2.452  0.5922 -0.1321  0.8761
   59MOL   C60149437   6.313   0.110   2.390 -0.1013  0.3536 -0.0447
   59MOL   C60249438   6.207   0.008   2.340  0.5018  0.2479  0.4042
   59MOL   C60349439   6.213   7.687   2.186  0.0139 -0.3226  0.1599
   59MOL   H60449440   7.100   0.329   3.347 -0.2223 -2.3177 -3.0616
   59MOL   H60549441   7.216   0.349   3.223  0.0708 -0.8792  0.8729
   59MOL   H60649442   7.132   0.567   3.161  2.4972 -1.7302 -0.2129
   59MOL   H60749443   6.910   0.438   3.069 -0.5885  0.4851  1.1388
   59MOL   H60849444   6.975   0.303   3.131 -0.8112  0.1413  1.4397
   59MOL   H60949445   7.196   0.369   2.999 -0.3300  2.5409  0.4768
   59MOL   H61049446   7.094   0.473   2.915  0.5801  0.4111 -0.5752
   59MOL   H61149447   7.077   0.180   2.913 -0.1356  0.3537 -0.2665
   59MOL   H61249448   7.097   0.303   2.792 -0.5626  1.1541  0.1101
   59MOL   H61349449   6.867   0.395   2.814 -0.6743 -0.0229 -1.3726
   59MOL   H61449450   6.844   0.263   2.930 -1.9142  0.5516 -0.5893
   59MOL   H61549451   6.920   0.200   2.647  0.0923  3.2371 -1.0850
   59MOL   H61649452   6.851   0.093   2.760  4.5181 -0.6136 -0.1395
   59MOL   H61749453   6.639   0.242   2.771  0.5740 -0.9749  0.9349
   59MOL   H61849454   6.712   0.337   2.639  0.3306  0.8291  1.5525
   59MOL   H61949455   6.742   0.123   2.505  0.9307 -2.7401  1.3937
   59MOL   H62049456   6.658   0.038   2.630  0.6166  0.1494 -0.3274
   59MOL   H62149457   6.460   0.213   2.604  3.3924  0.5022  1.2965
   59MOL   H62249458   6.530   0.262   2.456 -1.6292  0.4958  1.3176
   59MOL   H62349459   6.428   7.681   2.531 -0.5372 -1.2236 -0.3618
   59MOL   H62449460   6.504   7.692   2.384  0.3491  0.3599  0.2101
   59MOL   H62549461   6.339   0.181   2.312  0.5352 -0.8047 -0.9046
   59MOL   H62649462   6.270   0.177   2.464  0.6963  0.0708  0.6835
   59MOL   H62749463   6.208   7.604   2.384  0.0878  0.1265  0.1380
   59MOL   H62849464   6.113   0.053   2.370 -0.4517  0.0213 -2.1304
   59MOL   H62949465   6.153   7.601   2.155  2.8577 -1.4795 -2.4143
   59MOL   H63049466   6.316   7.683   2.150 -0.3742 -0.4861 -0.9736
   59MOL   H63149467   6.185   0.085   2.138 -1.2540 -0.6080  0.3291
   59MOL   C63249468   6.958   0.554   3.296 -0.1146 -0.3695 -0.4042
   59MOL   C63349469   6.920   0.694   3.234 -1.0332  0.3592  0.6340
   59MOL   C63449470   6.778   0.745   3.277  0.2075  0.6646 -0.8283
   59MOL   C63549471   6.657   0.659   3.226  0.1444  0.1638 -0.2058
   59MOL   C63649472   6.663   0.652   3.068 -0.5455  0.1755 -0.2621
   59MOL   C63749473   6.538   0.593   3.010  0.2399  0.4526  0.6106
   59MOL   C63849474   6.531   0.604   2.860 -0.4848 -0.9196  0.9311
   59MOL   C63949475   6.396   0.569   2.796 -0.1714 -0.4796 -0.3221
   59MOL   C64049476   6.398   0.570   2.644  0.1666 -0.2310 -0.7320
   59MOL   C64149477   6.269   0.504   2.596 -0.0400  0.1818 -0.6220
   59MOL   C64249478   6.282   0.474   2.447 -0.0556 -0.1085 -0.3773
   59MOL   C64349479   6.277   0.598   2.352  0.3458  0.2220  0.3331
   59MOL   C64449480   6.312   0.559   2.217  0.3767 -0.1280 -0.1227
   59MOL   C64549481   6.465   0.570   2.180 -0.0253  0.1220  0.1600
   59MOL   H64649482   6.989   0.555   3.400  1.1432  0.1811 -0.7748
   59MOL   H64749483   6.876   0.483   3.295 -0.4544  0.0195 -2.4394
   59MOL   H64849484   6.918   0.681   3.126  2.5201 -0.7122  0.6464
   59MOL   H64949485   6.767   0.741   3.385 -0.0991  0.0866 -0.8812
   59MOL   H65049486   6.766   0.846   3.238  0.9924  0.8205 -0.6724
   59MOL   H65149487   6.566   0.708   3.259  0.6612  0.3128  1.0157
   59MOL   H65249488   6.649   0.559   3.269 -2.1330  0.6278  0.5316
   59MOL   H65349489   6.753   0.598   3.042 -0.0741  0.9929 -0.3544
   59MOL   H65449490   6.679   0.753   3.028 -2.8374  0.9577  0.6977
   59MOL   H65549491   6.543   0.491   3.047  1.1997  0.5345  0.7261
   59MOL   H65649492   6.446   0.619   3.062 -0.9534 -0.6296 -0.9127
   59MOL   H65749493   6.561   0.705   2.833 -0.5355 -1.2597 -0.4678
   59MOL   H65849494   6.613   0.544   2.820 -0.7571  0.9045 -2.5360
   59MOL   H65949495   6.319   0.634   2.837 -2.1539 -1.2441 -2.7326
   59MOL   H66049496   6.367   0.467   2.822  0.7969 -0.6629  0.0804
   59MOL   H66149497   6.468   0.501   2.597  0.9982  1.0842 -1.4798
   59MOL   H66249498   6.411   0.670   2.602 -0.1302  0.3510  0.5478
   59MOL   H66349499   6.269   0.405   2.641 -1.8977  0.9822  1.2161
   59MOL   H66449500   6.176   0.554   2.623  1.9556  3.6536  0.1546
   59MOL   H66549501   6.368   0.412   2.421  0.8017  0.7082  0.4817
   59MOL   H66649502   6.195   0.422   2.405 -1.1650  0.8968  0.6573
   59MOL   H66749503   6.350   0.674   2.380 -0.0303  0.7680 -0.1250
   59MOL   H66849504   6.179   0.646   2.346 -0.2966 -1.2863 -1.6642
   59MOL   H66949505   6.257   0.612   2.140  2.9775  0.2859 -1.7596
   59MOL   H67049506   6.267   0.463   2.192  1.4209 -1.2342  2.0498
   59MOL   H67149507   6.476   0.518   2.085  0.0995 -0.9963  0.7746
   59MOL   H67249508   6.501   0.671   2.164  1.8537 -0.5892 -0.2411
   59MOL   H67349509   6.527   0.525   2.257  0.7124  0.0706 -0.4534
   59MOL   C67449510   7.040   0.786   3.289 -0.2215 -0.0331  0.5176
   59MOL   C67549511   7.046   0.928   3.220  0.0411 -0.3211 -0.2098
   59MOL   C67649512   7.096   1.040   3.316  0.3492  0.2895 -0.0748
   59MOL   C67749513   6.979   1.088   3.416 -0.4388  0.3901 -0.1513
   59MOL   C67849514   6.879   1.178   3.351  0.2636 -0.1933  0.2872
   59MOL   C67949515   6.946   1.303   3.313  0.3026  0.3308 -0.3051
   59MOL   C68049516   6.849   1.426   3.302 -0.1398  0.3328 -0.3940
   59MOL   C68149517   6.875   1.519   3.192 -0.2445 -0.1254  1.0108
   59MOL   C68249518   7.020   1.579   3.174  0.6628  0.0320  0.4096
   59MOL   C68349519   7.025   1.718   3.096  0.3711  0.5994 -0.0898
   59MOL   C68449520   7.161   1.767   3.054  0.1508  0.5669 -0.0442
   59MOL   C68549521   7.140   1.905   2.979  0.3936 -0.1104 -0.1719
   59MOL   C68649522   7.276   1.989   2.983  0.7138  0.1562  0.2452
   59MOL   C68749523   7.256   2.128   2.920 -0.0814  0.0246  0.2091
   59MOL   H68849524   7.142   0.749   3.277  0.1077  1.1471 -0.4071
   59MOL   H68949525   7.026   0.800   3.396  0.0431  1.8268  0.3340
   59MOL   H69049526   6.948   0.951   3.179  0.1682 -1.7491 -1.3450
   59MOL   H69149527   7.164   0.989   3.384 -0.5822 -1.0719 -0.1242
   59MOL   H69249528   7.154   1.121   3.272 -0.1453  2.0867  2.5112
   59MOL   H69349529   6.927   1.009   3.470 -0.7143  1.0254  0.5345
   59MOL   H69449530   7.022   1.135   3.505  0.6930 -0.3510 -0.2963
   59MOL   H69549531   6.855   1.122   3.261  1.1232 -0.9664  0.5359
   59MOL   H69649532   6.795   1.204   3.416  0.6069  1.5445  0.0517
   59MOL   H69749533   7.025   1.334   3.381  0.7743 -0.2260 -0.6009
   59MOL   H69849534   6.994   1.293   3.216  1.5843  0.8424  0.2642
   59MOL   H69949535   6.747   1.394   3.284  0.8459 -2.7558 -0.7513
   59MOL   H70049536   6.855   1.487   3.392  0.3266 -1.6237  0.9178
   59MOL   H70149537   6.843   1.472   3.099  0.5224  0.2328  0.5669
   59MOL   H70249538   6.809   1.605   3.203 -1.1183 -0.8087  1.1262
   59MOL   H70349539   7.077   1.601   3.264  1.2282  1.3379 -0.2474
   59MOL   H70449540   7.081   1.505   3.122  0.1042 -0.2338  0.1306
   59MOL   H70549541   6.984   1.789   3.168  1.4483 -1.8860  3.0941
   59MOL   H70649542   6.952   1.720   3.014 -0.7858 -0.1678  0.8973
   59MOL   H70749543   7.201   1.691   2.988  0.7188  0.4287  0.4612
   59MOL   H70849544   7.226   1.789   3.138  0.8904  2.0684 -0.9998
   59MOL   H70949545   7.055   1.961   3.017  1.5091  1.4584  0.0652
   59MOL   H71049546   7.121   1.898   2.872  1.5214 -3.0841 -0.2269
   59MOL   H71149547   7.295   1.992   3.090 -1.8974 -1.8829  0.8042
   59MOL   H71249548   7.344   1.936   2.916  0.1323 -0.2223 -0.0495
   59MOL   H71349549   7.345   2.189   2.937  0.5372 -0.1980 -2.0230
   59MOL   H71449550   7.241   2.103   2.815 -2.4412  2.7260 -0.1365
   59MOL   H71549551   7.161   2.171   2.951 -0.0787  1.1412 -1.2961
   59MOL   C71649552   7.131   0.925   3.096  0.3256 -0.0009  0.3749
   59MOL   C71749553   7.089   1.025   2.985  0.2320  0.0717 -0.0318
   59MOL   C71849554   7.211   1.123   2.949  0.2323 -0.3619  0.9569
   59MOL   C71949555   7.188   1.232   2.846  0.0098 -0.1467  0.2358
   59MOL   C72049556   7.300   1.338   2.849  0.2624 -0.1654  0.4506
   59MOL   C72149557   7.285   1.439   2.735  0.3095  0.7097  0.3013
   59MOL   C72249558   7.384   1.553   2.734 -0.8148 -0.0185 -0.5419
   59MOL   C72349559   7.384   1.635   2.607  0.1602 -0.3178  0.4754
   59MOL   C72449560   7.245   1.698   2.569  0.0777  0.2346  0.0493
   59MOL   C72549561   7.236   1.744   2.420 -0.5888  0.4797  0.4159
   59MOL   C72649562   7.106   1.822   2.391 -0.3383  0.2068 -0.3052
   59MOL   C72749563   7.097   1.865   2.244  0.0591 -0.1659  0.2349
   59MOL   C72849564   7.193   1.973   2.193 -0.2087 -0.4830  0.3871
   59MOL   C72949565   7.157   2.033   2.059 -0.1113  0.3029  0.3131
   59MOL   H73049566   7.232   0.952   3.129  0.2728  0.5761  0.0678
   59MOL   H73149567   7.153   0.833   3.042 -0.7305 -0.4659  0.7376
   59MOL   H73249568   7.013   1.094   3.020  0.8046  0.3801  0.5885
   59MOL   H73349569   7.290   1.059   2.909  0.6897  0.0096  1.2598
   59MOL   H73449570   7.272   1.156   3.033  2.3052  0.5326 -0.8434
   59MOL   H73549571   7.185   1.184   2.748  1.2800 -1.1177  0.6555
   59MOL   H73649572   7.103   1.293   2.875  0.7567  0.6563  0.7672
   59MOL   H73749573   7.292   1.399   2.939 -0.0392 -0.2365  0.4743
   59MOL   H73849574   7.397   1.290   2.865 -0.6874 -1.7514  1.6404
   59MOL   H73949575   7.289   1.384   2.642  2.1044 -0.5783  1.1098
   59MOL   H74049576   7.179   1.462   2.741 -0.5409 -2.7312 -0.5341
   59MOL   H74149577   7.376   1.615   2.823  0.6755 -1.9334  0.9579
   59MOL   H74249578   7.479   1.501   2.748 -1.7436 -1.9143 -1.0231
   59MOL   H74349579   7.431   1.577   2.527 -0.1374 -0.2955  0.2825
   59MOL   H74449580   7.452   1.720   2.618  0.9462 -0.4246 -2.9493
   59MOL   H74549581   7.168   1.621   2.575 -0.6314  1.1142  3.4300
   59MOL   H74649582   7.217   1.777   2.638  0.5192  0.4623 -0.0296
   59MOL   H74749583   7.323   1.809   2.418 -0.4736  0.2922 -0.6783
   59MOL   H74849584   7.259   1.661   2.353 -0.9409  0.2654  0.5579
   59MOL   H74949585   7.021   1.758   2.411  0.4924 -1.1165 -0.9362
   59MOL   H75049586   7.092   1.911   2.452 -1.8721  0.3552 -0.8559
   59MOL   H75149587   7.103   1.773   2.185 -0.8244 -0.2588  0.2924
   59MOL   H75249588   6.993   1.891   2.227  0.6371  1.1286 -1.5479
   59MOL   H75349589   7.291   1.927   2.182  0.1670  0.7733 -1.9135
   59MOL   H75449590   7.206   2.054   2.264 -0.6248 -0.5143  0.4983
   59MOL   H75549591   7.137   1.951   1.990 -3.1503  1.4259 -0.2349
   59MOL   H75649592   7.248   2.086   2.031 -0.7149  0.6011 -1.1280
   59MOL   H75749593   7.071   2.099   2.068  1.8814  2.7161  2.3690
   59MOL   C75849594   7.020   0.967   2.859 -0.4221  0.3706  0.5404
   59MOL   C75949595   6.872   0.913   2.880  0.8972  0.1264  0.2884
   59MOL   C76049596   6.769   1.013   2.942  0.1601  0.3963 -0.2135
   59MOL   C76149597   6.760   1.147   2.877  0.3778  0.7160  0.3494
   59MOL   C76249598   6.624   1.212   2.904 -0.2685  0.9707 -0.4492
   59MOL   C76349599   6.612   1.273   3.048  0.0955 -0.2670 -0.1578
   59MOL   C76449600   6.472   1.327   3.074  0.0432 -0.2903  0.0451
   59MOL   C76549601   6.450   1.358   3.227 -0.7558  0.3943  0.1166
   59MOL   C76649602   6.306   1.402   3.263  0.0919  0.2596  0.0895
   59MOL   C76749603   6.269   1.381   3.407 -0.6558  0.5165 -0.7861
   59MOL   C76849604   6.137   1.461   3.441 -0.8380 -0.3442 -0.4874
   59MOL   C76949605   6.084   1.431   3.591  0.0430 -0.4099 -0.0929
   59MOL   C77049606   5.942   1.487   3.624  0.5696  0.2651  0.2930
   59MOL   C77149607   5.918   1.485   3.775  0.3064 -0.0983 -0.2421
   59MOL   H77249608   7.011   1.047   2.786  1.3564  0.4671  0.4165
   59MOL   H77349609   7.078   0.890   2.810 -1.9215  0.4333 -1.3870
   59MOL   H77449610   6.880   0.837   2.957 -0.4497  0.8599  1.1759
   59MOL   H77549611   6.670   0.970   2.957  0.1907  0.8619  1.3940
   59MOL   H77649612   6.808   1.025   3.043 -1.5352  1.0562  0.3867
   59MOL   H77749613   6.839   1.209   2.919  1.7179 -1.1968  0.6976
   59MOL   H77849614   6.780   1.142   2.770  0.1902 -3.3600  0.4150
   59MOL   H77949615   6.542   1.149   2.871  1.8676 -2.3494  0.4041
   59MOL   H78049616   6.607   1.298   2.839 -1.8746  0.6533 -0.4831
   59MOL   H78149617   6.683   1.354   3.059  0.0213  0.1749 -2.6061
   59MOL   H78249618   6.625   1.204   3.131 -2.3095  2.4969  2.6422
   59MOL   H78349619   6.444   1.415   3.017  0.5008 -0.3087 -0.2105
   59MOL   H78449620   6.400   1.248   3.054 -0.0039  0.1927 -1.7113
   59MOL   H78549621   6.520   1.430   3.270  1.3529 -1.8048  0.4549
   59MOL   H78649622   6.462   1.267   3.286  1.7053  0.6839  0.0855
   59MOL   H78749623   6.234   1.346   3.204  0.8904 -1.2465  0.5084
   59MOL   H78849624   6.300   1.508   3.236  1.7155  0.8295  1.8206
   59MOL   H78949625   6.354   1.412   3.467  0.4274 -3.1681 -0.2761
   59MOL   H79049626   6.260   1.276   3.435  1.2007  0.8283  1.1049
   59MOL   H79149627   6.161   1.567   3.449 -2.1352 -0.1876  1.8239
   59MOL   H79249628   6.059   1.446   3.365 -0.5359  0.8888 -1.0582
   59MOL   H79349629   6.109   1.328   3.614  0.5263 -0.0360  1.1404
   59MOL   H79449630   6.157   1.475   3.660 -3.1325  1.9002  1.9478
   59MOL   H79549631   5.938   1.592   3.597  1.5450  0.2546  0.0876
   59MOL   H79649632   5.861   1.433   3.575  0.6823  0.6450 -0.3203
   59MOL   H79749633   6.004   1.527   3.827 -0.1110 -0.6128  0.8965
   59MOL   H79849634   5.842   1.552   3.815 -0.4822  0.1588 -2.1496
   59MOL   H79949635   5.912   1.382   3.811 -0.1362  0.7530  2.2180
   59MOL   C80049636   6.819   0.843   2.753  0.2502  0.2649  0.0379
   59MOL   C80149637   6.863   0.689   2.742  0.0689 -0.4443 -0.6238
   59MOL   C80249638   6.813   0.629   2.608  0.2211  0.3949  0.3089
   59MOL   C80349639   6.871   0.694   2.479  0.4225  0.5782 -0.7437
   59MOL   C80449640   6.827   0.615   2.355 -0.1665  0.0745  0.5465
   59MOL   C80549641   6.869   0.669   2.216 -0.1375 -0.0183  0.1104
   59MOL   C80649642   6.855   0.569   2.107 -0.2193 -0.1341  0.1493
   59MOL   C80749643   6.840   0.636   1.975 -0.1047  0.0316 -0.5799
   59MOL   C80849644   6.876   0.545   1.861  0.1144 -0.5004  0.5429
   59MOL   C80949645   6.841   0.588   1.719 -0.7511 -0.4246 -0.3444
   59MOL   C81049646   6.853   0.484   1.614 -1.0283  0.3827 -0.2053
   59MOL   C81149647   6.815   0.526   1.473  0.0169 -0.0861 -0.4780
   59MOL   C81249648   6.885   0.441   1.369 -1.5041  0.2477 -0.5331
   59MOL   C81349649   6.819   0.470   1.236  0.6910  0.5538 -0.0037
   59MOL   H81449650   6.845   0.895   2.660  0.7599 -0.8728 -0.4716
   59MOL   H81549651   6.710   0.845   2.750  0.2416  1.1016  0.7160
   59MOL   H81649652   6.838   0.623   2.824 -1.0723 -0.1523 -0.7383
   59MOL   H81749653   6.704   0.629   2.601  0.2246 -1.2157 -0.1179
   59MOL   H81849654   6.859   0.530   2.615 -0.8451 -0.1536 -0.1786
   59MOL   H81949655   6.980   0.699   2.475  0.4729 -0.2100 -0.2893
   59MOL   H82049656   6.852   0.801   2.471 -1.7409  0.4308  1.7453
   59MOL   H82149657   6.870   0.514   2.359 -3.0791 -1.2898 -1.0981
   59MOL   H82249658   6.720   0.599   2.363  0.0180 -1.3236  0.4675
   59MOL   H82349659   6.974   0.694   2.227 -0.0511 -0.2313 -0.2161
   59MOL   H82449660   6.817   0.764   2.205 -0.2110 -0.0174  0.4813
   59MOL   H82549661   6.948   0.512   2.104  1.6529  2.8156 -0.4692
   59MOL   H82649662   6.775   0.497   2.122  1.2294 -1.8267 -0.0812
   59MOL   H82749663   6.740   0.681   1.967 -0.5768 -0.8111  0.4158
   59MOL   H82849664   6.911   0.718   1.976  0.8972 -0.8343 -0.5952
   59MOL   H82949665   6.983   0.521   1.866  0.1202 -1.1004 -1.8702
   59MOL   H83049666   6.837   0.446   1.885  0.9599 -0.6181  1.4990
   59MOL   H83149667   6.909   0.671   1.699  2.9827 -3.4802 -0.8828
   59MOL   H83249668   6.737   0.621   1.713 -1.4201 -2.4523 -0.1754
   59MOL   H83349669   6.960   0.462   1.610 -0.7451  1.7223 -0.1765
   59MOL   H83449670   6.800   0.392   1.640 -1.7251  0.1168 -2.4975
   59MOL   H83549671   6.824   0.633   1.451 -2.0915  0.0125 -0.9539
   59MOL   H83649672   6.707   0.508   1.477  0.4520 -2.9078 -0.4508
   59MOL   H83749673   6.989   0.472   1.360 -1.7169  1.5403  1.1290
   59MOL   H83849674   6.880   0.334   1.391  0.4642  0.5624  1.6523
   59MOL   H83949675   6.874   0.412   1.162 -2.1186  0.3880 -2.0451
   59MOL   H84049676   6.712   0.452   1.232  0.9700 -1.1846  0.1969
   59MOL   H84149677   6.835   0.572   1.202 -0.1225  0.2198 -1.3979
   59MOL   H84249678   6.970   0.673   2.723  0.2825 -0.0117  0.2021
   7.69555   7.69555   7.69555
