;
; Gromacs include topology (itp) file.
; For Molecular Group XYZ
; Force field scheme: opls2005
; Produced from DL_FIELD v4.11
;


[ moleculetype ]
; name    nrexcl
XYZ    3

[ atoms ]
; nr   type   resnr   residu    atom    cgnr    charge    mass
    1        CT    1  MOL      C1     1  -0.1800000   12.0115
    2        CT    1  MOL      C2     2  -0.0600000   12.0115
    3        CT    1  MOL      C3     3  -0.1200000   12.0115
    4        CT    1  MOL      C4     4  -0.1200000   12.0115
    5        CT    1  MOL      C5     5  -0.1200000   12.0115
    6        CT    1  MOL      C6     6  -0.1200000   12.0115
    7        CT    1  MOL      C7     7  -0.1200000   12.0115
    8        CT    1  MOL      C8     8  -0.1200000   12.0115
    9        CT    1  MOL      C9     9  -0.1200000   12.0115
   10        CT    1  MOL     C10    10  -0.1200000   12.0115
   11        CT    1  MOL     C11    11  -0.1200000   12.0115
   12        CT    1  MOL     C12    12  -0.1200000   12.0115
   13        CT    1  MOL     C13    13  -0.1200000   12.0115
   14        CT    1  MOL     C14    14  -0.1800000   12.0115
   15        HC    1  MOL     H15    15   0.0600000    1.0080
   16        HC    1  MOL     H16    16   0.0600000    1.0080
   17        HC    1  MOL     H17    17   0.0600000    1.0080
   18        HC    1  MOL     H18    18   0.0600000    1.0080
   19        HC    1  MOL     H19    19   0.0600000    1.0080
   20        HC    1  MOL     H20    20   0.0600000    1.0080
   21        HC    1  MOL     H21    21   0.0600000    1.0080
   22        HC    1  MOL     H22    22   0.0600000    1.0080
   23        HC    1  MOL     H23    23   0.0600000    1.0080
   24        HC    1  MOL     H24    24   0.0600000    1.0080
   25        HC    1  MOL     H25    25   0.0600000    1.0080
   26        HC    1  MOL     H26    26   0.0600000    1.0080
   27        HC    1  MOL     H27    27   0.0600000    1.0080
   28        HC    1  MOL     H28    28   0.0600000    1.0080
   29        HC    1  MOL     H29    29   0.0600000    1.0080
   30        HC    1  MOL     H30    30   0.0600000    1.0080
   31        HC    1  MOL     H31    31   0.0600000    1.0080
   32        HC    1  MOL     H32    32   0.0600000    1.0080
   33        HC    1  MOL     H33    33   0.0600000    1.0080
   34        HC    1  MOL     H34    34   0.0600000    1.0080
   35        HC    1  MOL     H35    35   0.0600000    1.0080
   36        HC    1  MOL     H36    36   0.0600000    1.0080
   37        HC    1  MOL     H37    37   0.0600000    1.0080
   38        HC    1  MOL     H38    38   0.0600000    1.0080
   39        HC    1  MOL     H39    39   0.0600000    1.0080
   40        HC    1  MOL     H40    40   0.0600000    1.0080
   41        HC    1  MOL     H41    41   0.0600000    1.0080
   42        HC    1  MOL     H42    42   0.0600000    1.0080
   43        HC    1  MOL     H43    43   0.0600000    1.0080
   44        CT    1  MOL     C44    44  -0.1200000   12.0115
   45        CT    1  MOL     C45    45  -0.0600000   12.0115
   46        CT    1  MOL     C46    46  -0.1200000   12.0115
   47        CT    1  MOL     C47    47  -0.1200000   12.0115
   48        CT    1  MOL     C48    48  -0.1200000   12.0115
   49        CT    1  MOL     C49    49  -0.1200000   12.0115
   50        CT    1  MOL     C50    50  -0.1200000   12.0115
   51        CT    1  MOL     C51    51  -0.1200000   12.0115
   52        CT    1  MOL     C52    52  -0.1200000   12.0115
   53        CT    1  MOL     C53    53  -0.1200000   12.0115
   54        CT    1  MOL     C54    54  -0.1200000   12.0115
   55        CT    1  MOL     C55    55  -0.1200000   12.0115
   56        CT    1  MOL     C56    56  -0.1200000   12.0115
   57        CT    1  MOL     C57    57  -0.1800000   12.0115
   58        HC    1  MOL     H58    58   0.0600000    1.0080
   59        HC    1  MOL     H59    59   0.0600000    1.0080
   60        HC    1  MOL     H60    60   0.0600000    1.0080
   61        HC    1  MOL     H61    61   0.0600000    1.0080
   62        HC    1  MOL     H62    62   0.0600000    1.0080
   63        HC    1  MOL     H63    63   0.0600000    1.0080
   64        HC    1  MOL     H64    64   0.0600000    1.0080
   65        HC    1  MOL     H65    65   0.0600000    1.0080
   66        HC    1  MOL     H66    66   0.0600000    1.0080
   67        HC    1  MOL     H67    67   0.0600000    1.0080
   68        HC    1  MOL     H68    68   0.0600000    1.0080
   69        HC    1  MOL     H69    69   0.0600000    1.0080
   70        HC    1  MOL     H70    70   0.0600000    1.0080
   71        HC    1  MOL     H71    71   0.0600000    1.0080
   72        HC    1  MOL     H72    72   0.0600000    1.0080
   73        HC    1  MOL     H73    73   0.0600000    1.0080
   74        HC    1  MOL     H74    74   0.0600000    1.0080
   75        HC    1  MOL     H75    75   0.0600000    1.0080
   76        HC    1  MOL     H76    76   0.0600000    1.0080
   77        HC    1  MOL     H77    77   0.0600000    1.0080
   78        HC    1  MOL     H78    78   0.0600000    1.0080
   79        HC    1  MOL     H79    79   0.0600000    1.0080
   80        HC    1  MOL     H80    80   0.0600000    1.0080
   81        HC    1  MOL     H81    81   0.0600000    1.0080
   82        HC    1  MOL     H82    82   0.0600000    1.0080
   83        HC    1  MOL     H83    83   0.0600000    1.0080
   84        HC    1  MOL     H84    84   0.0600000    1.0080
   85        HC    1  MOL     H85    85   0.0600000    1.0080
   86        CT    1  MOL     C86    86  -0.1200000   12.0115
   87        CT    1  MOL     C87    87  -0.0600000   12.0115
   88        CT    1  MOL     C88    88  -0.1200000   12.0115
   89        CT    1  MOL     C89    89  -0.1200000   12.0115
   90        CT    1  MOL     C90    90  -0.1200000   12.0115
   91        CT    1  MOL     C91    91  -0.1200000   12.0115
   92        CT    1  MOL     C92    92  -0.1200000   12.0115
   93        CT    1  MOL     C93    93  -0.1200000   12.0115
   94        CT    1  MOL     C94    94  -0.1200000   12.0115
   95        CT    1  MOL     C95    95  -0.1200000   12.0115
   96        CT    1  MOL     C96    96  -0.1200000   12.0115
   97        CT    1  MOL     C97    97  -0.1200000   12.0115
   98        CT    1  MOL     C98    98  -0.1200000   12.0115
   99        CT    1  MOL     C99    99  -0.1800000   12.0115
  100        HC    1  MOL    H100   100   0.0600000    1.0080
  101        HC    1  MOL    H101   101   0.0600000    1.0080
  102        HC    1  MOL    H102   102   0.0600000    1.0080
  103        HC    1  MOL    H103   103   0.0600000    1.0080
  104        HC    1  MOL    H104   104   0.0600000    1.0080
  105        HC    1  MOL    H105   105   0.0600000    1.0080
  106        HC    1  MOL    H106   106   0.0600000    1.0080
  107        HC    1  MOL    H107   107   0.0600000    1.0080
  108        HC    1  MOL    H108   108   0.0600000    1.0080
  109        HC    1  MOL    H109   109   0.0600000    1.0080
  110        HC    1  MOL    H110   110   0.0600000    1.0080
  111        HC    1  MOL    H111   111   0.0600000    1.0080
  112        HC    1  MOL    H112   112   0.0600000    1.0080
  113        HC    1  MOL    H113   113   0.0600000    1.0080
  114        HC    1  MOL    H114   114   0.0600000    1.0080
  115        HC    1  MOL    H115   115   0.0600000    1.0080
  116        HC    1  MOL    H116   116   0.0600000    1.0080
  117        HC    1  MOL    H117   117   0.0600000    1.0080
  118        HC    1  MOL    H118   118   0.0600000    1.0080
  119        HC    1  MOL    H119   119   0.0600000    1.0080
  120        HC    1  MOL    H120   120   0.0600000    1.0080
  121        HC    1  MOL    H121   121   0.0600000    1.0080
  122        HC    1  MOL    H122   122   0.0600000    1.0080
  123        HC    1  MOL    H123   123   0.0600000    1.0080
  124        HC    1  MOL    H124   124   0.0600000    1.0080
  125        HC    1  MOL    H125   125   0.0600000    1.0080
  126        HC    1  MOL    H126   126   0.0600000    1.0080
  127        HC    1  MOL    H127   127   0.0600000    1.0080
  128        CT    1  MOL    C128   128  -0.1200000   12.0115
  129        CT    1  MOL    C129   129  -0.0600000   12.0115
  130        CT    1  MOL    C130   130  -0.1200000   12.0115
  131        CT    1  MOL    C131   131  -0.1200000   12.0115
  132        CT    1  MOL    C132   132  -0.1200000   12.0115
  133        CT    1  MOL    C133   133  -0.1200000   12.0115
  134        CT    1  MOL    C134   134  -0.1200000   12.0115
  135        CT    1  MOL    C135   135  -0.1200000   12.0115
  136        CT    1  MOL    C136   136  -0.1200000   12.0115
  137        CT    1  MOL    C137   137  -0.1200000   12.0115
  138        CT    1  MOL    C138   138  -0.1200000   12.0115
  139        CT    1  MOL    C139   139  -0.1200000   12.0115
  140        CT    1  MOL    C140   140  -0.1200000   12.0115
  141        CT    1  MOL    C141   141  -0.1800000   12.0115
  142        HC    1  MOL    H142   142   0.0600000    1.0080
  143        HC    1  MOL    H143   143   0.0600000    1.0080
  144        HC    1  MOL    H144   144   0.0600000    1.0080
  145        HC    1  MOL    H145   145   0.0600000    1.0080
  146        HC    1  MOL    H146   146   0.0600000    1.0080
  147        HC    1  MOL    H147   147   0.0600000    1.0080
  148        HC    1  MOL    H148   148   0.0600000    1.0080
  149        HC    1  MOL    H149   149   0.0600000    1.0080
  150        HC    1  MOL    H150   150   0.0600000    1.0080
  151        HC    1  MOL    H151   151   0.0600000    1.0080
  152        HC    1  MOL    H152   152   0.0600000    1.0080
  153        HC    1  MOL    H153   153   0.0600000    1.0080
  154        HC    1  MOL    H154   154   0.0600000    1.0080
  155        HC    1  MOL    H155   155   0.0600000    1.0080
  156        HC    1  MOL    H156   156   0.0600000    1.0080
  157        HC    1  MOL    H157   157   0.0600000    1.0080
  158        HC    1  MOL    H158   158   0.0600000    1.0080
  159        HC    1  MOL    H159   159   0.0600000    1.0080
  160        HC    1  MOL    H160   160   0.0600000    1.0080
  161        HC    1  MOL    H161   161   0.0600000    1.0080
  162        HC    1  MOL    H162   162   0.0600000    1.0080
  163        HC    1  MOL    H163   163   0.0600000    1.0080
  164        HC    1  MOL    H164   164   0.0600000    1.0080
  165        HC    1  MOL    H165   165   0.0600000    1.0080
  166        HC    1  MOL    H166   166   0.0600000    1.0080
  167        HC    1  MOL    H167   167   0.0600000    1.0080
  168        HC    1  MOL    H168   168   0.0600000    1.0080
  169        HC    1  MOL    H169   169   0.0600000    1.0080
  170        CT    1  MOL    C170   170  -0.1200000   12.0115
  171        CT    1  MOL    C171   171  -0.0600000   12.0115
  172        CT    1  MOL    C172   172  -0.1200000   12.0115
  173        CT    1  MOL    C173   173  -0.1200000   12.0115
  174        CT    1  MOL    C174   174  -0.1200000   12.0115
  175        CT    1  MOL    C175   175  -0.1200000   12.0115
  176        CT    1  MOL    C176   176  -0.1200000   12.0115
  177        CT    1  MOL    C177   177  -0.1200000   12.0115
  178        CT    1  MOL    C178   178  -0.1200000   12.0115
  179        CT    1  MOL    C179   179  -0.1200000   12.0115
  180        CT    1  MOL    C180   180  -0.1200000   12.0115
  181        CT    1  MOL    C181   181  -0.1200000   12.0115
  182        CT    1  MOL    C182   182  -0.1200000   12.0115
  183        CT    1  MOL    C183   183  -0.1800000   12.0115
  184        HC    1  MOL    H184   184   0.0600000    1.0080
  185        HC    1  MOL    H185   185   0.0600000    1.0080
  186        HC    1  MOL    H186   186   0.0600000    1.0080
  187        HC    1  MOL    H187   187   0.0600000    1.0080
  188        HC    1  MOL    H188   188   0.0600000    1.0080
  189        HC    1  MOL    H189   189   0.0600000    1.0080
  190        HC    1  MOL    H190   190   0.0600000    1.0080
  191        HC    1  MOL    H191   191   0.0600000    1.0080
  192        HC    1  MOL    H192   192   0.0600000    1.0080
  193        HC    1  MOL    H193   193   0.0600000    1.0080
  194        HC    1  MOL    H194   194   0.0600000    1.0080
  195        HC    1  MOL    H195   195   0.0600000    1.0080
  196        HC    1  MOL    H196   196   0.0600000    1.0080
  197        HC    1  MOL    H197   197   0.0600000    1.0080
  198        HC    1  MOL    H198   198   0.0600000    1.0080
  199        HC    1  MOL    H199   199   0.0600000    1.0080
  200        HC    1  MOL    H200   200   0.0600000    1.0080
  201        HC    1  MOL    H201   201   0.0600000    1.0080
  202        HC    1  MOL    H202   202   0.0600000    1.0080
  203        HC    1  MOL    H203   203   0.0600000    1.0080
  204        HC    1  MOL    H204   204   0.0600000    1.0080
  205        HC    1  MOL    H205   205   0.0600000    1.0080
  206        HC    1  MOL    H206   206   0.0600000    1.0080
  207        HC    1  MOL    H207   207   0.0600000    1.0080
  208        HC    1  MOL    H208   208   0.0600000    1.0080
  209        HC    1  MOL    H209   209   0.0600000    1.0080
  210        HC    1  MOL    H210   210   0.0600000    1.0080
  211        HC    1  MOL    H211   211   0.0600000    1.0080
  212        CT    1  MOL    C212   212  -0.1200000   12.0115
  213        CT    1  MOL    C213   213  -0.0600000   12.0115
  214        CT    1  MOL    C214   214  -0.1200000   12.0115
  215        CT    1  MOL    C215   215  -0.1200000   12.0115
  216        CT    1  MOL    C216   216  -0.1200000   12.0115
  217        CT    1  MOL    C217   217  -0.1200000   12.0115
  218        CT    1  MOL    C218   218  -0.1200000   12.0115
  219        CT    1  MOL    C219   219  -0.1200000   12.0115
  220        CT    1  MOL    C220   220  -0.1200000   12.0115
  221        CT    1  MOL    C221   221  -0.1200000   12.0115
  222        CT    1  MOL    C222   222  -0.1200000   12.0115
  223        CT    1  MOL    C223   223  -0.1200000   12.0115
  224        CT    1  MOL    C224   224  -0.1200000   12.0115
  225        CT    1  MOL    C225   225  -0.1800000   12.0115
  226        HC    1  MOL    H226   226   0.0600000    1.0080
  227        HC    1  MOL    H227   227   0.0600000    1.0080
  228        HC    1  MOL    H228   228   0.0600000    1.0080
  229        HC    1  MOL    H229   229   0.0600000    1.0080
  230        HC    1  MOL    H230   230   0.0600000    1.0080
  231        HC    1  MOL    H231   231   0.0600000    1.0080
  232        HC    1  MOL    H232   232   0.0600000    1.0080
  233        HC    1  MOL    H233   233   0.0600000    1.0080
  234        HC    1  MOL    H234   234   0.0600000    1.0080
  235        HC    1  MOL    H235   235   0.0600000    1.0080
  236        HC    1  MOL    H236   236   0.0600000    1.0080
  237        HC    1  MOL    H237   237   0.0600000    1.0080
  238        HC    1  MOL    H238   238   0.0600000    1.0080
  239        HC    1  MOL    H239   239   0.0600000    1.0080
  240        HC    1  MOL    H240   240   0.0600000    1.0080
  241        HC    1  MOL    H241   241   0.0600000    1.0080
  242        HC    1  MOL    H242   242   0.0600000    1.0080
  243        HC    1  MOL    H243   243   0.0600000    1.0080
  244        HC    1  MOL    H244   244   0.0600000    1.0080
  245        HC    1  MOL    H245   245   0.0600000    1.0080
  246        HC    1  MOL    H246   246   0.0600000    1.0080
  247        HC    1  MOL    H247   247   0.0600000    1.0080
  248        HC    1  MOL    H248   248   0.0600000    1.0080
  249        HC    1  MOL    H249   249   0.0600000    1.0080
  250        HC    1  MOL    H250   250   0.0600000    1.0080
  251        HC    1  MOL    H251   251   0.0600000    1.0080
  252        HC    1  MOL    H252   252   0.0600000    1.0080
  253        HC    1  MOL    H253   253   0.0600000    1.0080
  254        CT    1  MOL    C254   254  -0.1200000   12.0115
  255        CT    1  MOL    C255   255  -0.0600000   12.0115
  256        CT    1  MOL    C256   256  -0.1200000   12.0115
  257        CT    1  MOL    C257   257  -0.1200000   12.0115
  258        CT    1  MOL    C258   258  -0.1200000   12.0115
  259        CT    1  MOL    C259   259  -0.1200000   12.0115
  260        CT    1  MOL    C260   260  -0.1200000   12.0115
  261        CT    1  MOL    C261   261  -0.1200000   12.0115
  262        CT    1  MOL    C262   262  -0.1200000   12.0115
  263        CT    1  MOL    C263   263  -0.1200000   12.0115
  264        CT    1  MOL    C264   264  -0.1200000   12.0115
  265        CT    1  MOL    C265   265  -0.1200000   12.0115
  266        CT    1  MOL    C266   266  -0.1200000   12.0115
  267        CT    1  MOL    C267   267  -0.1800000   12.0115
  268        HC    1  MOL    H268   268   0.0600000    1.0080
  269        HC    1  MOL    H269   269   0.0600000    1.0080
  270        HC    1  MOL    H270   270   0.0600000    1.0080
  271        HC    1  MOL    H271   271   0.0600000    1.0080
  272        HC    1  MOL    H272   272   0.0600000    1.0080
  273        HC    1  MOL    H273   273   0.0600000    1.0080
  274        HC    1  MOL    H274   274   0.0600000    1.0080
  275        HC    1  MOL    H275   275   0.0600000    1.0080
  276        HC    1  MOL    H276   276   0.0600000    1.0080
  277        HC    1  MOL    H277   277   0.0600000    1.0080
  278        HC    1  MOL    H278   278   0.0600000    1.0080
  279        HC    1  MOL    H279   279   0.0600000    1.0080
  280        HC    1  MOL    H280   280   0.0600000    1.0080
  281        HC    1  MOL    H281   281   0.0600000    1.0080
  282        HC    1  MOL    H282   282   0.0600000    1.0080
  283        HC    1  MOL    H283   283   0.0600000    1.0080
  284        HC    1  MOL    H284   284   0.0600000    1.0080
  285        HC    1  MOL    H285   285   0.0600000    1.0080
  286        HC    1  MOL    H286   286   0.0600000    1.0080
  287        HC    1  MOL    H287   287   0.0600000    1.0080
  288        HC    1  MOL    H288   288   0.0600000    1.0080
  289        HC    1  MOL    H289   289   0.0600000    1.0080
  290        HC    1  MOL    H290   290   0.0600000    1.0080
  291        HC    1  MOL    H291   291   0.0600000    1.0080
  292        HC    1  MOL    H292   292   0.0600000    1.0080
  293        HC    1  MOL    H293   293   0.0600000    1.0080
  294        HC    1  MOL    H294   294   0.0600000    1.0080
  295        HC    1  MOL    H295   295   0.0600000    1.0080
  296        CT    1  MOL    C296   296  -0.1200000   12.0115
  297        CT    1  MOL    C297   297  -0.0600000   12.0115
  298        CT    1  MOL    C298   298  -0.1200000   12.0115
  299        CT    1  MOL    C299   299  -0.1200000   12.0115
  300        CT    1  MOL    C300   300  -0.1200000   12.0115
  301        CT    1  MOL    C301   301  -0.1200000   12.0115
  302        CT    1  MOL    C302   302  -0.1200000   12.0115
  303        CT    1  MOL    C303   303  -0.1200000   12.0115
  304        CT    1  MOL    C304   304  -0.1200000   12.0115
  305        CT    1  MOL    C305   305  -0.1200000   12.0115
  306        CT    1  MOL    C306   306  -0.1200000   12.0115
  307        CT    1  MOL    C307   307  -0.1200000   12.0115
  308        CT    1  MOL    C308   308  -0.1200000   12.0115
  309        CT    1  MOL    C309   309  -0.1800000   12.0115
  310        HC    1  MOL    H310   310   0.0600000    1.0080
  311        HC    1  MOL    H311   311   0.0600000    1.0080
  312        HC    1  MOL    H312   312   0.0600000    1.0080
  313        HC    1  MOL    H313   313   0.0600000    1.0080
  314        HC    1  MOL    H314   314   0.0600000    1.0080
  315        HC    1  MOL    H315   315   0.0600000    1.0080
  316        HC    1  MOL    H316   316   0.0600000    1.0080
  317        HC    1  MOL    H317   317   0.0600000    1.0080
  318        HC    1  MOL    H318   318   0.0600000    1.0080
  319        HC    1  MOL    H319   319   0.0600000    1.0080
  320        HC    1  MOL    H320   320   0.0600000    1.0080
  321        HC    1  MOL    H321   321   0.0600000    1.0080
  322        HC    1  MOL    H322   322   0.0600000    1.0080
  323        HC    1  MOL    H323   323   0.0600000    1.0080
  324        HC    1  MOL    H324   324   0.0600000    1.0080
  325        HC    1  MOL    H325   325   0.0600000    1.0080
  326        HC    1  MOL    H326   326   0.0600000    1.0080
  327        HC    1  MOL    H327   327   0.0600000    1.0080
  328        HC    1  MOL    H328   328   0.0600000    1.0080
  329        HC    1  MOL    H329   329   0.0600000    1.0080
  330        HC    1  MOL    H330   330   0.0600000    1.0080
  331        HC    1  MOL    H331   331   0.0600000    1.0080
  332        HC    1  MOL    H332   332   0.0600000    1.0080
  333        HC    1  MOL    H333   333   0.0600000    1.0080
  334        HC    1  MOL    H334   334   0.0600000    1.0080
  335        HC    1  MOL    H335   335   0.0600000    1.0080
  336        HC    1  MOL    H336   336   0.0600000    1.0080
  337        HC    1  MOL    H337   337   0.0600000    1.0080
  338        CT    1  MOL    C338   338  -0.1200000   12.0115
  339        CT    1  MOL    C339   339  -0.0600000   12.0115
  340        CT    1  MOL    C340   340  -0.1200000   12.0115
  341        CT    1  MOL    C341   341  -0.1200000   12.0115
  342        CT    1  MOL    C342   342  -0.1200000   12.0115
  343        CT    1  MOL    C343   343  -0.1200000   12.0115
  344        CT    1  MOL    C344   344  -0.1200000   12.0115
  345        CT    1  MOL    C345   345  -0.1200000   12.0115
  346        CT    1  MOL    C346   346  -0.1200000   12.0115
  347        CT    1  MOL    C347   347  -0.1200000   12.0115
  348        CT    1  MOL    C348   348  -0.1200000   12.0115
  349        CT    1  MOL    C349   349  -0.1200000   12.0115
  350        CT    1  MOL    C350   350  -0.1200000   12.0115
  351        CT    1  MOL    C351   351  -0.1800000   12.0115
  352        HC    1  MOL    H352   352   0.0600000    1.0080
  353        HC    1  MOL    H353   353   0.0600000    1.0080
  354        HC    1  MOL    H354   354   0.0600000    1.0080
  355        HC    1  MOL    H355   355   0.0600000    1.0080
  356        HC    1  MOL    H356   356   0.0600000    1.0080
  357        HC    1  MOL    H357   357   0.0600000    1.0080
  358        HC    1  MOL    H358   358   0.0600000    1.0080
  359        HC    1  MOL    H359   359   0.0600000    1.0080
  360        HC    1  MOL    H360   360   0.0600000    1.0080
  361        HC    1  MOL    H361   361   0.0600000    1.0080
  362        HC    1  MOL    H362   362   0.0600000    1.0080
  363        HC    1  MOL    H363   363   0.0600000    1.0080
  364        HC    1  MOL    H364   364   0.0600000    1.0080
  365        HC    1  MOL    H365   365   0.0600000    1.0080
  366        HC    1  MOL    H366   366   0.0600000    1.0080
  367        HC    1  MOL    H367   367   0.0600000    1.0080
  368        HC    1  MOL    H368   368   0.0600000    1.0080
  369        HC    1  MOL    H369   369   0.0600000    1.0080
  370        HC    1  MOL    H370   370   0.0600000    1.0080
  371        HC    1  MOL    H371   371   0.0600000    1.0080
  372        HC    1  MOL    H372   372   0.0600000    1.0080
  373        HC    1  MOL    H373   373   0.0600000    1.0080
  374        HC    1  MOL    H374   374   0.0600000    1.0080
  375        HC    1  MOL    H375   375   0.0600000    1.0080
  376        HC    1  MOL    H376   376   0.0600000    1.0080
  377        HC    1  MOL    H377   377   0.0600000    1.0080
  378        HC    1  MOL    H378   378   0.0600000    1.0080
  379        HC    1  MOL    H379   379   0.0600000    1.0080
  380        CT    1  MOL    C380   380  -0.1200000   12.0115
  381        CT    1  MOL    C381   381  -0.0600000   12.0115
  382        CT    1  MOL    C382   382  -0.1200000   12.0115
  383        CT    1  MOL    C383   383  -0.1200000   12.0115
  384        CT    1  MOL    C384   384  -0.1200000   12.0115
  385        CT    1  MOL    C385   385  -0.1200000   12.0115
  386        CT    1  MOL    C386   386  -0.1200000   12.0115
  387        CT    1  MOL    C387   387  -0.1200000   12.0115
  388        CT    1  MOL    C388   388  -0.1200000   12.0115
  389        CT    1  MOL    C389   389  -0.1200000   12.0115
  390        CT    1  MOL    C390   390  -0.1200000   12.0115
  391        CT    1  MOL    C391   391  -0.1200000   12.0115
  392        CT    1  MOL    C392   392  -0.1200000   12.0115
  393        CT    1  MOL    C393   393  -0.1800000   12.0115
  394        HC    1  MOL    H394   394   0.0600000    1.0080
  395        HC    1  MOL    H395   395   0.0600000    1.0080
  396        HC    1  MOL    H396   396   0.0600000    1.0080
  397        HC    1  MOL    H397   397   0.0600000    1.0080
  398        HC    1  MOL    H398   398   0.0600000    1.0080
  399        HC    1  MOL    H399   399   0.0600000    1.0080
  400        HC    1  MOL    H400   400   0.0600000    1.0080
  401        HC    1  MOL    H401   401   0.0600000    1.0080
  402        HC    1  MOL    H402   402   0.0600000    1.0080
  403        HC    1  MOL    H403   403   0.0600000    1.0080
  404        HC    1  MOL    H404   404   0.0600000    1.0080
  405        HC    1  MOL    H405   405   0.0600000    1.0080
  406        HC    1  MOL    H406   406   0.0600000    1.0080
  407        HC    1  MOL    H407   407   0.0600000    1.0080
  408        HC    1  MOL    H408   408   0.0600000    1.0080
  409        HC    1  MOL    H409   409   0.0600000    1.0080
  410        HC    1  MOL    H410   410   0.0600000    1.0080
  411        HC    1  MOL    H411   411   0.0600000    1.0080
  412        HC    1  MOL    H412   412   0.0600000    1.0080
  413        HC    1  MOL    H413   413   0.0600000    1.0080
  414        HC    1  MOL    H414   414   0.0600000    1.0080
  415        HC    1  MOL    H415   415   0.0600000    1.0080
  416        HC    1  MOL    H416   416   0.0600000    1.0080
  417        HC    1  MOL    H417   417   0.0600000    1.0080
  418        HC    1  MOL    H418   418   0.0600000    1.0080
  419        HC    1  MOL    H419   419   0.0600000    1.0080
  420        HC    1  MOL    H420   420   0.0600000    1.0080
  421        HC    1  MOL    H421   421   0.0600000    1.0080
  422        CT    1  MOL    C422   422  -0.1200000   12.0115
  423        CT    1  MOL    C423   423  -0.0600000   12.0115
  424        CT    1  MOL    C424   424  -0.1200000   12.0115
  425        CT    1  MOL    C425   425  -0.1200000   12.0115
  426        CT    1  MOL    C426   426  -0.1200000   12.0115
  427        CT    1  MOL    C427   427  -0.1200000   12.0115
  428        CT    1  MOL    C428   428  -0.1200000   12.0115
  429        CT    1  MOL    C429   429  -0.1200000   12.0115
  430        CT    1  MOL    C430   430  -0.1200000   12.0115
  431        CT    1  MOL    C431   431  -0.1200000   12.0115
  432        CT    1  MOL    C432   432  -0.1200000   12.0115
  433        CT    1  MOL    C433   433  -0.1200000   12.0115
  434        CT    1  MOL    C434   434  -0.1200000   12.0115
  435        CT    1  MOL    C435   435  -0.1800000   12.0115
  436        HC    1  MOL    H436   436   0.0600000    1.0080
  437        HC    1  MOL    H437   437   0.0600000    1.0080
  438        HC    1  MOL    H438   438   0.0600000    1.0080
  439        HC    1  MOL    H439   439   0.0600000    1.0080
  440        HC    1  MOL    H440   440   0.0600000    1.0080
  441        HC    1  MOL    H441   441   0.0600000    1.0080
  442        HC    1  MOL    H442   442   0.0600000    1.0080
  443        HC    1  MOL    H443   443   0.0600000    1.0080
  444        HC    1  MOL    H444   444   0.0600000    1.0080
  445        HC    1  MOL    H445   445   0.0600000    1.0080
  446        HC    1  MOL    H446   446   0.0600000    1.0080
  447        HC    1  MOL    H447   447   0.0600000    1.0080
  448        HC    1  MOL    H448   448   0.0600000    1.0080
  449        HC    1  MOL    H449   449   0.0600000    1.0080
  450        HC    1  MOL    H450   450   0.0600000    1.0080
  451        HC    1  MOL    H451   451   0.0600000    1.0080
  452        HC    1  MOL    H452   452   0.0600000    1.0080
  453        HC    1  MOL    H453   453   0.0600000    1.0080
  454        HC    1  MOL    H454   454   0.0600000    1.0080
  455        HC    1  MOL    H455   455   0.0600000    1.0080
  456        HC    1  MOL    H456   456   0.0600000    1.0080
  457        HC    1  MOL    H457   457   0.0600000    1.0080
  458        HC    1  MOL    H458   458   0.0600000    1.0080
  459        HC    1  MOL    H459   459   0.0600000    1.0080
  460        HC    1  MOL    H460   460   0.0600000    1.0080
  461        HC    1  MOL    H461   461   0.0600000    1.0080
  462        HC    1  MOL    H462   462   0.0600000    1.0080
  463        HC    1  MOL    H463   463   0.0600000    1.0080
  464        CT    1  MOL    C464   464  -0.1200000   12.0115
  465        CT    1  MOL    C465   465  -0.0600000   12.0115
  466        CT    1  MOL    C466   466  -0.1200000   12.0115
  467        CT    1  MOL    C467   467  -0.1200000   12.0115
  468        CT    1  MOL    C468   468  -0.1200000   12.0115
  469        CT    1  MOL    C469   469  -0.1200000   12.0115
  470        CT    1  MOL    C470   470  -0.1200000   12.0115
  471        CT    1  MOL    C471   471  -0.1200000   12.0115
  472        CT    1  MOL    C472   472  -0.1200000   12.0115
  473        CT    1  MOL    C473   473  -0.1200000   12.0115
  474        CT    1  MOL    C474   474  -0.1200000   12.0115
  475        CT    1  MOL    C475   475  -0.1200000   12.0115
  476        CT    1  MOL    C476   476  -0.1200000   12.0115
  477        CT    1  MOL    C477   477  -0.1800000   12.0115
  478        HC    1  MOL    H478   478   0.0600000    1.0080
  479        HC    1  MOL    H479   479   0.0600000    1.0080
  480        HC    1  MOL    H480   480   0.0600000    1.0080
  481        HC    1  MOL    H481   481   0.0600000    1.0080
  482        HC    1  MOL    H482   482   0.0600000    1.0080
  483        HC    1  MOL    H483   483   0.0600000    1.0080
  484        HC    1  MOL    H484   484   0.0600000    1.0080
  485        HC    1  MOL    H485   485   0.0600000    1.0080
  486        HC    1  MOL    H486   486   0.0600000    1.0080
  487        HC    1  MOL    H487   487   0.0600000    1.0080
  488        HC    1  MOL    H488   488   0.0600000    1.0080
  489        HC    1  MOL    H489   489   0.0600000    1.0080
  490        HC    1  MOL    H490   490   0.0600000    1.0080
  491        HC    1  MOL    H491   491   0.0600000    1.0080
  492        HC    1  MOL    H492   492   0.0600000    1.0080
  493        HC    1  MOL    H493   493   0.0600000    1.0080
  494        HC    1  MOL    H494   494   0.0600000    1.0080
  495        HC    1  MOL    H495   495   0.0600000    1.0080
  496        HC    1  MOL    H496   496   0.0600000    1.0080
  497        HC    1  MOL    H497   497   0.0600000    1.0080
  498        HC    1  MOL    H498   498   0.0600000    1.0080
  499        HC    1  MOL    H499   499   0.0600000    1.0080
  500        HC    1  MOL    H500   500   0.0600000    1.0080
  501        HC    1  MOL    H501   501   0.0600000    1.0080
  502        HC    1  MOL    H502   502   0.0600000    1.0080
  503        HC    1  MOL    H503   503   0.0600000    1.0080
  504        HC    1  MOL    H504   504   0.0600000    1.0080
  505        HC    1  MOL    H505   505   0.0600000    1.0080
  506        CT    1  MOL    C506   506  -0.1200000   12.0115
  507        CT    1  MOL    C507   507  -0.0600000   12.0115
  508        CT    1  MOL    C508   508  -0.1200000   12.0115
  509        CT    1  MOL    C509   509  -0.1200000   12.0115
  510        CT    1  MOL    C510   510  -0.1200000   12.0115
  511        CT    1  MOL    C511   511  -0.1200000   12.0115
  512        CT    1  MOL    C512   512  -0.1200000   12.0115
  513        CT    1  MOL    C513   513  -0.1200000   12.0115
  514        CT    1  MOL    C514   514  -0.1200000   12.0115
  515        CT    1  MOL    C515   515  -0.1200000   12.0115
  516        CT    1  MOL    C516   516  -0.1200000   12.0115
  517        CT    1  MOL    C517   517  -0.1200000   12.0115
  518        CT    1  MOL    C518   518  -0.1200000   12.0115
  519        CT    1  MOL    C519   519  -0.1800000   12.0115
  520        HC    1  MOL    H520   520   0.0600000    1.0080
  521        HC    1  MOL    H521   521   0.0600000    1.0080
  522        HC    1  MOL    H522   522   0.0600000    1.0080
  523        HC    1  MOL    H523   523   0.0600000    1.0080
  524        HC    1  MOL    H524   524   0.0600000    1.0080
  525        HC    1  MOL    H525   525   0.0600000    1.0080
  526        HC    1  MOL    H526   526   0.0600000    1.0080
  527        HC    1  MOL    H527   527   0.0600000    1.0080
  528        HC    1  MOL    H528   528   0.0600000    1.0080
  529        HC    1  MOL    H529   529   0.0600000    1.0080
  530        HC    1  MOL    H530   530   0.0600000    1.0080
  531        HC    1  MOL    H531   531   0.0600000    1.0080
  532        HC    1  MOL    H532   532   0.0600000    1.0080
  533        HC    1  MOL    H533   533   0.0600000    1.0080
  534        HC    1  MOL    H534   534   0.0600000    1.0080
  535        HC    1  MOL    H535   535   0.0600000    1.0080
  536        HC    1  MOL    H536   536   0.0600000    1.0080
  537        HC    1  MOL    H537   537   0.0600000    1.0080
  538        HC    1  MOL    H538   538   0.0600000    1.0080
  539        HC    1  MOL    H539   539   0.0600000    1.0080
  540        HC    1  MOL    H540   540   0.0600000    1.0080
  541        HC    1  MOL    H541   541   0.0600000    1.0080
  542        HC    1  MOL    H542   542   0.0600000    1.0080
  543        HC    1  MOL    H543   543   0.0600000    1.0080
  544        HC    1  MOL    H544   544   0.0600000    1.0080
  545        HC    1  MOL    H545   545   0.0600000    1.0080
  546        HC    1  MOL    H546   546   0.0600000    1.0080
  547        HC    1  MOL    H547   547   0.0600000    1.0080
  548        CT    1  MOL    C548   548  -0.1200000   12.0115
  549        CT    1  MOL    C549   549  -0.0600000   12.0115
  550        CT    1  MOL    C550   550  -0.1200000   12.0115
  551        CT    1  MOL    C551   551  -0.1200000   12.0115
  552        CT    1  MOL    C552   552  -0.1200000   12.0115
  553        CT    1  MOL    C553   553  -0.1200000   12.0115
  554        CT    1  MOL    C554   554  -0.1200000   12.0115
  555        CT    1  MOL    C555   555  -0.1200000   12.0115
  556        CT    1  MOL    C556   556  -0.1200000   12.0115
  557        CT    1  MOL    C557   557  -0.1200000   12.0115
  558        CT    1  MOL    C558   558  -0.1200000   12.0115
  559        CT    1  MOL    C559   559  -0.1200000   12.0115
  560        CT    1  MOL    C560   560  -0.1200000   12.0115
  561        CT    1  MOL    C561   561  -0.1800000   12.0115
  562        HC    1  MOL    H562   562   0.0600000    1.0080
  563        HC    1  MOL    H563   563   0.0600000    1.0080
  564        HC    1  MOL    H564   564   0.0600000    1.0080
  565        HC    1  MOL    H565   565   0.0600000    1.0080
  566        HC    1  MOL    H566   566   0.0600000    1.0080
  567        HC    1  MOL    H567   567   0.0600000    1.0080
  568        HC    1  MOL    H568   568   0.0600000    1.0080
  569        HC    1  MOL    H569   569   0.0600000    1.0080
  570        HC    1  MOL    H570   570   0.0600000    1.0080
  571        HC    1  MOL    H571   571   0.0600000    1.0080
  572        HC    1  MOL    H572   572   0.0600000    1.0080
  573        HC    1  MOL    H573   573   0.0600000    1.0080
  574        HC    1  MOL    H574   574   0.0600000    1.0080
  575        HC    1  MOL    H575   575   0.0600000    1.0080
  576        HC    1  MOL    H576   576   0.0600000    1.0080
  577        HC    1  MOL    H577   577   0.0600000    1.0080
  578        HC    1  MOL    H578   578   0.0600000    1.0080
  579        HC    1  MOL    H579   579   0.0600000    1.0080
  580        HC    1  MOL    H580   580   0.0600000    1.0080
  581        HC    1  MOL    H581   581   0.0600000    1.0080
  582        HC    1  MOL    H582   582   0.0600000    1.0080
  583        HC    1  MOL    H583   583   0.0600000    1.0080
  584        HC    1  MOL    H584   584   0.0600000    1.0080
  585        HC    1  MOL    H585   585   0.0600000    1.0080
  586        HC    1  MOL    H586   586   0.0600000    1.0080
  587        HC    1  MOL    H587   587   0.0600000    1.0080
  588        HC    1  MOL    H588   588   0.0600000    1.0080
  589        HC    1  MOL    H589   589   0.0600000    1.0080
  590        CT    1  MOL    C590   590  -0.1200000   12.0115
  591        CT    1  MOL    C591   591  -0.0600000   12.0115
  592        CT    1  MOL    C592   592  -0.1200000   12.0115
  593        CT    1  MOL    C593   593  -0.1200000   12.0115
  594        CT    1  MOL    C594   594  -0.1200000   12.0115
  595        CT    1  MOL    C595   595  -0.1200000   12.0115
  596        CT    1  MOL    C596   596  -0.1200000   12.0115
  597        CT    1  MOL    C597   597  -0.1200000   12.0115
  598        CT    1  MOL    C598   598  -0.1200000   12.0115
  599        CT    1  MOL    C599   599  -0.1200000   12.0115
  600        CT    1  MOL    C600   600  -0.1200000   12.0115
  601        CT    1  MOL    C601   601  -0.1200000   12.0115
  602        CT    1  MOL    C602   602  -0.1200000   12.0115
  603        CT    1  MOL    C603   603  -0.1800000   12.0115
  604        HC    1  MOL    H604   604   0.0600000    1.0080
  605        HC    1  MOL    H605   605   0.0600000    1.0080
  606        HC    1  MOL    H606   606   0.0600000    1.0080
  607        HC    1  MOL    H607   607   0.0600000    1.0080
  608        HC    1  MOL    H608   608   0.0600000    1.0080
  609        HC    1  MOL    H609   609   0.0600000    1.0080
  610        HC    1  MOL    H610   610   0.0600000    1.0080
  611        HC    1  MOL    H611   611   0.0600000    1.0080
  612        HC    1  MOL    H612   612   0.0600000    1.0080
  613        HC    1  MOL    H613   613   0.0600000    1.0080
  614        HC    1  MOL    H614   614   0.0600000    1.0080
  615        HC    1  MOL    H615   615   0.0600000    1.0080
  616        HC    1  MOL    H616   616   0.0600000    1.0080
  617        HC    1  MOL    H617   617   0.0600000    1.0080
  618        HC    1  MOL    H618   618   0.0600000    1.0080
  619        HC    1  MOL    H619   619   0.0600000    1.0080
  620        HC    1  MOL    H620   620   0.0600000    1.0080
  621        HC    1  MOL    H621   621   0.0600000    1.0080
  622        HC    1  MOL    H622   622   0.0600000    1.0080
  623        HC    1  MOL    H623   623   0.0600000    1.0080
  624        HC    1  MOL    H624   624   0.0600000    1.0080
  625        HC    1  MOL    H625   625   0.0600000    1.0080
  626        HC    1  MOL    H626   626   0.0600000    1.0080
  627        HC    1  MOL    H627   627   0.0600000    1.0080
  628        HC    1  MOL    H628   628   0.0600000    1.0080
  629        HC    1  MOL    H629   629   0.0600000    1.0080
  630        HC    1  MOL    H630   630   0.0600000    1.0080
  631        HC    1  MOL    H631   631   0.0600000    1.0080
  632        CT    1  MOL    C632   632  -0.1200000   12.0115
  633        CT    1  MOL    C633   633  -0.0600000   12.0115
  634        CT    1  MOL    C634   634  -0.1200000   12.0115
  635        CT    1  MOL    C635   635  -0.1200000   12.0115
  636        CT    1  MOL    C636   636  -0.1200000   12.0115
  637        CT    1  MOL    C637   637  -0.1200000   12.0115
  638        CT    1  MOL    C638   638  -0.1200000   12.0115
  639        CT    1  MOL    C639   639  -0.1200000   12.0115
  640        CT    1  MOL    C640   640  -0.1200000   12.0115
  641        CT    1  MOL    C641   641  -0.1200000   12.0115
  642        CT    1  MOL    C642   642  -0.1200000   12.0115
  643        CT    1  MOL    C643   643  -0.1200000   12.0115
  644        CT    1  MOL    C644   644  -0.1200000   12.0115
  645        CT    1  MOL    C645   645  -0.1800000   12.0115
  646        HC    1  MOL    H646   646   0.0600000    1.0080
  647        HC    1  MOL    H647   647   0.0600000    1.0080
  648        HC    1  MOL    H648   648   0.0600000    1.0080
  649        HC    1  MOL    H649   649   0.0600000    1.0080
  650        HC    1  MOL    H650   650   0.0600000    1.0080
  651        HC    1  MOL    H651   651   0.0600000    1.0080
  652        HC    1  MOL    H652   652   0.0600000    1.0080
  653        HC    1  MOL    H653   653   0.0600000    1.0080
  654        HC    1  MOL    H654   654   0.0600000    1.0080
  655        HC    1  MOL    H655   655   0.0600000    1.0080
  656        HC    1  MOL    H656   656   0.0600000    1.0080
  657        HC    1  MOL    H657   657   0.0600000    1.0080
  658        HC    1  MOL    H658   658   0.0600000    1.0080
  659        HC    1  MOL    H659   659   0.0600000    1.0080
  660        HC    1  MOL    H660   660   0.0600000    1.0080
  661        HC    1  MOL    H661   661   0.0600000    1.0080
  662        HC    1  MOL    H662   662   0.0600000    1.0080
  663        HC    1  MOL    H663   663   0.0600000    1.0080
  664        HC    1  MOL    H664   664   0.0600000    1.0080
  665        HC    1  MOL    H665   665   0.0600000    1.0080
  666        HC    1  MOL    H666   666   0.0600000    1.0080
  667        HC    1  MOL    H667   667   0.0600000    1.0080
  668        HC    1  MOL    H668   668   0.0600000    1.0080
  669        HC    1  MOL    H669   669   0.0600000    1.0080
  670        HC    1  MOL    H670   670   0.0600000    1.0080
  671        HC    1  MOL    H671   671   0.0600000    1.0080
  672        HC    1  MOL    H672   672   0.0600000    1.0080
  673        HC    1  MOL    H673   673   0.0600000    1.0080
  674        CT    1  MOL    C674   674  -0.1200000   12.0115
  675        CT    1  MOL    C675   675  -0.0600000   12.0115
  676        CT    1  MOL    C676   676  -0.1200000   12.0115
  677        CT    1  MOL    C677   677  -0.1200000   12.0115
  678        CT    1  MOL    C678   678  -0.1200000   12.0115
  679        CT    1  MOL    C679   679  -0.1200000   12.0115
  680        CT    1  MOL    C680   680  -0.1200000   12.0115
  681        CT    1  MOL    C681   681  -0.1200000   12.0115
  682        CT    1  MOL    C682   682  -0.1200000   12.0115
  683        CT    1  MOL    C683   683  -0.1200000   12.0115
  684        CT    1  MOL    C684   684  -0.1200000   12.0115
  685        CT    1  MOL    C685   685  -0.1200000   12.0115
  686        CT    1  MOL    C686   686  -0.1200000   12.0115
  687        CT    1  MOL    C687   687  -0.1800000   12.0115
  688        HC    1  MOL    H688   688   0.0600000    1.0080
  689        HC    1  MOL    H689   689   0.0600000    1.0080
  690        HC    1  MOL    H690   690   0.0600000    1.0080
  691        HC    1  MOL    H691   691   0.0600000    1.0080
  692        HC    1  MOL    H692   692   0.0600000    1.0080
  693        HC    1  MOL    H693   693   0.0600000    1.0080
  694        HC    1  MOL    H694   694   0.0600000    1.0080
  695        HC    1  MOL    H695   695   0.0600000    1.0080
  696        HC    1  MOL    H696   696   0.0600000    1.0080
  697        HC    1  MOL    H697   697   0.0600000    1.0080
  698        HC    1  MOL    H698   698   0.0600000    1.0080
  699        HC    1  MOL    H699   699   0.0600000    1.0080
  700        HC    1  MOL    H700   700   0.0600000    1.0080
  701        HC    1  MOL    H701   701   0.0600000    1.0080
  702        HC    1  MOL    H702   702   0.0600000    1.0080
  703        HC    1  MOL    H703   703   0.0600000    1.0080
  704        HC    1  MOL    H704   704   0.0600000    1.0080
  705        HC    1  MOL    H705   705   0.0600000    1.0080
  706        HC    1  MOL    H706   706   0.0600000    1.0080
  707        HC    1  MOL    H707   707   0.0600000    1.0080
  708        HC    1  MOL    H708   708   0.0600000    1.0080
  709        HC    1  MOL    H709   709   0.0600000    1.0080
  710        HC    1  MOL    H710   710   0.0600000    1.0080
  711        HC    1  MOL    H711   711   0.0600000    1.0080
  712        HC    1  MOL    H712   712   0.0600000    1.0080
  713        HC    1  MOL    H713   713   0.0600000    1.0080
  714        HC    1  MOL    H714   714   0.0600000    1.0080
  715        HC    1  MOL    H715   715   0.0600000    1.0080
  716        CT    1  MOL    C716   716  -0.1200000   12.0115
  717        CT    1  MOL    C717   717  -0.0600000   12.0115
  718        CT    1  MOL    C718   718  -0.1200000   12.0115
  719        CT    1  MOL    C719   719  -0.1200000   12.0115
  720        CT    1  MOL    C720   720  -0.1200000   12.0115
  721        CT    1  MOL    C721   721  -0.1200000   12.0115
  722        CT    1  MOL    C722   722  -0.1200000   12.0115
  723        CT    1  MOL    C723   723  -0.1200000   12.0115
  724        CT    1  MOL    C724   724  -0.1200000   12.0115
  725        CT    1  MOL    C725   725  -0.1200000   12.0115
  726        CT    1  MOL    C726   726  -0.1200000   12.0115
  727        CT    1  MOL    C727   727  -0.1200000   12.0115
  728        CT    1  MOL    C728   728  -0.1200000   12.0115
  729        CT    1  MOL    C729   729  -0.1800000   12.0115
  730        HC    1  MOL    H730   730   0.0600000    1.0080
  731        HC    1  MOL    H731   731   0.0600000    1.0080
  732        HC    1  MOL    H732   732   0.0600000    1.0080
  733        HC    1  MOL    H733   733   0.0600000    1.0080
  734        HC    1  MOL    H734   734   0.0600000    1.0080
  735        HC    1  MOL    H735   735   0.0600000    1.0080
  736        HC    1  MOL    H736   736   0.0600000    1.0080
  737        HC    1  MOL    H737   737   0.0600000    1.0080
  738        HC    1  MOL    H738   738   0.0600000    1.0080
  739        HC    1  MOL    H739   739   0.0600000    1.0080
  740        HC    1  MOL    H740   740   0.0600000    1.0080
  741        HC    1  MOL    H741   741   0.0600000    1.0080
  742        HC    1  MOL    H742   742   0.0600000    1.0080
  743        HC    1  MOL    H743   743   0.0600000    1.0080
  744        HC    1  MOL    H744   744   0.0600000    1.0080
  745        HC    1  MOL    H745   745   0.0600000    1.0080
  746        HC    1  MOL    H746   746   0.0600000    1.0080
  747        HC    1  MOL    H747   747   0.0600000    1.0080
  748        HC    1  MOL    H748   748   0.0600000    1.0080
  749        HC    1  MOL    H749   749   0.0600000    1.0080
  750        HC    1  MOL    H750   750   0.0600000    1.0080
  751        HC    1  MOL    H751   751   0.0600000    1.0080
  752        HC    1  MOL    H752   752   0.0600000    1.0080
  753        HC    1  MOL    H753   753   0.0600000    1.0080
  754        HC    1  MOL    H754   754   0.0600000    1.0080
  755        HC    1  MOL    H755   755   0.0600000    1.0080
  756        HC    1  MOL    H756   756   0.0600000    1.0080
  757        HC    1  MOL    H757   757   0.0600000    1.0080
  758        CT    1  MOL    C758   758  -0.1200000   12.0115
  759        CT    1  MOL    C759   759  -0.0600000   12.0115
  760        CT    1  MOL    C760   760  -0.1200000   12.0115
  761        CT    1  MOL    C761   761  -0.1200000   12.0115
  762        CT    1  MOL    C762   762  -0.1200000   12.0115
  763        CT    1  MOL    C763   763  -0.1200000   12.0115
  764        CT    1  MOL    C764   764  -0.1200000   12.0115
  765        CT    1  MOL    C765   765  -0.1200000   12.0115
  766        CT    1  MOL    C766   766  -0.1200000   12.0115
  767        CT    1  MOL    C767   767  -0.1200000   12.0115
  768        CT    1  MOL    C768   768  -0.1200000   12.0115
  769        CT    1  MOL    C769   769  -0.1200000   12.0115
  770        CT    1  MOL    C770   770  -0.1200000   12.0115
  771        CT    1  MOL    C771   771  -0.1800000   12.0115
  772        HC    1  MOL    H772   772   0.0600000    1.0080
  773        HC    1  MOL    H773   773   0.0600000    1.0080
  774        HC    1  MOL    H774   774   0.0600000    1.0080
  775        HC    1  MOL    H775   775   0.0600000    1.0080
  776        HC    1  MOL    H776   776   0.0600000    1.0080
  777        HC    1  MOL    H777   777   0.0600000    1.0080
  778        HC    1  MOL    H778   778   0.0600000    1.0080
  779        HC    1  MOL    H779   779   0.0600000    1.0080
  780        HC    1  MOL    H780   780   0.0600000    1.0080
  781        HC    1  MOL    H781   781   0.0600000    1.0080
  782        HC    1  MOL    H782   782   0.0600000    1.0080
  783        HC    1  MOL    H783   783   0.0600000    1.0080
  784        HC    1  MOL    H784   784   0.0600000    1.0080
  785        HC    1  MOL    H785   785   0.0600000    1.0080
  786        HC    1  MOL    H786   786   0.0600000    1.0080
  787        HC    1  MOL    H787   787   0.0600000    1.0080
  788        HC    1  MOL    H788   788   0.0600000    1.0080
  789        HC    1  MOL    H789   789   0.0600000    1.0080
  790        HC    1  MOL    H790   790   0.0600000    1.0080
  791        HC    1  MOL    H791   791   0.0600000    1.0080
  792        HC    1  MOL    H792   792   0.0600000    1.0080
  793        HC    1  MOL    H793   793   0.0600000    1.0080
  794        HC    1  MOL    H794   794   0.0600000    1.0080
  795        HC    1  MOL    H795   795   0.0600000    1.0080
  796        HC    1  MOL    H796   796   0.0600000    1.0080
  797        HC    1  MOL    H797   797   0.0600000    1.0080
  798        HC    1  MOL    H798   798   0.0600000    1.0080
  799        HC    1  MOL    H799   799   0.0600000    1.0080
  800        CT    1  MOL    C800   800  -0.1200000   12.0115
  801        CT    1  MOL    C801   801  -0.1200000   12.0115
  802        CT    1  MOL    C802   802  -0.1200000   12.0115
  803        CT    1  MOL    C803   803  -0.1200000   12.0115
  804        CT    1  MOL    C804   804  -0.1200000   12.0115
  805        CT    1  MOL    C805   805  -0.1200000   12.0115
  806        CT    1  MOL    C806   806  -0.1200000   12.0115
  807        CT    1  MOL    C807   807  -0.1200000   12.0115
  808        CT    1  MOL    C808   808  -0.1200000   12.0115
  809        CT    1  MOL    C809   809  -0.1200000   12.0115
  810        CT    1  MOL    C810   810  -0.1200000   12.0115
  811        CT    1  MOL    C811   811  -0.1200000   12.0115
  812        CT    1  MOL    C812   812  -0.1200000   12.0115
  813        CT    1  MOL    C813   813  -0.1800000   12.0115
  814        HC    1  MOL    H814   814   0.0600000    1.0080
  815        HC    1  MOL    H815   815   0.0600000    1.0080
  816        HC    1  MOL    H816   816   0.0600000    1.0080
  817        HC    1  MOL    H817   817   0.0600000    1.0080
  818        HC    1  MOL    H818   818   0.0600000    1.0080
  819        HC    1  MOL    H819   819   0.0600000    1.0080
  820        HC    1  MOL    H820   820   0.0600000    1.0080
  821        HC    1  MOL    H821   821   0.0600000    1.0080
  822        HC    1  MOL    H822   822   0.0600000    1.0080
  823        HC    1  MOL    H823   823   0.0600000    1.0080
  824        HC    1  MOL    H824   824   0.0600000    1.0080
  825        HC    1  MOL    H825   825   0.0600000    1.0080
  826        HC    1  MOL    H826   826   0.0600000    1.0080
  827        HC    1  MOL    H827   827   0.0600000    1.0080
  828        HC    1  MOL    H828   828   0.0600000    1.0080
  829        HC    1  MOL    H829   829   0.0600000    1.0080
  830        HC    1  MOL    H830   830   0.0600000    1.0080
  831        HC    1  MOL    H831   831   0.0600000    1.0080
  832        HC    1  MOL    H832   832   0.0600000    1.0080
  833        HC    1  MOL    H833   833   0.0600000    1.0080
  834        HC    1  MOL    H834   834   0.0600000    1.0080
  835        HC    1  MOL    H835   835   0.0600000    1.0080
  836        HC    1  MOL    H836   836   0.0600000    1.0080
  837        HC    1  MOL    H837   837   0.0600000    1.0080
  838        HC    1  MOL    H838   838   0.0600000    1.0080
  839        HC    1  MOL    H839   839   0.0600000    1.0080
  840        HC    1  MOL    H840   840   0.0600000    1.0080
  841        HC    1  MOL    H841   841   0.0600000    1.0080
  842        HC    1  MOL    H842   842   0.0600000    1.0080

[ bonds ]
      1      2   1      0.1529 224262.4000
      1     15   1      0.1090 284512.0000
      1     16   1      0.1090 284512.0000
      1     43   1      0.1090 284512.0000
      2      3   1      0.1529 224262.4000
      2     17   1      0.1090 284512.0000
      2     44   1      0.1529 224262.4000
      3      4   1      0.1529 224262.4000
      3     18   1      0.1090 284512.0000
      3     19   1      0.1090 284512.0000
      4      5   1      0.1529 224262.4000
      4     20   1      0.1090 284512.0000
      4     21   1      0.1090 284512.0000
      5      6   1      0.1529 224262.4000
      5     22   1      0.1090 284512.0000
      5     23   1      0.1090 284512.0000
      6      7   1      0.1529 224262.4000
      6     24   1      0.1090 284512.0000
      6     25   1      0.1090 284512.0000
      7      8   1      0.1529 224262.4000
      7     26   1      0.1090 284512.0000
      7     27   1      0.1090 284512.0000
      8      9   1      0.1529 224262.4000
      8     28   1      0.1090 284512.0000
      8     29   1      0.1090 284512.0000
      9     10   1      0.1529 224262.4000
      9     30   1      0.1090 284512.0000
      9     31   1      0.1090 284512.0000
     10     11   1      0.1529 224262.4000
     10     32   1      0.1090 284512.0000
     10     33   1      0.1090 284512.0000
     11     12   1      0.1529 224262.4000
     11     34   1      0.1090 284512.0000
     11     35   1      0.1090 284512.0000
     12     13   1      0.1529 224262.4000
     12     36   1      0.1090 284512.0000
     12     37   1      0.1090 284512.0000
     13     14   1      0.1529 224262.4000
     13     38   1      0.1090 284512.0000
     13     39   1      0.1090 284512.0000
     14     40   1      0.1090 284512.0000
     14     41   1      0.1090 284512.0000
     14     42   1      0.1090 284512.0000
     44     45   1      0.1529 224262.4000
     44     58   1      0.1090 284512.0000
     44     59   1      0.1090 284512.0000
     45     46   1      0.1529 224262.4000
     45     60   1      0.1090 284512.0000
     45     86   1      0.1529 224262.4000
     46     47   1      0.1529 224262.4000
     46     61   1      0.1090 284512.0000
     46     62   1      0.1090 284512.0000
     47     48   1      0.1529 224262.4000
     47     63   1      0.1090 284512.0000
     47     64   1      0.1090 284512.0000
     48     49   1      0.1529 224262.4000
     48     65   1      0.1090 284512.0000
     48     66   1      0.1090 284512.0000
     49     50   1      0.1529 224262.4000
     49     67   1      0.1090 284512.0000
     49     68   1      0.1090 284512.0000
     50     51   1      0.1529 224262.4000
     50     69   1      0.1090 284512.0000
     50     70   1      0.1090 284512.0000
     51     52   1      0.1529 224262.4000
     51     71   1      0.1090 284512.0000
     51     72   1      0.1090 284512.0000
     52     53   1      0.1529 224262.4000
     52     73   1      0.1090 284512.0000
     52     74   1      0.1090 284512.0000
     53     54   1      0.1529 224262.4000
     53     75   1      0.1090 284512.0000
     53     76   1      0.1090 284512.0000
     54     55   1      0.1529 224262.4000
     54     77   1      0.1090 284512.0000
     54     78   1      0.1090 284512.0000
     55     56   1      0.1529 224262.4000
     55     79   1      0.1090 284512.0000
     55     80   1      0.1090 284512.0000
     56     57   1      0.1529 224262.4000
     56     81   1      0.1090 284512.0000
     56     82   1      0.1090 284512.0000
     57     83   1      0.1090 284512.0000
     57     84   1      0.1090 284512.0000
     57     85   1      0.1090 284512.0000
     86     87   1      0.1529 224262.4000
     86    100   1      0.1090 284512.0000
     86    101   1      0.1090 284512.0000
     87     88   1      0.1529 224262.4000
     87    102   1      0.1090 284512.0000
     87    128   1      0.1529 224262.4000
     88     89   1      0.1529 224262.4000
     88    103   1      0.1090 284512.0000
     88    104   1      0.1090 284512.0000
     89     90   1      0.1529 224262.4000
     89    105   1      0.1090 284512.0000
     89    106   1      0.1090 284512.0000
     90     91   1      0.1529 224262.4000
     90    107   1      0.1090 284512.0000
     90    108   1      0.1090 284512.0000
     91     92   1      0.1529 224262.4000
     91    109   1      0.1090 284512.0000
     91    110   1      0.1090 284512.0000
     92     93   1      0.1529 224262.4000
     92    111   1      0.1090 284512.0000
     92    112   1      0.1090 284512.0000
     93     94   1      0.1529 224262.4000
     93    113   1      0.1090 284512.0000
     93    114   1      0.1090 284512.0000
     94     95   1      0.1529 224262.4000
     94    115   1      0.1090 284512.0000
     94    116   1      0.1090 284512.0000
     95     96   1      0.1529 224262.4000
     95    117   1      0.1090 284512.0000
     95    118   1      0.1090 284512.0000
     96     97   1      0.1529 224262.4000
     96    119   1      0.1090 284512.0000
     96    120   1      0.1090 284512.0000
     97     98   1      0.1529 224262.4000
     97    121   1      0.1090 284512.0000
     97    122   1      0.1090 284512.0000
     98     99   1      0.1529 224262.4000
     98    123   1      0.1090 284512.0000
     98    124   1      0.1090 284512.0000
     99    125   1      0.1090 284512.0000
     99    126   1      0.1090 284512.0000
     99    127   1      0.1090 284512.0000
    128    129   1      0.1529 224262.4000
    128    142   1      0.1090 284512.0000
    128    143   1      0.1090 284512.0000
    129    130   1      0.1529 224262.4000
    129    144   1      0.1090 284512.0000
    129    170   1      0.1529 224262.4000
    130    131   1      0.1529 224262.4000
    130    145   1      0.1090 284512.0000
    130    146   1      0.1090 284512.0000
    131    132   1      0.1529 224262.4000
    131    147   1      0.1090 284512.0000
    131    148   1      0.1090 284512.0000
    132    133   1      0.1529 224262.4000
    132    149   1      0.1090 284512.0000
    132    150   1      0.1090 284512.0000
    133    134   1      0.1529 224262.4000
    133    151   1      0.1090 284512.0000
    133    152   1      0.1090 284512.0000
    134    135   1      0.1529 224262.4000
    134    153   1      0.1090 284512.0000
    134    154   1      0.1090 284512.0000
    135    136   1      0.1529 224262.4000
    135    155   1      0.1090 284512.0000
    135    156   1      0.1090 284512.0000
    136    137   1      0.1529 224262.4000
    136    157   1      0.1090 284512.0000
    136    158   1      0.1090 284512.0000
    137    138   1      0.1529 224262.4000
    137    159   1      0.1090 284512.0000
    137    160   1      0.1090 284512.0000
    138    139   1      0.1529 224262.4000
    138    161   1      0.1090 284512.0000
    138    162   1      0.1090 284512.0000
    139    140   1      0.1529 224262.4000
    139    163   1      0.1090 284512.0000
    139    164   1      0.1090 284512.0000
    140    141   1      0.1529 224262.4000
    140    165   1      0.1090 284512.0000
    140    166   1      0.1090 284512.0000
    141    167   1      0.1090 284512.0000
    141    168   1      0.1090 284512.0000
    141    169   1      0.1090 284512.0000
    170    171   1      0.1529 224262.4000
    170    184   1      0.1090 284512.0000
    170    185   1      0.1090 284512.0000
    171    172   1      0.1529 224262.4000
    171    186   1      0.1090 284512.0000
    171    212   1      0.1529 224262.4000
    172    173   1      0.1529 224262.4000
    172    187   1      0.1090 284512.0000
    172    188   1      0.1090 284512.0000
    173    174   1      0.1529 224262.4000
    173    189   1      0.1090 284512.0000
    173    190   1      0.1090 284512.0000
    174    175   1      0.1529 224262.4000
    174    191   1      0.1090 284512.0000
    174    192   1      0.1090 284512.0000
    175    176   1      0.1529 224262.4000
    175    193   1      0.1090 284512.0000
    175    194   1      0.1090 284512.0000
    176    177   1      0.1529 224262.4000
    176    195   1      0.1090 284512.0000
    176    196   1      0.1090 284512.0000
    177    178   1      0.1529 224262.4000
    177    197   1      0.1090 284512.0000
    177    198   1      0.1090 284512.0000
    178    179   1      0.1529 224262.4000
    178    199   1      0.1090 284512.0000
    178    200   1      0.1090 284512.0000
    179    180   1      0.1529 224262.4000
    179    201   1      0.1090 284512.0000
    179    202   1      0.1090 284512.0000
    180    181   1      0.1529 224262.4000
    180    203   1      0.1090 284512.0000
    180    204   1      0.1090 284512.0000
    181    182   1      0.1529 224262.4000
    181    205   1      0.1090 284512.0000
    181    206   1      0.1090 284512.0000
    182    183   1      0.1529 224262.4000
    182    207   1      0.1090 284512.0000
    182    208   1      0.1090 284512.0000
    183    209   1      0.1090 284512.0000
    183    210   1      0.1090 284512.0000
    183    211   1      0.1090 284512.0000
    212    213   1      0.1529 224262.4000
    212    226   1      0.1090 284512.0000
    212    227   1      0.1090 284512.0000
    213    214   1      0.1529 224262.4000
    213    228   1      0.1090 284512.0000
    213    254   1      0.1529 224262.4000
    214    215   1      0.1529 224262.4000
    214    229   1      0.1090 284512.0000
    214    230   1      0.1090 284512.0000
    215    216   1      0.1529 224262.4000
    215    231   1      0.1090 284512.0000
    215    232   1      0.1090 284512.0000
    216    217   1      0.1529 224262.4000
    216    233   1      0.1090 284512.0000
    216    234   1      0.1090 284512.0000
    217    218   1      0.1529 224262.4000
    217    235   1      0.1090 284512.0000
    217    236   1      0.1090 284512.0000
    218    219   1      0.1529 224262.4000
    218    237   1      0.1090 284512.0000
    218    238   1      0.1090 284512.0000
    219    220   1      0.1529 224262.4000
    219    239   1      0.1090 284512.0000
    219    240   1      0.1090 284512.0000
    220    221   1      0.1529 224262.4000
    220    241   1      0.1090 284512.0000
    220    242   1      0.1090 284512.0000
    221    222   1      0.1529 224262.4000
    221    243   1      0.1090 284512.0000
    221    244   1      0.1090 284512.0000
    222    223   1      0.1529 224262.4000
    222    245   1      0.1090 284512.0000
    222    246   1      0.1090 284512.0000
    223    224   1      0.1529 224262.4000
    223    247   1      0.1090 284512.0000
    223    248   1      0.1090 284512.0000
    224    225   1      0.1529 224262.4000
    224    249   1      0.1090 284512.0000
    224    250   1      0.1090 284512.0000
    225    251   1      0.1090 284512.0000
    225    252   1      0.1090 284512.0000
    225    253   1      0.1090 284512.0000
    254    255   1      0.1529 224262.4000
    254    268   1      0.1090 284512.0000
    254    269   1      0.1090 284512.0000
    255    256   1      0.1529 224262.4000
    255    270   1      0.1090 284512.0000
    255    296   1      0.1529 224262.4000
    256    257   1      0.1529 224262.4000
    256    271   1      0.1090 284512.0000
    256    272   1      0.1090 284512.0000
    257    258   1      0.1529 224262.4000
    257    273   1      0.1090 284512.0000
    257    274   1      0.1090 284512.0000
    258    259   1      0.1529 224262.4000
    258    275   1      0.1090 284512.0000
    258    276   1      0.1090 284512.0000
    259    260   1      0.1529 224262.4000
    259    277   1      0.1090 284512.0000
    259    278   1      0.1090 284512.0000
    260    261   1      0.1529 224262.4000
    260    279   1      0.1090 284512.0000
    260    280   1      0.1090 284512.0000
    261    262   1      0.1529 224262.4000
    261    281   1      0.1090 284512.0000
    261    282   1      0.1090 284512.0000
    262    263   1      0.1529 224262.4000
    262    283   1      0.1090 284512.0000
    262    284   1      0.1090 284512.0000
    263    264   1      0.1529 224262.4000
    263    285   1      0.1090 284512.0000
    263    286   1      0.1090 284512.0000
    264    265   1      0.1529 224262.4000
    264    287   1      0.1090 284512.0000
    264    288   1      0.1090 284512.0000
    265    266   1      0.1529 224262.4000
    265    289   1      0.1090 284512.0000
    265    290   1      0.1090 284512.0000
    266    267   1      0.1529 224262.4000
    266    291   1      0.1090 284512.0000
    266    292   1      0.1090 284512.0000
    267    293   1      0.1090 284512.0000
    267    294   1      0.1090 284512.0000
    267    295   1      0.1090 284512.0000
    296    297   1      0.1529 224262.4000
    296    310   1      0.1090 284512.0000
    296    311   1      0.1090 284512.0000
    297    298   1      0.1529 224262.4000
    297    312   1      0.1090 284512.0000
    297    338   1      0.1529 224262.4000
    298    299   1      0.1529 224262.4000
    298    313   1      0.1090 284512.0000
    298    314   1      0.1090 284512.0000
    299    300   1      0.1529 224262.4000
    299    315   1      0.1090 284512.0000
    299    316   1      0.1090 284512.0000
    300    301   1      0.1529 224262.4000
    300    317   1      0.1090 284512.0000
    300    318   1      0.1090 284512.0000
    301    302   1      0.1529 224262.4000
    301    319   1      0.1090 284512.0000
    301    320   1      0.1090 284512.0000
    302    303   1      0.1529 224262.4000
    302    321   1      0.1090 284512.0000
    302    322   1      0.1090 284512.0000
    303    304   1      0.1529 224262.4000
    303    323   1      0.1090 284512.0000
    303    324   1      0.1090 284512.0000
    304    305   1      0.1529 224262.4000
    304    325   1      0.1090 284512.0000
    304    326   1      0.1090 284512.0000
    305    306   1      0.1529 224262.4000
    305    327   1      0.1090 284512.0000
    305    328   1      0.1090 284512.0000
    306    307   1      0.1529 224262.4000
    306    329   1      0.1090 284512.0000
    306    330   1      0.1090 284512.0000
    307    308   1      0.1529 224262.4000
    307    331   1      0.1090 284512.0000
    307    332   1      0.1090 284512.0000
    308    309   1      0.1529 224262.4000
    308    333   1      0.1090 284512.0000
    308    334   1      0.1090 284512.0000
    309    335   1      0.1090 284512.0000
    309    336   1      0.1090 284512.0000
    309    337   1      0.1090 284512.0000
    338    339   1      0.1529 224262.4000
    338    352   1      0.1090 284512.0000
    338    353   1      0.1090 284512.0000
    339    340   1      0.1529 224262.4000
    339    354   1      0.1090 284512.0000
    339    380   1      0.1529 224262.4000
    340    341   1      0.1529 224262.4000
    340    355   1      0.1090 284512.0000
    340    356   1      0.1090 284512.0000
    341    342   1      0.1529 224262.4000
    341    357   1      0.1090 284512.0000
    341    358   1      0.1090 284512.0000
    342    343   1      0.1529 224262.4000
    342    359   1      0.1090 284512.0000
    342    360   1      0.1090 284512.0000
    343    344   1      0.1529 224262.4000
    343    361   1      0.1090 284512.0000
    343    362   1      0.1090 284512.0000
    344    345   1      0.1529 224262.4000
    344    363   1      0.1090 284512.0000
    344    364   1      0.1090 284512.0000
    345    346   1      0.1529 224262.4000
    345    365   1      0.1090 284512.0000
    345    366   1      0.1090 284512.0000
    346    347   1      0.1529 224262.4000
    346    367   1      0.1090 284512.0000
    346    368   1      0.1090 284512.0000
    347    348   1      0.1529 224262.4000
    347    369   1      0.1090 284512.0000
    347    370   1      0.1090 284512.0000
    348    349   1      0.1529 224262.4000
    348    371   1      0.1090 284512.0000
    348    372   1      0.1090 284512.0000
    349    350   1      0.1529 224262.4000
    349    373   1      0.1090 284512.0000
    349    374   1      0.1090 284512.0000
    350    351   1      0.1529 224262.4000
    350    375   1      0.1090 284512.0000
    350    376   1      0.1090 284512.0000
    351    377   1      0.1090 284512.0000
    351    378   1      0.1090 284512.0000
    351    379   1      0.1090 284512.0000
    380    381   1      0.1529 224262.4000
    380    394   1      0.1090 284512.0000
    380    395   1      0.1090 284512.0000
    381    382   1      0.1529 224262.4000
    381    396   1      0.1090 284512.0000
    381    422   1      0.1529 224262.4000
    382    383   1      0.1529 224262.4000
    382    397   1      0.1090 284512.0000
    382    398   1      0.1090 284512.0000
    383    384   1      0.1529 224262.4000
    383    399   1      0.1090 284512.0000
    383    400   1      0.1090 284512.0000
    384    385   1      0.1529 224262.4000
    384    401   1      0.1090 284512.0000
    384    402   1      0.1090 284512.0000
    385    386   1      0.1529 224262.4000
    385    403   1      0.1090 284512.0000
    385    404   1      0.1090 284512.0000
    386    387   1      0.1529 224262.4000
    386    405   1      0.1090 284512.0000
    386    406   1      0.1090 284512.0000
    387    388   1      0.1529 224262.4000
    387    407   1      0.1090 284512.0000
    387    408   1      0.1090 284512.0000
    388    389   1      0.1529 224262.4000
    388    409   1      0.1090 284512.0000
    388    410   1      0.1090 284512.0000
    389    390   1      0.1529 224262.4000
    389    411   1      0.1090 284512.0000
    389    412   1      0.1090 284512.0000
    390    391   1      0.1529 224262.4000
    390    413   1      0.1090 284512.0000
    390    414   1      0.1090 284512.0000
    391    392   1      0.1529 224262.4000
    391    415   1      0.1090 284512.0000
    391    416   1      0.1090 284512.0000
    392    393   1      0.1529 224262.4000
    392    417   1      0.1090 284512.0000
    392    418   1      0.1090 284512.0000
    393    419   1      0.1090 284512.0000
    393    420   1      0.1090 284512.0000
    393    421   1      0.1090 284512.0000
    422    423   1      0.1529 224262.4000
    422    436   1      0.1090 284512.0000
    422    437   1      0.1090 284512.0000
    423    424   1      0.1529 224262.4000
    423    438   1      0.1090 284512.0000
    423    464   1      0.1529 224262.4000
    424    425   1      0.1529 224262.4000
    424    439   1      0.1090 284512.0000
    424    440   1      0.1090 284512.0000
    425    426   1      0.1529 224262.4000
    425    441   1      0.1090 284512.0000
    425    442   1      0.1090 284512.0000
    426    427   1      0.1529 224262.4000
    426    443   1      0.1090 284512.0000
    426    444   1      0.1090 284512.0000
    427    428   1      0.1529 224262.4000
    427    445   1      0.1090 284512.0000
    427    446   1      0.1090 284512.0000
    428    429   1      0.1529 224262.4000
    428    447   1      0.1090 284512.0000
    428    448   1      0.1090 284512.0000
    429    430   1      0.1529 224262.4000
    429    449   1      0.1090 284512.0000
    429    450   1      0.1090 284512.0000
    430    431   1      0.1529 224262.4000
    430    451   1      0.1090 284512.0000
    430    452   1      0.1090 284512.0000
    431    432   1      0.1529 224262.4000
    431    453   1      0.1090 284512.0000
    431    454   1      0.1090 284512.0000
    432    433   1      0.1529 224262.4000
    432    455   1      0.1090 284512.0000
    432    456   1      0.1090 284512.0000
    433    434   1      0.1529 224262.4000
    433    457   1      0.1090 284512.0000
    433    458   1      0.1090 284512.0000
    434    435   1      0.1529 224262.4000
    434    459   1      0.1090 284512.0000
    434    460   1      0.1090 284512.0000
    435    461   1      0.1090 284512.0000
    435    462   1      0.1090 284512.0000
    435    463   1      0.1090 284512.0000
    464    465   1      0.1529 224262.4000
    464    478   1      0.1090 284512.0000
    464    479   1      0.1090 284512.0000
    465    466   1      0.1529 224262.4000
    465    480   1      0.1090 284512.0000
    465    506   1      0.1529 224262.4000
    466    467   1      0.1529 224262.4000
    466    481   1      0.1090 284512.0000
    466    482   1      0.1090 284512.0000
    467    468   1      0.1529 224262.4000
    467    483   1      0.1090 284512.0000
    467    484   1      0.1090 284512.0000
    468    469   1      0.1529 224262.4000
    468    485   1      0.1090 284512.0000
    468    486   1      0.1090 284512.0000
    469    470   1      0.1529 224262.4000
    469    487   1      0.1090 284512.0000
    469    488   1      0.1090 284512.0000
    470    471   1      0.1529 224262.4000
    470    489   1      0.1090 284512.0000
    470    490   1      0.1090 284512.0000
    471    472   1      0.1529 224262.4000
    471    491   1      0.1090 284512.0000
    471    492   1      0.1090 284512.0000
    472    473   1      0.1529 224262.4000
    472    493   1      0.1090 284512.0000
    472    494   1      0.1090 284512.0000
    473    474   1      0.1529 224262.4000
    473    495   1      0.1090 284512.0000
    473    496   1      0.1090 284512.0000
    474    475   1      0.1529 224262.4000
    474    497   1      0.1090 284512.0000
    474    498   1      0.1090 284512.0000
    475    476   1      0.1529 224262.4000
    475    499   1      0.1090 284512.0000
    475    500   1      0.1090 284512.0000
    476    477   1      0.1529 224262.4000
    476    501   1      0.1090 284512.0000
    476    502   1      0.1090 284512.0000
    477    503   1      0.1090 284512.0000
    477    504   1      0.1090 284512.0000
    477    505   1      0.1090 284512.0000
    506    507   1      0.1529 224262.4000
    506    520   1      0.1090 284512.0000
    506    521   1      0.1090 284512.0000
    507    508   1      0.1529 224262.4000
    507    522   1      0.1090 284512.0000
    507    548   1      0.1529 224262.4000
    508    509   1      0.1529 224262.4000
    508    523   1      0.1090 284512.0000
    508    524   1      0.1090 284512.0000
    509    510   1      0.1529 224262.4000
    509    525   1      0.1090 284512.0000
    509    526   1      0.1090 284512.0000
    510    511   1      0.1529 224262.4000
    510    527   1      0.1090 284512.0000
    510    528   1      0.1090 284512.0000
    511    512   1      0.1529 224262.4000
    511    529   1      0.1090 284512.0000
    511    530   1      0.1090 284512.0000
    512    513   1      0.1529 224262.4000
    512    531   1      0.1090 284512.0000
    512    532   1      0.1090 284512.0000
    513    514   1      0.1529 224262.4000
    513    533   1      0.1090 284512.0000
    513    534   1      0.1090 284512.0000
    514    515   1      0.1529 224262.4000
    514    535   1      0.1090 284512.0000
    514    536   1      0.1090 284512.0000
    515    516   1      0.1529 224262.4000
    515    537   1      0.1090 284512.0000
    515    538   1      0.1090 284512.0000
    516    517   1      0.1529 224262.4000
    516    539   1      0.1090 284512.0000
    516    540   1      0.1090 284512.0000
    517    518   1      0.1529 224262.4000
    517    541   1      0.1090 284512.0000
    517    542   1      0.1090 284512.0000
    518    519   1      0.1529 224262.4000
    518    543   1      0.1090 284512.0000
    518    544   1      0.1090 284512.0000
    519    545   1      0.1090 284512.0000
    519    546   1      0.1090 284512.0000
    519    547   1      0.1090 284512.0000
    548    549   1      0.1529 224262.4000
    548    562   1      0.1090 284512.0000
    548    563   1      0.1090 284512.0000
    549    550   1      0.1529 224262.4000
    549    564   1      0.1090 284512.0000
    549    590   1      0.1529 224262.4000
    550    551   1      0.1529 224262.4000
    550    565   1      0.1090 284512.0000
    550    566   1      0.1090 284512.0000
    551    552   1      0.1529 224262.4000
    551    567   1      0.1090 284512.0000
    551    568   1      0.1090 284512.0000
    552    553   1      0.1529 224262.4000
    552    569   1      0.1090 284512.0000
    552    570   1      0.1090 284512.0000
    553    554   1      0.1529 224262.4000
    553    571   1      0.1090 284512.0000
    553    572   1      0.1090 284512.0000
    554    555   1      0.1529 224262.4000
    554    573   1      0.1090 284512.0000
    554    574   1      0.1090 284512.0000
    555    556   1      0.1529 224262.4000
    555    575   1      0.1090 284512.0000
    555    576   1      0.1090 284512.0000
    556    557   1      0.1529 224262.4000
    556    577   1      0.1090 284512.0000
    556    578   1      0.1090 284512.0000
    557    558   1      0.1529 224262.4000
    557    579   1      0.1090 284512.0000
    557    580   1      0.1090 284512.0000
    558    559   1      0.1529 224262.4000
    558    581   1      0.1090 284512.0000
    558    582   1      0.1090 284512.0000
    559    560   1      0.1529 224262.4000
    559    583   1      0.1090 284512.0000
    559    584   1      0.1090 284512.0000
    560    561   1      0.1529 224262.4000
    560    585   1      0.1090 284512.0000
    560    586   1      0.1090 284512.0000
    561    587   1      0.1090 284512.0000
    561    588   1      0.1090 284512.0000
    561    589   1      0.1090 284512.0000
    590    591   1      0.1529 224262.4000
    590    604   1      0.1090 284512.0000
    590    605   1      0.1090 284512.0000
    591    592   1      0.1529 224262.4000
    591    606   1      0.1090 284512.0000
    591    632   1      0.1529 224262.4000
    592    593   1      0.1529 224262.4000
    592    607   1      0.1090 284512.0000
    592    608   1      0.1090 284512.0000
    593    594   1      0.1529 224262.4000
    593    609   1      0.1090 284512.0000
    593    610   1      0.1090 284512.0000
    594    595   1      0.1529 224262.4000
    594    611   1      0.1090 284512.0000
    594    612   1      0.1090 284512.0000
    595    596   1      0.1529 224262.4000
    595    613   1      0.1090 284512.0000
    595    614   1      0.1090 284512.0000
    596    597   1      0.1529 224262.4000
    596    615   1      0.1090 284512.0000
    596    616   1      0.1090 284512.0000
    597    598   1      0.1529 224262.4000
    597    617   1      0.1090 284512.0000
    597    618   1      0.1090 284512.0000
    598    599   1      0.1529 224262.4000
    598    619   1      0.1090 284512.0000
    598    620   1      0.1090 284512.0000
    599    600   1      0.1529 224262.4000
    599    621   1      0.1090 284512.0000
    599    622   1      0.1090 284512.0000
    600    601   1      0.1529 224262.4000
    600    623   1      0.1090 284512.0000
    600    624   1      0.1090 284512.0000
    601    602   1      0.1529 224262.4000
    601    625   1      0.1090 284512.0000
    601    626   1      0.1090 284512.0000
    602    603   1      0.1529 224262.4000
    602    627   1      0.1090 284512.0000
    602    628   1      0.1090 284512.0000
    603    629   1      0.1090 284512.0000
    603    630   1      0.1090 284512.0000
    603    631   1      0.1090 284512.0000
    632    633   1      0.1529 224262.4000
    632    646   1      0.1090 284512.0000
    632    647   1      0.1090 284512.0000
    633    634   1      0.1529 224262.4000
    633    648   1      0.1090 284512.0000
    633    674   1      0.1529 224262.4000
    634    635   1      0.1529 224262.4000
    634    649   1      0.1090 284512.0000
    634    650   1      0.1090 284512.0000
    635    636   1      0.1529 224262.4000
    635    651   1      0.1090 284512.0000
    635    652   1      0.1090 284512.0000
    636    637   1      0.1529 224262.4000
    636    653   1      0.1090 284512.0000
    636    654   1      0.1090 284512.0000
    637    638   1      0.1529 224262.4000
    637    655   1      0.1090 284512.0000
    637    656   1      0.1090 284512.0000
    638    639   1      0.1529 224262.4000
    638    657   1      0.1090 284512.0000
    638    658   1      0.1090 284512.0000
    639    640   1      0.1529 224262.4000
    639    659   1      0.1090 284512.0000
    639    660   1      0.1090 284512.0000
    640    641   1      0.1529 224262.4000
    640    661   1      0.1090 284512.0000
    640    662   1      0.1090 284512.0000
    641    642   1      0.1529 224262.4000
    641    663   1      0.1090 284512.0000
    641    664   1      0.1090 284512.0000
    642    643   1      0.1529 224262.4000
    642    665   1      0.1090 284512.0000
    642    666   1      0.1090 284512.0000
    643    644   1      0.1529 224262.4000
    643    667   1      0.1090 284512.0000
    643    668   1      0.1090 284512.0000
    644    645   1      0.1529 224262.4000
    644    669   1      0.1090 284512.0000
    644    670   1      0.1090 284512.0000
    645    671   1      0.1090 284512.0000
    645    672   1      0.1090 284512.0000
    645    673   1      0.1090 284512.0000
    674    675   1      0.1529 224262.4000
    674    688   1      0.1090 284512.0000
    674    689   1      0.1090 284512.0000
    675    676   1      0.1529 224262.4000
    675    690   1      0.1090 284512.0000
    675    716   1      0.1529 224262.4000
    676    677   1      0.1529 224262.4000
    676    691   1      0.1090 284512.0000
    676    692   1      0.1090 284512.0000
    677    678   1      0.1529 224262.4000
    677    693   1      0.1090 284512.0000
    677    694   1      0.1090 284512.0000
    678    679   1      0.1529 224262.4000
    678    695   1      0.1090 284512.0000
    678    696   1      0.1090 284512.0000
    679    680   1      0.1529 224262.4000
    679    697   1      0.1090 284512.0000
    679    698   1      0.1090 284512.0000
    680    681   1      0.1529 224262.4000
    680    699   1      0.1090 284512.0000
    680    700   1      0.1090 284512.0000
    681    682   1      0.1529 224262.4000
    681    701   1      0.1090 284512.0000
    681    702   1      0.1090 284512.0000
    682    683   1      0.1529 224262.4000
    682    703   1      0.1090 284512.0000
    682    704   1      0.1090 284512.0000
    683    684   1      0.1529 224262.4000
    683    705   1      0.1090 284512.0000
    683    706   1      0.1090 284512.0000
    684    685   1      0.1529 224262.4000
    684    707   1      0.1090 284512.0000
    684    708   1      0.1090 284512.0000
    685    686   1      0.1529 224262.4000
    685    709   1      0.1090 284512.0000
    685    710   1      0.1090 284512.0000
    686    687   1      0.1529 224262.4000
    686    711   1      0.1090 284512.0000
    686    712   1      0.1090 284512.0000
    687    713   1      0.1090 284512.0000
    687    714   1      0.1090 284512.0000
    687    715   1      0.1090 284512.0000
    716    717   1      0.1529 224262.4000
    716    730   1      0.1090 284512.0000
    716    731   1      0.1090 284512.0000
    717    718   1      0.1529 224262.4000
    717    732   1      0.1090 284512.0000
    717    758   1      0.1529 224262.4000
    718    719   1      0.1529 224262.4000
    718    733   1      0.1090 284512.0000
    718    734   1      0.1090 284512.0000
    719    720   1      0.1529 224262.4000
    719    735   1      0.1090 284512.0000
    719    736   1      0.1090 284512.0000
    720    721   1      0.1529 224262.4000
    720    737   1      0.1090 284512.0000
    720    738   1      0.1090 284512.0000
    721    722   1      0.1529 224262.4000
    721    739   1      0.1090 284512.0000
    721    740   1      0.1090 284512.0000
    722    723   1      0.1529 224262.4000
    722    741   1      0.1090 284512.0000
    722    742   1      0.1090 284512.0000
    723    724   1      0.1529 224262.4000
    723    743   1      0.1090 284512.0000
    723    744   1      0.1090 284512.0000
    724    725   1      0.1529 224262.4000
    724    745   1      0.1090 284512.0000
    724    746   1      0.1090 284512.0000
    725    726   1      0.1529 224262.4000
    725    747   1      0.1090 284512.0000
    725    748   1      0.1090 284512.0000
    726    727   1      0.1529 224262.4000
    726    749   1      0.1090 284512.0000
    726    750   1      0.1090 284512.0000
    727    728   1      0.1529 224262.4000
    727    751   1      0.1090 284512.0000
    727    752   1      0.1090 284512.0000
    728    729   1      0.1529 224262.4000
    728    753   1      0.1090 284512.0000
    728    754   1      0.1090 284512.0000
    729    755   1      0.1090 284512.0000
    729    756   1      0.1090 284512.0000
    729    757   1      0.1090 284512.0000
    758    759   1      0.1529 224262.4000
    758    772   1      0.1090 284512.0000
    758    773   1      0.1090 284512.0000
    759    760   1      0.1529 224262.4000
    759    774   1      0.1090 284512.0000
    759    800   1      0.1529 224262.4000
    760    761   1      0.1529 224262.4000
    760    775   1      0.1090 284512.0000
    760    776   1      0.1090 284512.0000
    761    762   1      0.1529 224262.4000
    761    777   1      0.1090 284512.0000
    761    778   1      0.1090 284512.0000
    762    763   1      0.1529 224262.4000
    762    779   1      0.1090 284512.0000
    762    780   1      0.1090 284512.0000
    763    764   1      0.1529 224262.4000
    763    781   1      0.1090 284512.0000
    763    782   1      0.1090 284512.0000
    764    765   1      0.1529 224262.4000
    764    783   1      0.1090 284512.0000
    764    784   1      0.1090 284512.0000
    765    766   1      0.1529 224262.4000
    765    785   1      0.1090 284512.0000
    765    786   1      0.1090 284512.0000
    766    767   1      0.1529 224262.4000
    766    787   1      0.1090 284512.0000
    766    788   1      0.1090 284512.0000
    767    768   1      0.1529 224262.4000
    767    789   1      0.1090 284512.0000
    767    790   1      0.1090 284512.0000
    768    769   1      0.1529 224262.4000
    768    791   1      0.1090 284512.0000
    768    792   1      0.1090 284512.0000
    769    770   1      0.1529 224262.4000
    769    793   1      0.1090 284512.0000
    769    794   1      0.1090 284512.0000
    770    771   1      0.1529 224262.4000
    770    795   1      0.1090 284512.0000
    770    796   1      0.1090 284512.0000
    771    797   1      0.1090 284512.0000
    771    798   1      0.1090 284512.0000
    771    799   1      0.1090 284512.0000
    800    801   1      0.1529 224262.4000
    800    814   1      0.1090 284512.0000
    800    815   1      0.1090 284512.0000
    801    802   1      0.1529 224262.4000
    801    816   1      0.1090 284512.0000
    801    842   1      0.1090 284512.0000
    802    803   1      0.1529 224262.4000
    802    817   1      0.1090 284512.0000
    802    818   1      0.1090 284512.0000
    803    804   1      0.1529 224262.4000
    803    819   1      0.1090 284512.0000
    803    820   1      0.1090 284512.0000
    804    805   1      0.1529 224262.4000
    804    821   1      0.1090 284512.0000
    804    822   1      0.1090 284512.0000
    805    806   1      0.1529 224262.4000
    805    823   1      0.1090 284512.0000
    805    824   1      0.1090 284512.0000
    806    807   1      0.1529 224262.4000
    806    825   1      0.1090 284512.0000
    806    826   1      0.1090 284512.0000
    807    808   1      0.1529 224262.4000
    807    827   1      0.1090 284512.0000
    807    828   1      0.1090 284512.0000
    808    809   1      0.1529 224262.4000
    808    829   1      0.1090 284512.0000
    808    830   1      0.1090 284512.0000
    809    810   1      0.1529 224262.4000
    809    831   1      0.1090 284512.0000
    809    832   1      0.1090 284512.0000
    810    811   1      0.1529 224262.4000
    810    833   1      0.1090 284512.0000
    810    834   1      0.1090 284512.0000
    811    812   1      0.1529 224262.4000
    811    835   1      0.1090 284512.0000
    811    836   1      0.1090 284512.0000
    812    813   1      0.1529 224262.4000
    812    837   1      0.1090 284512.0000
    812    838   1      0.1090 284512.0000
    813    839   1      0.1090 284512.0000
    813    840   1      0.1090 284512.0000
    813    841   1      0.1090 284512.0000

[ pairs ]
; ai   aj   funct   fudge_QQ  charge_i   charge_j   c6    c12
     15      3   2   0.50000     0.0600000   -0.1200000   2.494471e-04  1.671101e-07
     15     17   2   0.50000     0.0600000    0.0600000   6.128906e-05  1.496315e-08
     15     44   2   0.50000     0.0600000   -0.1200000   2.494471e-04  1.671101e-07
     16      3   2   0.50000     0.0600000   -0.1200000   2.494471e-04  1.671101e-07
     16     17   2   0.50000     0.0600000    0.0600000   6.128906e-05  1.496315e-08
     16     44   2   0.50000     0.0600000   -0.1200000   2.494471e-04  1.671101e-07
     43      3   2   0.50000     0.0600000   -0.1200000   2.494471e-04  1.671101e-07
     43     17   2   0.50000     0.0600000    0.0600000   6.128906e-05  1.496315e-08
     43     44   2   0.50000     0.0600000   -0.1200000   2.494471e-04  1.671101e-07
      1      4   2   0.50000    -0.1800000   -0.1200000   1.015252e-03  1.866303e-06
      1     18   2   0.50000    -0.1800000    0.0600000   2.494471e-04  1.671101e-07
      1     19   2   0.50000    -0.1800000    0.0600000   2.494471e-04  1.671101e-07
     17      4   2   0.50000     0.0600000   -0.1200000   2.494471e-04  1.671101e-07
     17     18   2   0.50000     0.0600000    0.0600000   6.128906e-05  1.496315e-08
     17     19   2   0.50000     0.0600000    0.0600000   6.128906e-05  1.496315e-08
     44      4   2   0.50000    -0.1200000   -0.1200000   1.015252e-03  1.866303e-06
     44     18   2   0.50000    -0.1200000    0.0600000   2.494471e-04  1.671101e-07
     44     19   2   0.50000    -0.1200000    0.0600000   2.494471e-04  1.671101e-07
      1     45   2   0.50000    -0.1800000   -0.0600000   1.015252e-03  1.866303e-06
      1     58   2   0.50000    -0.1800000    0.0600000   2.494471e-04  1.671101e-07
      1     59   2   0.50000    -0.1800000    0.0600000   2.494471e-04  1.671101e-07
      3     45   2   0.50000    -0.1200000   -0.0600000   1.015252e-03  1.866303e-06
      3     58   2   0.50000    -0.1200000    0.0600000   2.494471e-04  1.671101e-07
      3     59   2   0.50000    -0.1200000    0.0600000   2.494471e-04  1.671101e-07
     17     45   2   0.50000     0.0600000   -0.0600000   2.494471e-04  1.671101e-07
     17     58   2   0.50000     0.0600000    0.0600000   6.128906e-05  1.496315e-08
     17     59   2   0.50000     0.0600000    0.0600000   6.128906e-05  1.496315e-08
      2      5   2   0.50000    -0.0600000   -0.1200000   1.015252e-03  1.866303e-06
      2     20   2   0.50000    -0.0600000    0.0600000   2.494471e-04  1.671101e-07
      2     21   2   0.50000    -0.0600000    0.0600000   2.494471e-04  1.671101e-07
     18      5   2   0.50000     0.0600000   -0.1200000   2.494471e-04  1.671101e-07
     18     20   2   0.50000     0.0600000    0.0600000   6.128906e-05  1.496315e-08
     18     21   2   0.50000     0.0600000    0.0600000   6.128906e-05  1.496315e-08
     19      5   2   0.50000     0.0600000   -0.1200000   2.494471e-04  1.671101e-07
     19     20   2   0.50000     0.0600000    0.0600000   6.128906e-05  1.496315e-08
     19     21   2   0.50000     0.0600000    0.0600000   6.128906e-05  1.496315e-08
      3      6   2   0.50000    -0.1200000   -0.1200000   1.015252e-03  1.866303e-06
      3     22   2   0.50000    -0.1200000    0.0600000   2.494471e-04  1.671101e-07
      3     23   2   0.50000    -0.1200000    0.0600000   2.494471e-04  1.671101e-07
     20      6   2   0.50000     0.0600000   -0.1200000   2.494471e-04  1.671101e-07
     20     22   2   0.50000     0.0600000    0.0600000   6.128906e-05  1.496315e-08
     20     23   2   0.50000     0.0600000    0.0600000   6.128906e-05  1.496315e-08
     21      6   2   0.50000     0.0600000   -0.1200000   2.494471e-04  1.671101e-07
     21     22   2   0.50000     0.0600000    0.0600000   6.128906e-05  1.496315e-08
     21     23   2   0.50000     0.0600000    0.0600000   6.128906e-05  1.496315e-08
      4      7   2   0.50000    -0.1200000   -0.1200000   1.015252e-03  1.866303e-06
      4     24   2   0.50000    -0.1200000    0.0600000   2.494471e-04  1.671101e-07
      4     25   2   0.50000    -0.1200000    0.0600000   2.494471e-04  1.671101e-07
     22      7   2   0.50000     0.0600000   -0.1200000   2.494471e-04  1.671101e-07
     22     24   2   0.50000     0.0600000    0.0600000   6.128906e-05  1.496315e-08
     22     25   2   0.50000     0.0600000    0.0600000   6.128906e-05  1.496315e-08
     23      7   2   0.50000     0.0600000   -0.1200000   2.494471e-04  1.671101e-07
     23     24   2   0.50000     0.0600000    0.0600000   6.128906e-05  1.496315e-08
     23     25   2   0.50000     0.0600000    0.0600000   6.128906e-05  1.496315e-08
      5      8   2   0.50000    -0.1200000   -0.1200000   1.015252e-03  1.866303e-06
      5     26   2   0.50000    -0.1200000    0.0600000   2.494471e-04  1.671101e-07
      5     27   2   0.50000    -0.1200000    0.0600000   2.494471e-04  1.671101e-07
     24      8   2   0.50000     0.0600000   -0.1200000   2.494471e-04  1.671101e-07
     24     26   2   0.50000     0.0600000    0.0600000   6.128906e-05  1.496315e-08
     24     27   2   0.50000     0.0600000    0.0600000   6.128906e-05  1.496315e-08
     25      8   2   0.50000     0.0600000   -0.1200000   2.494471e-04  1.671101e-07
     25     26   2   0.50000     0.0600000    0.0600000   6.128906e-05  1.496315e-08
     25     27   2   0.50000     0.0600000    0.0600000   6.128906e-05  1.496315e-08
      6      9   2   0.50000    -0.1200000   -0.1200000   1.015252e-03  1.866303e-06
      6     28   2   0.50000    -0.1200000    0.0600000   2.494471e-04  1.671101e-07
      6     29   2   0.50000    -0.1200000    0.0600000   2.494471e-04  1.671101e-07
     26      9   2   0.50000     0.0600000   -0.1200000   2.494471e-04  1.671101e-07
     26     28   2   0.50000     0.0600000    0.0600000   6.128906e-05  1.496315e-08
     26     29   2   0.50000     0.0600000    0.0600000   6.128906e-05  1.496315e-08
     27      9   2   0.50000     0.0600000   -0.1200000   2.494471e-04  1.671101e-07
     27     28   2   0.50000     0.0600000    0.0600000   6.128906e-05  1.496315e-08
     27     29   2   0.50000     0.0600000    0.0600000   6.128906e-05  1.496315e-08
      7     10   2   0.50000    -0.1200000   -0.1200000   1.015252e-03  1.866303e-06
      7     30   2   0.50000    -0.1200000    0.0600000   2.494471e-04  1.671101e-07
      7     31   2   0.50000    -0.1200000    0.0600000   2.494471e-04  1.671101e-07
     28     10   2   0.50000     0.0600000   -0.1200000   2.494471e-04  1.671101e-07
     28     30   2   0.50000     0.0600000    0.0600000   6.128906e-05  1.496315e-08
     28     31   2   0.50000     0.0600000    0.0600000   6.128906e-05  1.496315e-08
     29     10   2   0.50000     0.0600000   -0.1200000   2.494471e-04  1.671101e-07
     29     30   2   0.50000     0.0600000    0.0600000   6.128906e-05  1.496315e-08
     29     31   2   0.50000     0.0600000    0.0600000   6.128906e-05  1.496315e-08
      8     11   2   0.50000    -0.1200000   -0.1200000   1.015252e-03  1.866303e-06
      8     32   2   0.50000    -0.1200000    0.0600000   2.494471e-04  1.671101e-07
      8     33   2   0.50000    -0.1200000    0.0600000   2.494471e-04  1.671101e-07
     30     11   2   0.50000     0.0600000   -0.1200000   2.494471e-04  1.671101e-07
     30     32   2   0.50000     0.0600000    0.0600000   6.128906e-05  1.496315e-08
     30     33   2   0.50000     0.0600000    0.0600000   6.128906e-05  1.496315e-08
     31     11   2   0.50000     0.0600000   -0.1200000   2.494471e-04  1.671101e-07
     31     32   2   0.50000     0.0600000    0.0600000   6.128906e-05  1.496315e-08
     31     33   2   0.50000     0.0600000    0.0600000   6.128906e-05  1.496315e-08
      9     12   2   0.50000    -0.1200000   -0.1200000   1.015252e-03  1.866303e-06
      9     34   2   0.50000    -0.1200000    0.0600000   2.494471e-04  1.671101e-07
      9     35   2   0.50000    -0.1200000    0.0600000   2.494471e-04  1.671101e-07
     32     12   2   0.50000     0.0600000   -0.1200000   2.494471e-04  1.671101e-07
     32     34   2   0.50000     0.0600000    0.0600000   6.128906e-05  1.496315e-08
     32     35   2   0.50000     0.0600000    0.0600000   6.128906e-05  1.496315e-08
     33     12   2   0.50000     0.0600000   -0.1200000   2.494471e-04  1.671101e-07
     33     34   2   0.50000     0.0600000    0.0600000   6.128906e-05  1.496315e-08
     33     35   2   0.50000     0.0600000    0.0600000   6.128906e-05  1.496315e-08
     10     13   2   0.50000    -0.1200000   -0.1200000   1.015252e-03  1.866303e-06
     10     36   2   0.50000    -0.1200000    0.0600000   2.494471e-04  1.671101e-07
     10     37   2   0.50000    -0.1200000    0.0600000   2.494471e-04  1.671101e-07
     34     13   2   0.50000     0.0600000   -0.1200000   2.494471e-04  1.671101e-07
     34     36   2   0.50000     0.0600000    0.0600000   6.128906e-05  1.496315e-08
     34     37   2   0.50000     0.0600000    0.0600000   6.128906e-05  1.496315e-08
     35     13   2   0.50000     0.0600000   -0.1200000   2.494471e-04  1.671101e-07
     35     36   2   0.50000     0.0600000    0.0600000   6.128906e-05  1.496315e-08
     35     37   2   0.50000     0.0600000    0.0600000   6.128906e-05  1.496315e-08
     11     14   2   0.50000    -0.1200000   -0.1800000   1.015252e-03  1.866303e-06
     11     38   2   0.50000    -0.1200000    0.0600000   2.494471e-04  1.671101e-07
     11     39   2   0.50000    -0.1200000    0.0600000   2.494471e-04  1.671101e-07
     36     14   2   0.50000     0.0600000   -0.1800000   2.494471e-04  1.671101e-07
     36     38   2   0.50000     0.0600000    0.0600000   6.128906e-05  1.496315e-08
     36     39   2   0.50000     0.0600000    0.0600000   6.128906e-05  1.496315e-08
     37     14   2   0.50000     0.0600000   -0.1800000   2.494471e-04  1.671101e-07
     37     38   2   0.50000     0.0600000    0.0600000   6.128906e-05  1.496315e-08
     37     39   2   0.50000     0.0600000    0.0600000   6.128906e-05  1.496315e-08
     12     40   2   0.50000    -0.1200000    0.0600000   2.494471e-04  1.671101e-07
     12     41   2   0.50000    -0.1200000    0.0600000   2.494471e-04  1.671101e-07
     12     42   2   0.50000    -0.1200000    0.0600000   2.494471e-04  1.671101e-07
     38     40   2   0.50000     0.0600000    0.0600000   6.128906e-05  1.496315e-08
     38     41   2   0.50000     0.0600000    0.0600000   6.128906e-05  1.496315e-08
     38     42   2   0.50000     0.0600000    0.0600000   6.128906e-05  1.496315e-08
     39     40   2   0.50000     0.0600000    0.0600000   6.128906e-05  1.496315e-08
     39     41   2   0.50000     0.0600000    0.0600000   6.128906e-05  1.496315e-08
     39     42   2   0.50000     0.0600000    0.0600000   6.128906e-05  1.496315e-08
      2     46   2   0.50000    -0.0600000   -0.1200000   1.015252e-03  1.866303e-06
      2     60   2   0.50000    -0.0600000    0.0600000   2.494471e-04  1.671101e-07
      2     86   2   0.50000    -0.0600000   -0.1200000   1.015252e-03  1.866303e-06
     58     46   2   0.50000     0.0600000   -0.1200000   2.494471e-04  1.671101e-07
     58     60   2   0.50000     0.0600000    0.0600000   6.128906e-05  1.496315e-08
     58     86   2   0.50000     0.0600000   -0.1200000   2.494471e-04  1.671101e-07
     59     46   2   0.50000     0.0600000   -0.1200000   2.494471e-04  1.671101e-07
     59     60   2   0.50000     0.0600000    0.0600000   6.128906e-05  1.496315e-08
     59     86   2   0.50000     0.0600000   -0.1200000   2.494471e-04  1.671101e-07
     44     47   2   0.50000    -0.1200000   -0.1200000   1.015252e-03  1.866303e-06
     44     61   2   0.50000    -0.1200000    0.0600000   2.494471e-04  1.671101e-07
     44     62   2   0.50000    -0.1200000    0.0600000   2.494471e-04  1.671101e-07
     60     47   2   0.50000     0.0600000   -0.1200000   2.494471e-04  1.671101e-07
     60     61   2   0.50000     0.0600000    0.0600000   6.128906e-05  1.496315e-08
     60     62   2   0.50000     0.0600000    0.0600000   6.128906e-05  1.496315e-08
     86     47   2   0.50000    -0.1200000   -0.1200000   1.015252e-03  1.866303e-06
     86     61   2   0.50000    -0.1200000    0.0600000   2.494471e-04  1.671101e-07
     86     62   2   0.50000    -0.1200000    0.0600000   2.494471e-04  1.671101e-07
     44     87   2   0.50000    -0.1200000   -0.0600000   1.015252e-03  1.866303e-06
     44    100   2   0.50000    -0.1200000    0.0600000   2.494471e-04  1.671101e-07
     44    101   2   0.50000    -0.1200000    0.0600000   2.494471e-04  1.671101e-07
     46     87   2   0.50000    -0.1200000   -0.0600000   1.015252e-03  1.866303e-06
     46    100   2   0.50000    -0.1200000    0.0600000   2.494471e-04  1.671101e-07
     46    101   2   0.50000    -0.1200000    0.0600000   2.494471e-04  1.671101e-07
     60     87   2   0.50000     0.0600000   -0.0600000   2.494471e-04  1.671101e-07
     60    100   2   0.50000     0.0600000    0.0600000   6.128906e-05  1.496315e-08
     60    101   2   0.50000     0.0600000    0.0600000   6.128906e-05  1.496315e-08
     45     48   2   0.50000    -0.0600000   -0.1200000   1.015252e-03  1.866303e-06
     45     63   2   0.50000    -0.0600000    0.0600000   2.494471e-04  1.671101e-07
     45     64   2   0.50000    -0.0600000    0.0600000   2.494471e-04  1.671101e-07
     61     48   2   0.50000     0.0600000   -0.1200000   2.494471e-04  1.671101e-07
     61     63   2   0.50000     0.0600000    0.0600000   6.128906e-05  1.496315e-08
     61     64   2   0.50000     0.0600000    0.0600000   6.128906e-05  1.496315e-08
     62     48   2   0.50000     0.0600000   -0.1200000   2.494471e-04  1.671101e-07
     62     63   2   0.50000     0.0600000    0.0600000   6.128906e-05  1.496315e-08
     62     64   2   0.50000     0.0600000    0.0600000   6.128906e-05  1.496315e-08
     46     49   2   0.50000    -0.1200000   -0.1200000   1.015252e-03  1.866303e-06
     46     65   2   0.50000    -0.1200000    0.0600000   2.494471e-04  1.671101e-07
     46     66   2   0.50000    -0.1200000    0.0600000   2.494471e-04  1.671101e-07
     63     49   2   0.50000     0.0600000   -0.1200000   2.494471e-04  1.671101e-07
     63     65   2   0.50000     0.0600000    0.0600000   6.128906e-05  1.496315e-08
     63     66   2   0.50000     0.0600000    0.0600000   6.128906e-05  1.496315e-08
     64     49   2   0.50000     0.0600000   -0.1200000   2.494471e-04  1.671101e-07
     64     65   2   0.50000     0.0600000    0.0600000   6.128906e-05  1.496315e-08
     64     66   2   0.50000     0.0600000    0.0600000   6.128906e-05  1.496315e-08
     47     50   2   0.50000    -0.1200000   -0.1200000   1.015252e-03  1.866303e-06
     47     67   2   0.50000    -0.1200000    0.0600000   2.494471e-04  1.671101e-07
     47     68   2   0.50000    -0.1200000    0.0600000   2.494471e-04  1.671101e-07
     65     50   2   0.50000     0.0600000   -0.1200000   2.494471e-04  1.671101e-07
     65     67   2   0.50000     0.0600000    0.0600000   6.128906e-05  1.496315e-08
     65     68   2   0.50000     0.0600000    0.0600000   6.128906e-05  1.496315e-08
     66     50   2   0.50000     0.0600000   -0.1200000   2.494471e-04  1.671101e-07
     66     67   2   0.50000     0.0600000    0.0600000   6.128906e-05  1.496315e-08
     66     68   2   0.50000     0.0600000    0.0600000   6.128906e-05  1.496315e-08
     48     51   2   0.50000    -0.1200000   -0.1200000   1.015252e-03  1.866303e-06
     48     69   2   0.50000    -0.1200000    0.0600000   2.494471e-04  1.671101e-07
     48     70   2   0.50000    -0.1200000    0.0600000   2.494471e-04  1.671101e-07
     67     51   2   0.50000     0.0600000   -0.1200000   2.494471e-04  1.671101e-07
     67     69   2   0.50000     0.0600000    0.0600000   6.128906e-05  1.496315e-08
     67     70   2   0.50000     0.0600000    0.0600000   6.128906e-05  1.496315e-08
     68     51   2   0.50000     0.0600000   -0.1200000   2.494471e-04  1.671101e-07
     68     69   2   0.50000     0.0600000    0.0600000   6.128906e-05  1.496315e-08
     68     70   2   0.50000     0.0600000    0.0600000   6.128906e-05  1.496315e-08
     49     52   2   0.50000    -0.1200000   -0.1200000   1.015252e-03  1.866303e-06
     49     71   2   0.50000    -0.1200000    0.0600000   2.494471e-04  1.671101e-07
     49     72   2   0.50000    -0.1200000    0.0600000   2.494471e-04  1.671101e-07
     69     52   2   0.50000     0.0600000   -0.1200000   2.494471e-04  1.671101e-07
     69     71   2   0.50000     0.0600000    0.0600000   6.128906e-05  1.496315e-08
     69     72   2   0.50000     0.0600000    0.0600000   6.128906e-05  1.496315e-08
     70     52   2   0.50000     0.0600000   -0.1200000   2.494471e-04  1.671101e-07
     70     71   2   0.50000     0.0600000    0.0600000   6.128906e-05  1.496315e-08
     70     72   2   0.50000     0.0600000    0.0600000   6.128906e-05  1.496315e-08
     50     53   2   0.50000    -0.1200000   -0.1200000   1.015252e-03  1.866303e-06
     50     73   2   0.50000    -0.1200000    0.0600000   2.494471e-04  1.671101e-07
     50     74   2   0.50000    -0.1200000    0.0600000   2.494471e-04  1.671101e-07
     71     53   2   0.50000     0.0600000   -0.1200000   2.494471e-04  1.671101e-07
     71     73   2   0.50000     0.0600000    0.0600000   6.128906e-05  1.496315e-08
     71     74   2   0.50000     0.0600000    0.0600000   6.128906e-05  1.496315e-08
     72     53   2   0.50000     0.0600000   -0.1200000   2.494471e-04  1.671101e-07
     72     73   2   0.50000     0.0600000    0.0600000   6.128906e-05  1.496315e-08
     72     74   2   0.50000     0.0600000    0.0600000   6.128906e-05  1.496315e-08
     51     54   2   0.50000    -0.1200000   -0.1200000   1.015252e-03  1.866303e-06
     51     75   2   0.50000    -0.1200000    0.0600000   2.494471e-04  1.671101e-07
     51     76   2   0.50000    -0.1200000    0.0600000   2.494471e-04  1.671101e-07
     73     54   2   0.50000     0.0600000   -0.1200000   2.494471e-04  1.671101e-07
     73     75   2   0.50000     0.0600000    0.0600000   6.128906e-05  1.496315e-08
     73     76   2   0.50000     0.0600000    0.0600000   6.128906e-05  1.496315e-08
     74     54   2   0.50000     0.0600000   -0.1200000   2.494471e-04  1.671101e-07
     74     75   2   0.50000     0.0600000    0.0600000   6.128906e-05  1.496315e-08
     74     76   2   0.50000     0.0600000    0.0600000   6.128906e-05  1.496315e-08
     52     55   2   0.50000    -0.1200000   -0.1200000   1.015252e-03  1.866303e-06
     52     77   2   0.50000    -0.1200000    0.0600000   2.494471e-04  1.671101e-07
     52     78   2   0.50000    -0.1200000    0.0600000   2.494471e-04  1.671101e-07
     75     55   2   0.50000     0.0600000   -0.1200000   2.494471e-04  1.671101e-07
     75     77   2   0.50000     0.0600000    0.0600000   6.128906e-05  1.496315e-08
     75     78   2   0.50000     0.0600000    0.0600000   6.128906e-05  1.496315e-08
     76     55   2   0.50000     0.0600000   -0.1200000   2.494471e-04  1.671101e-07
     76     77   2   0.50000     0.0600000    0.0600000   6.128906e-05  1.496315e-08
     76     78   2   0.50000     0.0600000    0.0600000   6.128906e-05  1.496315e-08
     53     56   2   0.50000    -0.1200000   -0.1200000   1.015252e-03  1.866303e-06
     53     79   2   0.50000    -0.1200000    0.0600000   2.494471e-04  1.671101e-07
     53     80   2   0.50000    -0.1200000    0.0600000   2.494471e-04  1.671101e-07
     77     56   2   0.50000     0.0600000   -0.1200000   2.494471e-04  1.671101e-07
     77     79   2   0.50000     0.0600000    0.0600000   6.128906e-05  1.496315e-08
     77     80   2   0.50000     0.0600000    0.0600000   6.128906e-05  1.496315e-08
     78     56   2   0.50000     0.0600000   -0.1200000   2.494471e-04  1.671101e-07
     78     79   2   0.50000     0.0600000    0.0600000   6.128906e-05  1.496315e-08
     78     80   2   0.50000     0.0600000    0.0600000   6.128906e-05  1.496315e-08
     54     57   2   0.50000    -0.1200000   -0.1800000   1.015252e-03  1.866303e-06
     54     81   2   0.50000    -0.1200000    0.0600000   2.494471e-04  1.671101e-07
     54     82   2   0.50000    -0.1200000    0.0600000   2.494471e-04  1.671101e-07
     79     57   2   0.50000     0.0600000   -0.1800000   2.494471e-04  1.671101e-07
     79     81   2   0.50000     0.0600000    0.0600000   6.128906e-05  1.496315e-08
     79     82   2   0.50000     0.0600000    0.0600000   6.128906e-05  1.496315e-08
     80     57   2   0.50000     0.0600000   -0.1800000   2.494471e-04  1.671101e-07
     80     81   2   0.50000     0.0600000    0.0600000   6.128906e-05  1.496315e-08
     80     82   2   0.50000     0.0600000    0.0600000   6.128906e-05  1.496315e-08
     55     83   2   0.50000    -0.1200000    0.0600000   2.494471e-04  1.671101e-07
     55     84   2   0.50000    -0.1200000    0.0600000   2.494471e-04  1.671101e-07
     55     85   2   0.50000    -0.1200000    0.0600000   2.494471e-04  1.671101e-07
     81     83   2   0.50000     0.0600000    0.0600000   6.128906e-05  1.496315e-08
     81     84   2   0.50000     0.0600000    0.0600000   6.128906e-05  1.496315e-08
     81     85   2   0.50000     0.0600000    0.0600000   6.128906e-05  1.496315e-08
     82     83   2   0.50000     0.0600000    0.0600000   6.128906e-05  1.496315e-08
     82     84   2   0.50000     0.0600000    0.0600000   6.128906e-05  1.496315e-08
     82     85   2   0.50000     0.0600000    0.0600000   6.128906e-05  1.496315e-08
     45     88   2   0.50000    -0.0600000   -0.1200000   1.015252e-03  1.866303e-06
     45    102   2   0.50000    -0.0600000    0.0600000   2.494471e-04  1.671101e-07
     45    128   2   0.50000    -0.0600000   -0.1200000   1.015252e-03  1.866303e-06
    100     88   2   0.50000     0.0600000   -0.1200000   2.494471e-04  1.671101e-07
    100    102   2   0.50000     0.0600000    0.0600000   6.128906e-05  1.496315e-08
    100    128   2   0.50000     0.0600000   -0.1200000   2.494471e-04  1.671101e-07
    101     88   2   0.50000     0.0600000   -0.1200000   2.494471e-04  1.671101e-07
    101    102   2   0.50000     0.0600000    0.0600000   6.128906e-05  1.496315e-08
    101    128   2   0.50000     0.0600000   -0.1200000   2.494471e-04  1.671101e-07
     86     89   2   0.50000    -0.1200000   -0.1200000   1.015252e-03  1.866303e-06
     86    103   2   0.50000    -0.1200000    0.0600000   2.494471e-04  1.671101e-07
     86    104   2   0.50000    -0.1200000    0.0600000   2.494471e-04  1.671101e-07
    102     89   2   0.50000     0.0600000   -0.1200000   2.494471e-04  1.671101e-07
    102    103   2   0.50000     0.0600000    0.0600000   6.128906e-05  1.496315e-08
    102    104   2   0.50000     0.0600000    0.0600000   6.128906e-05  1.496315e-08
    128     89   2   0.50000    -0.1200000   -0.1200000   1.015252e-03  1.866303e-06
    128    103   2   0.50000    -0.1200000    0.0600000   2.494471e-04  1.671101e-07
    128    104   2   0.50000    -0.1200000    0.0600000   2.494471e-04  1.671101e-07
     86    129   2   0.50000    -0.1200000   -0.0600000   1.015252e-03  1.866303e-06
     86    142   2   0.50000    -0.1200000    0.0600000   2.494471e-04  1.671101e-07
     86    143   2   0.50000    -0.1200000    0.0600000   2.494471e-04  1.671101e-07
     88    129   2   0.50000    -0.1200000   -0.0600000   1.015252e-03  1.866303e-06
     88    142   2   0.50000    -0.1200000    0.0600000   2.494471e-04  1.671101e-07
     88    143   2   0.50000    -0.1200000    0.0600000   2.494471e-04  1.671101e-07
    102    129   2   0.50000     0.0600000   -0.0600000   2.494471e-04  1.671101e-07
    102    142   2   0.50000     0.0600000    0.0600000   6.128906e-05  1.496315e-08
    102    143   2   0.50000     0.0600000    0.0600000   6.128906e-05  1.496315e-08
     87     90   2   0.50000    -0.0600000   -0.1200000   1.015252e-03  1.866303e-06
     87    105   2   0.50000    -0.0600000    0.0600000   2.494471e-04  1.671101e-07
     87    106   2   0.50000    -0.0600000    0.0600000   2.494471e-04  1.671101e-07
    103     90   2   0.50000     0.0600000   -0.1200000   2.494471e-04  1.671101e-07
    103    105   2   0.50000     0.0600000    0.0600000   6.128906e-05  1.496315e-08
    103    106   2   0.50000     0.0600000    0.0600000   6.128906e-05  1.496315e-08
    104     90   2   0.50000     0.0600000   -0.1200000   2.494471e-04  1.671101e-07
    104    105   2   0.50000     0.0600000    0.0600000   6.128906e-05  1.496315e-08
    104    106   2   0.50000     0.0600000    0.0600000   6.128906e-05  1.496315e-08
     88     91   2   0.50000    -0.1200000   -0.1200000   1.015252e-03  1.866303e-06
     88    107   2   0.50000    -0.1200000    0.0600000   2.494471e-04  1.671101e-07
     88    108   2   0.50000    -0.1200000    0.0600000   2.494471e-04  1.671101e-07
    105     91   2   0.50000     0.0600000   -0.1200000   2.494471e-04  1.671101e-07
    105    107   2   0.50000     0.0600000    0.0600000   6.128906e-05  1.496315e-08
    105    108   2   0.50000     0.0600000    0.0600000   6.128906e-05  1.496315e-08
    106     91   2   0.50000     0.0600000   -0.1200000   2.494471e-04  1.671101e-07
    106    107   2   0.50000     0.0600000    0.0600000   6.128906e-05  1.496315e-08
    106    108   2   0.50000     0.0600000    0.0600000   6.128906e-05  1.496315e-08
     89     92   2   0.50000    -0.1200000   -0.1200000   1.015252e-03  1.866303e-06
     89    109   2   0.50000    -0.1200000    0.0600000   2.494471e-04  1.671101e-07
     89    110   2   0.50000    -0.1200000    0.0600000   2.494471e-04  1.671101e-07
    107     92   2   0.50000     0.0600000   -0.1200000   2.494471e-04  1.671101e-07
    107    109   2   0.50000     0.0600000    0.0600000   6.128906e-05  1.496315e-08
    107    110   2   0.50000     0.0600000    0.0600000   6.128906e-05  1.496315e-08
    108     92   2   0.50000     0.0600000   -0.1200000   2.494471e-04  1.671101e-07
    108    109   2   0.50000     0.0600000    0.0600000   6.128906e-05  1.496315e-08
    108    110   2   0.50000     0.0600000    0.0600000   6.128906e-05  1.496315e-08
     90     93   2   0.50000    -0.1200000   -0.1200000   1.015252e-03  1.866303e-06
     90    111   2   0.50000    -0.1200000    0.0600000   2.494471e-04  1.671101e-07
     90    112   2   0.50000    -0.1200000    0.0600000   2.494471e-04  1.671101e-07
    109     93   2   0.50000     0.0600000   -0.1200000   2.494471e-04  1.671101e-07
    109    111   2   0.50000     0.0600000    0.0600000   6.128906e-05  1.496315e-08
    109    112   2   0.50000     0.0600000    0.0600000   6.128906e-05  1.496315e-08
    110     93   2   0.50000     0.0600000   -0.1200000   2.494471e-04  1.671101e-07
    110    111   2   0.50000     0.0600000    0.0600000   6.128906e-05  1.496315e-08
    110    112   2   0.50000     0.0600000    0.0600000   6.128906e-05  1.496315e-08
     91     94   2   0.50000    -0.1200000   -0.1200000   1.015252e-03  1.866303e-06
     91    113   2   0.50000    -0.1200000    0.0600000   2.494471e-04  1.671101e-07
     91    114   2   0.50000    -0.1200000    0.0600000   2.494471e-04  1.671101e-07
    111     94   2   0.50000     0.0600000   -0.1200000   2.494471e-04  1.671101e-07
    111    113   2   0.50000     0.0600000    0.0600000   6.128906e-05  1.496315e-08
    111    114   2   0.50000     0.0600000    0.0600000   6.128906e-05  1.496315e-08
    112     94   2   0.50000     0.0600000   -0.1200000   2.494471e-04  1.671101e-07
    112    113   2   0.50000     0.0600000    0.0600000   6.128906e-05  1.496315e-08
    112    114   2   0.50000     0.0600000    0.0600000   6.128906e-05  1.496315e-08
     92     95   2   0.50000    -0.1200000   -0.1200000   1.015252e-03  1.866303e-06
     92    115   2   0.50000    -0.1200000    0.0600000   2.494471e-04  1.671101e-07
     92    116   2   0.50000    -0.1200000    0.0600000   2.494471e-04  1.671101e-07
    113     95   2   0.50000     0.0600000   -0.1200000   2.494471e-04  1.671101e-07
    113    115   2   0.50000     0.0600000    0.0600000   6.128906e-05  1.496315e-08
    113    116   2   0.50000     0.0600000    0.0600000   6.128906e-05  1.496315e-08
    114     95   2   0.50000     0.0600000   -0.1200000   2.494471e-04  1.671101e-07
    114    115   2   0.50000     0.0600000    0.0600000   6.128906e-05  1.496315e-08
    114    116   2   0.50000     0.0600000    0.0600000   6.128906e-05  1.496315e-08
     93     96   2   0.50000    -0.1200000   -0.1200000   1.015252e-03  1.866303e-06
     93    117   2   0.50000    -0.1200000    0.0600000   2.494471e-04  1.671101e-07
     93    118   2   0.50000    -0.1200000    0.0600000   2.494471e-04  1.671101e-07
    115     96   2   0.50000     0.0600000   -0.1200000   2.494471e-04  1.671101e-07
    115    117   2   0.50000     0.0600000    0.0600000   6.128906e-05  1.496315e-08
    115    118   2   0.50000     0.0600000    0.0600000   6.128906e-05  1.496315e-08
    116     96   2   0.50000     0.0600000   -0.1200000   2.494471e-04  1.671101e-07
    116    117   2   0.50000     0.0600000    0.0600000   6.128906e-05  1.496315e-08
    116    118   2   0.50000     0.0600000    0.0600000   6.128906e-05  1.496315e-08
     94     97   2   0.50000    -0.1200000   -0.1200000   1.015252e-03  1.866303e-06
     94    119   2   0.50000    -0.1200000    0.0600000   2.494471e-04  1.671101e-07
     94    120   2   0.50000    -0.1200000    0.0600000   2.494471e-04  1.671101e-07
    117     97   2   0.50000     0.0600000   -0.1200000   2.494471e-04  1.671101e-07
    117    119   2   0.50000     0.0600000    0.0600000   6.128906e-05  1.496315e-08
    117    120   2   0.50000     0.0600000    0.0600000   6.128906e-05  1.496315e-08
    118     97   2   0.50000     0.0600000   -0.1200000   2.494471e-04  1.671101e-07
    118    119   2   0.50000     0.0600000    0.0600000   6.128906e-05  1.496315e-08
    118    120   2   0.50000     0.0600000    0.0600000   6.128906e-05  1.496315e-08
     95     98   2   0.50000    -0.1200000   -0.1200000   1.015252e-03  1.866303e-06
     95    121   2   0.50000    -0.1200000    0.0600000   2.494471e-04  1.671101e-07
     95    122   2   0.50000    -0.1200000    0.0600000   2.494471e-04  1.671101e-07
    119     98   2   0.50000     0.0600000   -0.1200000   2.494471e-04  1.671101e-07
    119    121   2   0.50000     0.0600000    0.0600000   6.128906e-05  1.496315e-08
    119    122   2   0.50000     0.0600000    0.0600000   6.128906e-05  1.496315e-08
    120     98   2   0.50000     0.0600000   -0.1200000   2.494471e-04  1.671101e-07
    120    121   2   0.50000     0.0600000    0.0600000   6.128906e-05  1.496315e-08
    120    122   2   0.50000     0.0600000    0.0600000   6.128906e-05  1.496315e-08
     96     99   2   0.50000    -0.1200000   -0.1800000   1.015252e-03  1.866303e-06
     96    123   2   0.50000    -0.1200000    0.0600000   2.494471e-04  1.671101e-07
     96    124   2   0.50000    -0.1200000    0.0600000   2.494471e-04  1.671101e-07
    121     99   2   0.50000     0.0600000   -0.1800000   2.494471e-04  1.671101e-07
    121    123   2   0.50000     0.0600000    0.0600000   6.128906e-05  1.496315e-08
    121    124   2   0.50000     0.0600000    0.0600000   6.128906e-05  1.496315e-08
    122     99   2   0.50000     0.0600000   -0.1800000   2.494471e-04  1.671101e-07
    122    123   2   0.50000     0.0600000    0.0600000   6.128906e-05  1.496315e-08
    122    124   2   0.50000     0.0600000    0.0600000   6.128906e-05  1.496315e-08
     97    125   2   0.50000    -0.1200000    0.0600000   2.494471e-04  1.671101e-07
     97    126   2   0.50000    -0.1200000    0.0600000   2.494471e-04  1.671101e-07
     97    127   2   0.50000    -0.1200000    0.0600000   2.494471e-04  1.671101e-07
    123    125   2   0.50000     0.0600000    0.0600000   6.128906e-05  1.496315e-08
    123    126   2   0.50000     0.0600000    0.0600000   6.128906e-05  1.496315e-08
    123    127   2   0.50000     0.0600000    0.0600000   6.128906e-05  1.496315e-08
    124    125   2   0.50000     0.0600000    0.0600000   6.128906e-05  1.496315e-08
    124    126   2   0.50000     0.0600000    0.0600000   6.128906e-05  1.496315e-08
    124    127   2   0.50000     0.0600000    0.0600000   6.128906e-05  1.496315e-08
     87    130   2   0.50000    -0.0600000   -0.1200000   1.015252e-03  1.866303e-06
     87    144   2   0.50000    -0.0600000    0.0600000   2.494471e-04  1.671101e-07
     87    170   2   0.50000    -0.0600000   -0.1200000   1.015252e-03  1.866303e-06
    142    130   2   0.50000     0.0600000   -0.1200000   2.494471e-04  1.671101e-07
    142    144   2   0.50000     0.0600000    0.0600000   6.128906e-05  1.496315e-08
    142    170   2   0.50000     0.0600000   -0.1200000   2.494471e-04  1.671101e-07
    143    130   2   0.50000     0.0600000   -0.1200000   2.494471e-04  1.671101e-07
    143    144   2   0.50000     0.0600000    0.0600000   6.128906e-05  1.496315e-08
    143    170   2   0.50000     0.0600000   -0.1200000   2.494471e-04  1.671101e-07
    128    131   2   0.50000    -0.1200000   -0.1200000   1.015252e-03  1.866303e-06
    128    145   2   0.50000    -0.1200000    0.0600000   2.494471e-04  1.671101e-07
    128    146   2   0.50000    -0.1200000    0.0600000   2.494471e-04  1.671101e-07
    144    131   2   0.50000     0.0600000   -0.1200000   2.494471e-04  1.671101e-07
    144    145   2   0.50000     0.0600000    0.0600000   6.128906e-05  1.496315e-08
    144    146   2   0.50000     0.0600000    0.0600000   6.128906e-05  1.496315e-08
    170    131   2   0.50000    -0.1200000   -0.1200000   1.015252e-03  1.866303e-06
    170    145   2   0.50000    -0.1200000    0.0600000   2.494471e-04  1.671101e-07
    170    146   2   0.50000    -0.1200000    0.0600000   2.494471e-04  1.671101e-07
    128    171   2   0.50000    -0.1200000   -0.0600000   1.015252e-03  1.866303e-06
    128    184   2   0.50000    -0.1200000    0.0600000   2.494471e-04  1.671101e-07
    128    185   2   0.50000    -0.1200000    0.0600000   2.494471e-04  1.671101e-07
    130    171   2   0.50000    -0.1200000   -0.0600000   1.015252e-03  1.866303e-06
    130    184   2   0.50000    -0.1200000    0.0600000   2.494471e-04  1.671101e-07
    130    185   2   0.50000    -0.1200000    0.0600000   2.494471e-04  1.671101e-07
    144    171   2   0.50000     0.0600000   -0.0600000   2.494471e-04  1.671101e-07
    144    184   2   0.50000     0.0600000    0.0600000   6.128906e-05  1.496315e-08
    144    185   2   0.50000     0.0600000    0.0600000   6.128906e-05  1.496315e-08
    129    132   2   0.50000    -0.0600000   -0.1200000   1.015252e-03  1.866303e-06
    129    147   2   0.50000    -0.0600000    0.0600000   2.494471e-04  1.671101e-07
    129    148   2   0.50000    -0.0600000    0.0600000   2.494471e-04  1.671101e-07
    145    132   2   0.50000     0.0600000   -0.1200000   2.494471e-04  1.671101e-07
    145    147   2   0.50000     0.0600000    0.0600000   6.128906e-05  1.496315e-08
    145    148   2   0.50000     0.0600000    0.0600000   6.128906e-05  1.496315e-08
    146    132   2   0.50000     0.0600000   -0.1200000   2.494471e-04  1.671101e-07
    146    147   2   0.50000     0.0600000    0.0600000   6.128906e-05  1.496315e-08
    146    148   2   0.50000     0.0600000    0.0600000   6.128906e-05  1.496315e-08
    130    133   2   0.50000    -0.1200000   -0.1200000   1.015252e-03  1.866303e-06
    130    149   2   0.50000    -0.1200000    0.0600000   2.494471e-04  1.671101e-07
    130    150   2   0.50000    -0.1200000    0.0600000   2.494471e-04  1.671101e-07
    147    133   2   0.50000     0.0600000   -0.1200000   2.494471e-04  1.671101e-07
    147    149   2   0.50000     0.0600000    0.0600000   6.128906e-05  1.496315e-08
    147    150   2   0.50000     0.0600000    0.0600000   6.128906e-05  1.496315e-08
    148    133   2   0.50000     0.0600000   -0.1200000   2.494471e-04  1.671101e-07
    148    149   2   0.50000     0.0600000    0.0600000   6.128906e-05  1.496315e-08
    148    150   2   0.50000     0.0600000    0.0600000   6.128906e-05  1.496315e-08
    131    134   2   0.50000    -0.1200000   -0.1200000   1.015252e-03  1.866303e-06
    131    151   2   0.50000    -0.1200000    0.0600000   2.494471e-04  1.671101e-07
    131    152   2   0.50000    -0.1200000    0.0600000   2.494471e-04  1.671101e-07
    149    134   2   0.50000     0.0600000   -0.1200000   2.494471e-04  1.671101e-07
    149    151   2   0.50000     0.0600000    0.0600000   6.128906e-05  1.496315e-08
    149    152   2   0.50000     0.0600000    0.0600000   6.128906e-05  1.496315e-08
    150    134   2   0.50000     0.0600000   -0.1200000   2.494471e-04  1.671101e-07
    150    151   2   0.50000     0.0600000    0.0600000   6.128906e-05  1.496315e-08
    150    152   2   0.50000     0.0600000    0.0600000   6.128906e-05  1.496315e-08
    132    135   2   0.50000    -0.1200000   -0.1200000   1.015252e-03  1.866303e-06
    132    153   2   0.50000    -0.1200000    0.0600000   2.494471e-04  1.671101e-07
    132    154   2   0.50000    -0.1200000    0.0600000   2.494471e-04  1.671101e-07
    151    135   2   0.50000     0.0600000   -0.1200000   2.494471e-04  1.671101e-07
    151    153   2   0.50000     0.0600000    0.0600000   6.128906e-05  1.496315e-08
    151    154   2   0.50000     0.0600000    0.0600000   6.128906e-05  1.496315e-08
    152    135   2   0.50000     0.0600000   -0.1200000   2.494471e-04  1.671101e-07
    152    153   2   0.50000     0.0600000    0.0600000   6.128906e-05  1.496315e-08
    152    154   2   0.50000     0.0600000    0.0600000   6.128906e-05  1.496315e-08
    133    136   2   0.50000    -0.1200000   -0.1200000   1.015252e-03  1.866303e-06
    133    155   2   0.50000    -0.1200000    0.0600000   2.494471e-04  1.671101e-07
    133    156   2   0.50000    -0.1200000    0.0600000   2.494471e-04  1.671101e-07
    153    136   2   0.50000     0.0600000   -0.1200000   2.494471e-04  1.671101e-07
    153    155   2   0.50000     0.0600000    0.0600000   6.128906e-05  1.496315e-08
    153    156   2   0.50000     0.0600000    0.0600000   6.128906e-05  1.496315e-08
    154    136   2   0.50000     0.0600000   -0.1200000   2.494471e-04  1.671101e-07
    154    155   2   0.50000     0.0600000    0.0600000   6.128906e-05  1.496315e-08
    154    156   2   0.50000     0.0600000    0.0600000   6.128906e-05  1.496315e-08
    134    137   2   0.50000    -0.1200000   -0.1200000   1.015252e-03  1.866303e-06
    134    157   2   0.50000    -0.1200000    0.0600000   2.494471e-04  1.671101e-07
    134    158   2   0.50000    -0.1200000    0.0600000   2.494471e-04  1.671101e-07
    155    137   2   0.50000     0.0600000   -0.1200000   2.494471e-04  1.671101e-07
    155    157   2   0.50000     0.0600000    0.0600000   6.128906e-05  1.496315e-08
    155    158   2   0.50000     0.0600000    0.0600000   6.128906e-05  1.496315e-08
    156    137   2   0.50000     0.0600000   -0.1200000   2.494471e-04  1.671101e-07
    156    157   2   0.50000     0.0600000    0.0600000   6.128906e-05  1.496315e-08
    156    158   2   0.50000     0.0600000    0.0600000   6.128906e-05  1.496315e-08
    135    138   2   0.50000    -0.1200000   -0.1200000   1.015252e-03  1.866303e-06
    135    159   2   0.50000    -0.1200000    0.0600000   2.494471e-04  1.671101e-07
    135    160   2   0.50000    -0.1200000    0.0600000   2.494471e-04  1.671101e-07
    157    138   2   0.50000     0.0600000   -0.1200000   2.494471e-04  1.671101e-07
    157    159   2   0.50000     0.0600000    0.0600000   6.128906e-05  1.496315e-08
    157    160   2   0.50000     0.0600000    0.0600000   6.128906e-05  1.496315e-08
    158    138   2   0.50000     0.0600000   -0.1200000   2.494471e-04  1.671101e-07
    158    159   2   0.50000     0.0600000    0.0600000   6.128906e-05  1.496315e-08
    158    160   2   0.50000     0.0600000    0.0600000   6.128906e-05  1.496315e-08
    136    139   2   0.50000    -0.1200000   -0.1200000   1.015252e-03  1.866303e-06
    136    161   2   0.50000    -0.1200000    0.0600000   2.494471e-04  1.671101e-07
    136    162   2   0.50000    -0.1200000    0.0600000   2.494471e-04  1.671101e-07
    159    139   2   0.50000     0.0600000   -0.1200000   2.494471e-04  1.671101e-07
    159    161   2   0.50000     0.0600000    0.0600000   6.128906e-05  1.496315e-08
    159    162   2   0.50000     0.0600000    0.0600000   6.128906e-05  1.496315e-08
    160    139   2   0.50000     0.0600000   -0.1200000   2.494471e-04  1.671101e-07
    160    161   2   0.50000     0.0600000    0.0600000   6.128906e-05  1.496315e-08
    160    162   2   0.50000     0.0600000    0.0600000   6.128906e-05  1.496315e-08
    137    140   2   0.50000    -0.1200000   -0.1200000   1.015252e-03  1.866303e-06
    137    163   2   0.50000    -0.1200000    0.0600000   2.494471e-04  1.671101e-07
    137    164   2   0.50000    -0.1200000    0.0600000   2.494471e-04  1.671101e-07
    161    140   2   0.50000     0.0600000   -0.1200000   2.494471e-04  1.671101e-07
    161    163   2   0.50000     0.0600000    0.0600000   6.128906e-05  1.496315e-08
    161    164   2   0.50000     0.0600000    0.0600000   6.128906e-05  1.496315e-08
    162    140   2   0.50000     0.0600000   -0.1200000   2.494471e-04  1.671101e-07
    162    163   2   0.50000     0.0600000    0.0600000   6.128906e-05  1.496315e-08
    162    164   2   0.50000     0.0600000    0.0600000   6.128906e-05  1.496315e-08
    138    141   2   0.50000    -0.1200000   -0.1800000   1.015252e-03  1.866303e-06
    138    165   2   0.50000    -0.1200000    0.0600000   2.494471e-04  1.671101e-07
    138    166   2   0.50000    -0.1200000    0.0600000   2.494471e-04  1.671101e-07
    163    141   2   0.50000     0.0600000   -0.1800000   2.494471e-04  1.671101e-07
    163    165   2   0.50000     0.0600000    0.0600000   6.128906e-05  1.496315e-08
    163    166   2   0.50000     0.0600000    0.0600000   6.128906e-05  1.496315e-08
    164    141   2   0.50000     0.0600000   -0.1800000   2.494471e-04  1.671101e-07
    164    165   2   0.50000     0.0600000    0.0600000   6.128906e-05  1.496315e-08
    164    166   2   0.50000     0.0600000    0.0600000   6.128906e-05  1.496315e-08
    139    167   2   0.50000    -0.1200000    0.0600000   2.494471e-04  1.671101e-07
    139    168   2   0.50000    -0.1200000    0.0600000   2.494471e-04  1.671101e-07
    139    169   2   0.50000    -0.1200000    0.0600000   2.494471e-04  1.671101e-07
    165    167   2   0.50000     0.0600000    0.0600000   6.128906e-05  1.496315e-08
    165    168   2   0.50000     0.0600000    0.0600000   6.128906e-05  1.496315e-08
    165    169   2   0.50000     0.0600000    0.0600000   6.128906e-05  1.496315e-08
    166    167   2   0.50000     0.0600000    0.0600000   6.128906e-05  1.496315e-08
    166    168   2   0.50000     0.0600000    0.0600000   6.128906e-05  1.496315e-08
    166    169   2   0.50000     0.0600000    0.0600000   6.128906e-05  1.496315e-08
    129    172   2   0.50000    -0.0600000   -0.1200000   1.015252e-03  1.866303e-06
    129    186   2   0.50000    -0.0600000    0.0600000   2.494471e-04  1.671101e-07
    129    212   2   0.50000    -0.0600000   -0.1200000   1.015252e-03  1.866303e-06
    184    172   2   0.50000     0.0600000   -0.1200000   2.494471e-04  1.671101e-07
    184    186   2   0.50000     0.0600000    0.0600000   6.128906e-05  1.496315e-08
    184    212   2   0.50000     0.0600000   -0.1200000   2.494471e-04  1.671101e-07
    185    172   2   0.50000     0.0600000   -0.1200000   2.494471e-04  1.671101e-07
    185    186   2   0.50000     0.0600000    0.0600000   6.128906e-05  1.496315e-08
    185    212   2   0.50000     0.0600000   -0.1200000   2.494471e-04  1.671101e-07
    170    173   2   0.50000    -0.1200000   -0.1200000   1.015252e-03  1.866303e-06
    170    187   2   0.50000    -0.1200000    0.0600000   2.494471e-04  1.671101e-07
    170    188   2   0.50000    -0.1200000    0.0600000   2.494471e-04  1.671101e-07
    186    173   2   0.50000     0.0600000   -0.1200000   2.494471e-04  1.671101e-07
    186    187   2   0.50000     0.0600000    0.0600000   6.128906e-05  1.496315e-08
    186    188   2   0.50000     0.0600000    0.0600000   6.128906e-05  1.496315e-08
    212    173   2   0.50000    -0.1200000   -0.1200000   1.015252e-03  1.866303e-06
    212    187   2   0.50000    -0.1200000    0.0600000   2.494471e-04  1.671101e-07
    212    188   2   0.50000    -0.1200000    0.0600000   2.494471e-04  1.671101e-07
    170    213   2   0.50000    -0.1200000   -0.0600000   1.015252e-03  1.866303e-06
    170    226   2   0.50000    -0.1200000    0.0600000   2.494471e-04  1.671101e-07
    170    227   2   0.50000    -0.1200000    0.0600000   2.494471e-04  1.671101e-07
    172    213   2   0.50000    -0.1200000   -0.0600000   1.015252e-03  1.866303e-06
    172    226   2   0.50000    -0.1200000    0.0600000   2.494471e-04  1.671101e-07
    172    227   2   0.50000    -0.1200000    0.0600000   2.494471e-04  1.671101e-07
    186    213   2   0.50000     0.0600000   -0.0600000   2.494471e-04  1.671101e-07
    186    226   2   0.50000     0.0600000    0.0600000   6.128906e-05  1.496315e-08
    186    227   2   0.50000     0.0600000    0.0600000   6.128906e-05  1.496315e-08
    171    174   2   0.50000    -0.0600000   -0.1200000   1.015252e-03  1.866303e-06
    171    189   2   0.50000    -0.0600000    0.0600000   2.494471e-04  1.671101e-07
    171    190   2   0.50000    -0.0600000    0.0600000   2.494471e-04  1.671101e-07
    187    174   2   0.50000     0.0600000   -0.1200000   2.494471e-04  1.671101e-07
    187    189   2   0.50000     0.0600000    0.0600000   6.128906e-05  1.496315e-08
    187    190   2   0.50000     0.0600000    0.0600000   6.128906e-05  1.496315e-08
    188    174   2   0.50000     0.0600000   -0.1200000   2.494471e-04  1.671101e-07
    188    189   2   0.50000     0.0600000    0.0600000   6.128906e-05  1.496315e-08
    188    190   2   0.50000     0.0600000    0.0600000   6.128906e-05  1.496315e-08
    172    175   2   0.50000    -0.1200000   -0.1200000   1.015252e-03  1.866303e-06
    172    191   2   0.50000    -0.1200000    0.0600000   2.494471e-04  1.671101e-07
    172    192   2   0.50000    -0.1200000    0.0600000   2.494471e-04  1.671101e-07
    189    175   2   0.50000     0.0600000   -0.1200000   2.494471e-04  1.671101e-07
    189    191   2   0.50000     0.0600000    0.0600000   6.128906e-05  1.496315e-08
    189    192   2   0.50000     0.0600000    0.0600000   6.128906e-05  1.496315e-08
    190    175   2   0.50000     0.0600000   -0.1200000   2.494471e-04  1.671101e-07
    190    191   2   0.50000     0.0600000    0.0600000   6.128906e-05  1.496315e-08
    190    192   2   0.50000     0.0600000    0.0600000   6.128906e-05  1.496315e-08
    173    176   2   0.50000    -0.1200000   -0.1200000   1.015252e-03  1.866303e-06
    173    193   2   0.50000    -0.1200000    0.0600000   2.494471e-04  1.671101e-07
    173    194   2   0.50000    -0.1200000    0.0600000   2.494471e-04  1.671101e-07
    191    176   2   0.50000     0.0600000   -0.1200000   2.494471e-04  1.671101e-07
    191    193   2   0.50000     0.0600000    0.0600000   6.128906e-05  1.496315e-08
    191    194   2   0.50000     0.0600000    0.0600000   6.128906e-05  1.496315e-08
    192    176   2   0.50000     0.0600000   -0.1200000   2.494471e-04  1.671101e-07
    192    193   2   0.50000     0.0600000    0.0600000   6.128906e-05  1.496315e-08
    192    194   2   0.50000     0.0600000    0.0600000   6.128906e-05  1.496315e-08
    174    177   2   0.50000    -0.1200000   -0.1200000   1.015252e-03  1.866303e-06
    174    195   2   0.50000    -0.1200000    0.0600000   2.494471e-04  1.671101e-07
    174    196   2   0.50000    -0.1200000    0.0600000   2.494471e-04  1.671101e-07
    193    177   2   0.50000     0.0600000   -0.1200000   2.494471e-04  1.671101e-07
    193    195   2   0.50000     0.0600000    0.0600000   6.128906e-05  1.496315e-08
    193    196   2   0.50000     0.0600000    0.0600000   6.128906e-05  1.496315e-08
    194    177   2   0.50000     0.0600000   -0.1200000   2.494471e-04  1.671101e-07
    194    195   2   0.50000     0.0600000    0.0600000   6.128906e-05  1.496315e-08
    194    196   2   0.50000     0.0600000    0.0600000   6.128906e-05  1.496315e-08
    175    178   2   0.50000    -0.1200000   -0.1200000   1.015252e-03  1.866303e-06
    175    197   2   0.50000    -0.1200000    0.0600000   2.494471e-04  1.671101e-07
    175    198   2   0.50000    -0.1200000    0.0600000   2.494471e-04  1.671101e-07
    195    178   2   0.50000     0.0600000   -0.1200000   2.494471e-04  1.671101e-07
    195    197   2   0.50000     0.0600000    0.0600000   6.128906e-05  1.496315e-08
    195    198   2   0.50000     0.0600000    0.0600000   6.128906e-05  1.496315e-08
    196    178   2   0.50000     0.0600000   -0.1200000   2.494471e-04  1.671101e-07
    196    197   2   0.50000     0.0600000    0.0600000   6.128906e-05  1.496315e-08
    196    198   2   0.50000     0.0600000    0.0600000   6.128906e-05  1.496315e-08
    176    179   2   0.50000    -0.1200000   -0.1200000   1.015252e-03  1.866303e-06
    176    199   2   0.50000    -0.1200000    0.0600000   2.494471e-04  1.671101e-07
    176    200   2   0.50000    -0.1200000    0.0600000   2.494471e-04  1.671101e-07
    197    179   2   0.50000     0.0600000   -0.1200000   2.494471e-04  1.671101e-07
    197    199   2   0.50000     0.0600000    0.0600000   6.128906e-05  1.496315e-08
    197    200   2   0.50000     0.0600000    0.0600000   6.128906e-05  1.496315e-08
    198    179   2   0.50000     0.0600000   -0.1200000   2.494471e-04  1.671101e-07
    198    199   2   0.50000     0.0600000    0.0600000   6.128906e-05  1.496315e-08
    198    200   2   0.50000     0.0600000    0.0600000   6.128906e-05  1.496315e-08
    177    180   2   0.50000    -0.1200000   -0.1200000   1.015252e-03  1.866303e-06
    177    201   2   0.50000    -0.1200000    0.0600000   2.494471e-04  1.671101e-07
    177    202   2   0.50000    -0.1200000    0.0600000   2.494471e-04  1.671101e-07
    199    180   2   0.50000     0.0600000   -0.1200000   2.494471e-04  1.671101e-07
    199    201   2   0.50000     0.0600000    0.0600000   6.128906e-05  1.496315e-08
    199    202   2   0.50000     0.0600000    0.0600000   6.128906e-05  1.496315e-08
    200    180   2   0.50000     0.0600000   -0.1200000   2.494471e-04  1.671101e-07
    200    201   2   0.50000     0.0600000    0.0600000   6.128906e-05  1.496315e-08
    200    202   2   0.50000     0.0600000    0.0600000   6.128906e-05  1.496315e-08
    178    181   2   0.50000    -0.1200000   -0.1200000   1.015252e-03  1.866303e-06
    178    203   2   0.50000    -0.1200000    0.0600000   2.494471e-04  1.671101e-07
    178    204   2   0.50000    -0.1200000    0.0600000   2.494471e-04  1.671101e-07
    201    181   2   0.50000     0.0600000   -0.1200000   2.494471e-04  1.671101e-07
    201    203   2   0.50000     0.0600000    0.0600000   6.128906e-05  1.496315e-08
    201    204   2   0.50000     0.0600000    0.0600000   6.128906e-05  1.496315e-08
    202    181   2   0.50000     0.0600000   -0.1200000   2.494471e-04  1.671101e-07
    202    203   2   0.50000     0.0600000    0.0600000   6.128906e-05  1.496315e-08
    202    204   2   0.50000     0.0600000    0.0600000   6.128906e-05  1.496315e-08
    179    182   2   0.50000    -0.1200000   -0.1200000   1.015252e-03  1.866303e-06
    179    205   2   0.50000    -0.1200000    0.0600000   2.494471e-04  1.671101e-07
    179    206   2   0.50000    -0.1200000    0.0600000   2.494471e-04  1.671101e-07
    203    182   2   0.50000     0.0600000   -0.1200000   2.494471e-04  1.671101e-07
    203    205   2   0.50000     0.0600000    0.0600000   6.128906e-05  1.496315e-08
    203    206   2   0.50000     0.0600000    0.0600000   6.128906e-05  1.496315e-08
    204    182   2   0.50000     0.0600000   -0.1200000   2.494471e-04  1.671101e-07
    204    205   2   0.50000     0.0600000    0.0600000   6.128906e-05  1.496315e-08
    204    206   2   0.50000     0.0600000    0.0600000   6.128906e-05  1.496315e-08
    180    183   2   0.50000    -0.1200000   -0.1800000   1.015252e-03  1.866303e-06
    180    207   2   0.50000    -0.1200000    0.0600000   2.494471e-04  1.671101e-07
    180    208   2   0.50000    -0.1200000    0.0600000   2.494471e-04  1.671101e-07
    205    183   2   0.50000     0.0600000   -0.1800000   2.494471e-04  1.671101e-07
    205    207   2   0.50000     0.0600000    0.0600000   6.128906e-05  1.496315e-08
    205    208   2   0.50000     0.0600000    0.0600000   6.128906e-05  1.496315e-08
    206    183   2   0.50000     0.0600000   -0.1800000   2.494471e-04  1.671101e-07
    206    207   2   0.50000     0.0600000    0.0600000   6.128906e-05  1.496315e-08
    206    208   2   0.50000     0.0600000    0.0600000   6.128906e-05  1.496315e-08
    181    209   2   0.50000    -0.1200000    0.0600000   2.494471e-04  1.671101e-07
    181    210   2   0.50000    -0.1200000    0.0600000   2.494471e-04  1.671101e-07
    181    211   2   0.50000    -0.1200000    0.0600000   2.494471e-04  1.671101e-07
    207    209   2   0.50000     0.0600000    0.0600000   6.128906e-05  1.496315e-08
    207    210   2   0.50000     0.0600000    0.0600000   6.128906e-05  1.496315e-08
    207    211   2   0.50000     0.0600000    0.0600000   6.128906e-05  1.496315e-08
    208    209   2   0.50000     0.0600000    0.0600000   6.128906e-05  1.496315e-08
    208    210   2   0.50000     0.0600000    0.0600000   6.128906e-05  1.496315e-08
    208    211   2   0.50000     0.0600000    0.0600000   6.128906e-05  1.496315e-08
    171    214   2   0.50000    -0.0600000   -0.1200000   1.015252e-03  1.866303e-06
    171    228   2   0.50000    -0.0600000    0.0600000   2.494471e-04  1.671101e-07
    171    254   2   0.50000    -0.0600000   -0.1200000   1.015252e-03  1.866303e-06
    226    214   2   0.50000     0.0600000   -0.1200000   2.494471e-04  1.671101e-07
    226    228   2   0.50000     0.0600000    0.0600000   6.128906e-05  1.496315e-08
    226    254   2   0.50000     0.0600000   -0.1200000   2.494471e-04  1.671101e-07
    227    214   2   0.50000     0.0600000   -0.1200000   2.494471e-04  1.671101e-07
    227    228   2   0.50000     0.0600000    0.0600000   6.128906e-05  1.496315e-08
    227    254   2   0.50000     0.0600000   -0.1200000   2.494471e-04  1.671101e-07
    212    215   2   0.50000    -0.1200000   -0.1200000   1.015252e-03  1.866303e-06
    212    229   2   0.50000    -0.1200000    0.0600000   2.494471e-04  1.671101e-07
    212    230   2   0.50000    -0.1200000    0.0600000   2.494471e-04  1.671101e-07
    228    215   2   0.50000     0.0600000   -0.1200000   2.494471e-04  1.671101e-07
    228    229   2   0.50000     0.0600000    0.0600000   6.128906e-05  1.496315e-08
    228    230   2   0.50000     0.0600000    0.0600000   6.128906e-05  1.496315e-08
    254    215   2   0.50000    -0.1200000   -0.1200000   1.015252e-03  1.866303e-06
    254    229   2   0.50000    -0.1200000    0.0600000   2.494471e-04  1.671101e-07
    254    230   2   0.50000    -0.1200000    0.0600000   2.494471e-04  1.671101e-07
    212    255   2   0.50000    -0.1200000   -0.0600000   1.015252e-03  1.866303e-06
    212    268   2   0.50000    -0.1200000    0.0600000   2.494471e-04  1.671101e-07
    212    269   2   0.50000    -0.1200000    0.0600000   2.494471e-04  1.671101e-07
    214    255   2   0.50000    -0.1200000   -0.0600000   1.015252e-03  1.866303e-06
    214    268   2   0.50000    -0.1200000    0.0600000   2.494471e-04  1.671101e-07
    214    269   2   0.50000    -0.1200000    0.0600000   2.494471e-04  1.671101e-07
    228    255   2   0.50000     0.0600000   -0.0600000   2.494471e-04  1.671101e-07
    228    268   2   0.50000     0.0600000    0.0600000   6.128906e-05  1.496315e-08
    228    269   2   0.50000     0.0600000    0.0600000   6.128906e-05  1.496315e-08
    213    216   2   0.50000    -0.0600000   -0.1200000   1.015252e-03  1.866303e-06
    213    231   2   0.50000    -0.0600000    0.0600000   2.494471e-04  1.671101e-07
    213    232   2   0.50000    -0.0600000    0.0600000   2.494471e-04  1.671101e-07
    229    216   2   0.50000     0.0600000   -0.1200000   2.494471e-04  1.671101e-07
    229    231   2   0.50000     0.0600000    0.0600000   6.128906e-05  1.496315e-08
    229    232   2   0.50000     0.0600000    0.0600000   6.128906e-05  1.496315e-08
    230    216   2   0.50000     0.0600000   -0.1200000   2.494471e-04  1.671101e-07
    230    231   2   0.50000     0.0600000    0.0600000   6.128906e-05  1.496315e-08
    230    232   2   0.50000     0.0600000    0.0600000   6.128906e-05  1.496315e-08
    214    217   2   0.50000    -0.1200000   -0.1200000   1.015252e-03  1.866303e-06
    214    233   2   0.50000    -0.1200000    0.0600000   2.494471e-04  1.671101e-07
    214    234   2   0.50000    -0.1200000    0.0600000   2.494471e-04  1.671101e-07
    231    217   2   0.50000     0.0600000   -0.1200000   2.494471e-04  1.671101e-07
    231    233   2   0.50000     0.0600000    0.0600000   6.128906e-05  1.496315e-08
    231    234   2   0.50000     0.0600000    0.0600000   6.128906e-05  1.496315e-08
    232    217   2   0.50000     0.0600000   -0.1200000   2.494471e-04  1.671101e-07
    232    233   2   0.50000     0.0600000    0.0600000   6.128906e-05  1.496315e-08
    232    234   2   0.50000     0.0600000    0.0600000   6.128906e-05  1.496315e-08
    215    218   2   0.50000    -0.1200000   -0.1200000   1.015252e-03  1.866303e-06
    215    235   2   0.50000    -0.1200000    0.0600000   2.494471e-04  1.671101e-07
    215    236   2   0.50000    -0.1200000    0.0600000   2.494471e-04  1.671101e-07
    233    218   2   0.50000     0.0600000   -0.1200000   2.494471e-04  1.671101e-07
    233    235   2   0.50000     0.0600000    0.0600000   6.128906e-05  1.496315e-08
    233    236   2   0.50000     0.0600000    0.0600000   6.128906e-05  1.496315e-08
    234    218   2   0.50000     0.0600000   -0.1200000   2.494471e-04  1.671101e-07
    234    235   2   0.50000     0.0600000    0.0600000   6.128906e-05  1.496315e-08
    234    236   2   0.50000     0.0600000    0.0600000   6.128906e-05  1.496315e-08
    216    219   2   0.50000    -0.1200000   -0.1200000   1.015252e-03  1.866303e-06
    216    237   2   0.50000    -0.1200000    0.0600000   2.494471e-04  1.671101e-07
    216    238   2   0.50000    -0.1200000    0.0600000   2.494471e-04  1.671101e-07
    235    219   2   0.50000     0.0600000   -0.1200000   2.494471e-04  1.671101e-07
    235    237   2   0.50000     0.0600000    0.0600000   6.128906e-05  1.496315e-08
    235    238   2   0.50000     0.0600000    0.0600000   6.128906e-05  1.496315e-08
    236    219   2   0.50000     0.0600000   -0.1200000   2.494471e-04  1.671101e-07
    236    237   2   0.50000     0.0600000    0.0600000   6.128906e-05  1.496315e-08
    236    238   2   0.50000     0.0600000    0.0600000   6.128906e-05  1.496315e-08
    217    220   2   0.50000    -0.1200000   -0.1200000   1.015252e-03  1.866303e-06
    217    239   2   0.50000    -0.1200000    0.0600000   2.494471e-04  1.671101e-07
    217    240   2   0.50000    -0.1200000    0.0600000   2.494471e-04  1.671101e-07
    237    220   2   0.50000     0.0600000   -0.1200000   2.494471e-04  1.671101e-07
    237    239   2   0.50000     0.0600000    0.0600000   6.128906e-05  1.496315e-08
    237    240   2   0.50000     0.0600000    0.0600000   6.128906e-05  1.496315e-08
    238    220   2   0.50000     0.0600000   -0.1200000   2.494471e-04  1.671101e-07
    238    239   2   0.50000     0.0600000    0.0600000   6.128906e-05  1.496315e-08
    238    240   2   0.50000     0.0600000    0.0600000   6.128906e-05  1.496315e-08
    218    221   2   0.50000    -0.1200000   -0.1200000   1.015252e-03  1.866303e-06
    218    241   2   0.50000    -0.1200000    0.0600000   2.494471e-04  1.671101e-07
    218    242   2   0.50000    -0.1200000    0.0600000   2.494471e-04  1.671101e-07
    239    221   2   0.50000     0.0600000   -0.1200000   2.494471e-04  1.671101e-07
    239    241   2   0.50000     0.0600000    0.0600000   6.128906e-05  1.496315e-08
    239    242   2   0.50000     0.0600000    0.0600000   6.128906e-05  1.496315e-08
    240    221   2   0.50000     0.0600000   -0.1200000   2.494471e-04  1.671101e-07
    240    241   2   0.50000     0.0600000    0.0600000   6.128906e-05  1.496315e-08
    240    242   2   0.50000     0.0600000    0.0600000   6.128906e-05  1.496315e-08
    219    222   2   0.50000    -0.1200000   -0.1200000   1.015252e-03  1.866303e-06
    219    243   2   0.50000    -0.1200000    0.0600000   2.494471e-04  1.671101e-07
    219    244   2   0.50000    -0.1200000    0.0600000   2.494471e-04  1.671101e-07
    241    222   2   0.50000     0.0600000   -0.1200000   2.494471e-04  1.671101e-07
    241    243   2   0.50000     0.0600000    0.0600000   6.128906e-05  1.496315e-08
    241    244   2   0.50000     0.0600000    0.0600000   6.128906e-05  1.496315e-08
    242    222   2   0.50000     0.0600000   -0.1200000   2.494471e-04  1.671101e-07
    242    243   2   0.50000     0.0600000    0.0600000   6.128906e-05  1.496315e-08
    242    244   2   0.50000     0.0600000    0.0600000   6.128906e-05  1.496315e-08
    220    223   2   0.50000    -0.1200000   -0.1200000   1.015252e-03  1.866303e-06
    220    245   2   0.50000    -0.1200000    0.0600000   2.494471e-04  1.671101e-07
    220    246   2   0.50000    -0.1200000    0.0600000   2.494471e-04  1.671101e-07
    243    223   2   0.50000     0.0600000   -0.1200000   2.494471e-04  1.671101e-07
    243    245   2   0.50000     0.0600000    0.0600000   6.128906e-05  1.496315e-08
    243    246   2   0.50000     0.0600000    0.0600000   6.128906e-05  1.496315e-08
    244    223   2   0.50000     0.0600000   -0.1200000   2.494471e-04  1.671101e-07
    244    245   2   0.50000     0.0600000    0.0600000   6.128906e-05  1.496315e-08
    244    246   2   0.50000     0.0600000    0.0600000   6.128906e-05  1.496315e-08
    221    224   2   0.50000    -0.1200000   -0.1200000   1.015252e-03  1.866303e-06
    221    247   2   0.50000    -0.1200000    0.0600000   2.494471e-04  1.671101e-07
    221    248   2   0.50000    -0.1200000    0.0600000   2.494471e-04  1.671101e-07
    245    224   2   0.50000     0.0600000   -0.1200000   2.494471e-04  1.671101e-07
    245    247   2   0.50000     0.0600000    0.0600000   6.128906e-05  1.496315e-08
    245    248   2   0.50000     0.0600000    0.0600000   6.128906e-05  1.496315e-08
    246    224   2   0.50000     0.0600000   -0.1200000   2.494471e-04  1.671101e-07
    246    247   2   0.50000     0.0600000    0.0600000   6.128906e-05  1.496315e-08
    246    248   2   0.50000     0.0600000    0.0600000   6.128906e-05  1.496315e-08
    222    225   2   0.50000    -0.1200000   -0.1800000   1.015252e-03  1.866303e-06
    222    249   2   0.50000    -0.1200000    0.0600000   2.494471e-04  1.671101e-07
    222    250   2   0.50000    -0.1200000    0.0600000   2.494471e-04  1.671101e-07
    247    225   2   0.50000     0.0600000   -0.1800000   2.494471e-04  1.671101e-07
    247    249   2   0.50000     0.0600000    0.0600000   6.128906e-05  1.496315e-08
    247    250   2   0.50000     0.0600000    0.0600000   6.128906e-05  1.496315e-08
    248    225   2   0.50000     0.0600000   -0.1800000   2.494471e-04  1.671101e-07
    248    249   2   0.50000     0.0600000    0.0600000   6.128906e-05  1.496315e-08
    248    250   2   0.50000     0.0600000    0.0600000   6.128906e-05  1.496315e-08
    223    251   2   0.50000    -0.1200000    0.0600000   2.494471e-04  1.671101e-07
    223    252   2   0.50000    -0.1200000    0.0600000   2.494471e-04  1.671101e-07
    223    253   2   0.50000    -0.1200000    0.0600000   2.494471e-04  1.671101e-07
    249    251   2   0.50000     0.0600000    0.0600000   6.128906e-05  1.496315e-08
    249    252   2   0.50000     0.0600000    0.0600000   6.128906e-05  1.496315e-08
    249    253   2   0.50000     0.0600000    0.0600000   6.128906e-05  1.496315e-08
    250    251   2   0.50000     0.0600000    0.0600000   6.128906e-05  1.496315e-08
    250    252   2   0.50000     0.0600000    0.0600000   6.128906e-05  1.496315e-08
    250    253   2   0.50000     0.0600000    0.0600000   6.128906e-05  1.496315e-08
    213    256   2   0.50000    -0.0600000   -0.1200000   1.015252e-03  1.866303e-06
    213    270   2   0.50000    -0.0600000    0.0600000   2.494471e-04  1.671101e-07
    213    296   2   0.50000    -0.0600000   -0.1200000   1.015252e-03  1.866303e-06
    268    256   2   0.50000     0.0600000   -0.1200000   2.494471e-04  1.671101e-07
    268    270   2   0.50000     0.0600000    0.0600000   6.128906e-05  1.496315e-08
    268    296   2   0.50000     0.0600000   -0.1200000   2.494471e-04  1.671101e-07
    269    256   2   0.50000     0.0600000   -0.1200000   2.494471e-04  1.671101e-07
    269    270   2   0.50000     0.0600000    0.0600000   6.128906e-05  1.496315e-08
    269    296   2   0.50000     0.0600000   -0.1200000   2.494471e-04  1.671101e-07
    254    257   2   0.50000    -0.1200000   -0.1200000   1.015252e-03  1.866303e-06
    254    271   2   0.50000    -0.1200000    0.0600000   2.494471e-04  1.671101e-07
    254    272   2   0.50000    -0.1200000    0.0600000   2.494471e-04  1.671101e-07
    270    257   2   0.50000     0.0600000   -0.1200000   2.494471e-04  1.671101e-07
    270    271   2   0.50000     0.0600000    0.0600000   6.128906e-05  1.496315e-08
    270    272   2   0.50000     0.0600000    0.0600000   6.128906e-05  1.496315e-08
    296    257   2   0.50000    -0.1200000   -0.1200000   1.015252e-03  1.866303e-06
    296    271   2   0.50000    -0.1200000    0.0600000   2.494471e-04  1.671101e-07
    296    272   2   0.50000    -0.1200000    0.0600000   2.494471e-04  1.671101e-07
    254    297   2   0.50000    -0.1200000   -0.0600000   1.015252e-03  1.866303e-06
    254    310   2   0.50000    -0.1200000    0.0600000   2.494471e-04  1.671101e-07
    254    311   2   0.50000    -0.1200000    0.0600000   2.494471e-04  1.671101e-07
    256    297   2   0.50000    -0.1200000   -0.0600000   1.015252e-03  1.866303e-06
    256    310   2   0.50000    -0.1200000    0.0600000   2.494471e-04  1.671101e-07
    256    311   2   0.50000    -0.1200000    0.0600000   2.494471e-04  1.671101e-07
    270    297   2   0.50000     0.0600000   -0.0600000   2.494471e-04  1.671101e-07
    270    310   2   0.50000     0.0600000    0.0600000   6.128906e-05  1.496315e-08
    270    311   2   0.50000     0.0600000    0.0600000   6.128906e-05  1.496315e-08
    255    258   2   0.50000    -0.0600000   -0.1200000   1.015252e-03  1.866303e-06
    255    273   2   0.50000    -0.0600000    0.0600000   2.494471e-04  1.671101e-07
    255    274   2   0.50000    -0.0600000    0.0600000   2.494471e-04  1.671101e-07
    271    258   2   0.50000     0.0600000   -0.1200000   2.494471e-04  1.671101e-07
    271    273   2   0.50000     0.0600000    0.0600000   6.128906e-05  1.496315e-08
    271    274   2   0.50000     0.0600000    0.0600000   6.128906e-05  1.496315e-08
    272    258   2   0.50000     0.0600000   -0.1200000   2.494471e-04  1.671101e-07
    272    273   2   0.50000     0.0600000    0.0600000   6.128906e-05  1.496315e-08
    272    274   2   0.50000     0.0600000    0.0600000   6.128906e-05  1.496315e-08
    256    259   2   0.50000    -0.1200000   -0.1200000   1.015252e-03  1.866303e-06
    256    275   2   0.50000    -0.1200000    0.0600000   2.494471e-04  1.671101e-07
    256    276   2   0.50000    -0.1200000    0.0600000   2.494471e-04  1.671101e-07
    273    259   2   0.50000     0.0600000   -0.1200000   2.494471e-04  1.671101e-07
    273    275   2   0.50000     0.0600000    0.0600000   6.128906e-05  1.496315e-08
    273    276   2   0.50000     0.0600000    0.0600000   6.128906e-05  1.496315e-08
    274    259   2   0.50000     0.0600000   -0.1200000   2.494471e-04  1.671101e-07
    274    275   2   0.50000     0.0600000    0.0600000   6.128906e-05  1.496315e-08
    274    276   2   0.50000     0.0600000    0.0600000   6.128906e-05  1.496315e-08
    257    260   2   0.50000    -0.1200000   -0.1200000   1.015252e-03  1.866303e-06
    257    277   2   0.50000    -0.1200000    0.0600000   2.494471e-04  1.671101e-07
    257    278   2   0.50000    -0.1200000    0.0600000   2.494471e-04  1.671101e-07
    275    260   2   0.50000     0.0600000   -0.1200000   2.494471e-04  1.671101e-07
    275    277   2   0.50000     0.0600000    0.0600000   6.128906e-05  1.496315e-08
    275    278   2   0.50000     0.0600000    0.0600000   6.128906e-05  1.496315e-08
    276    260   2   0.50000     0.0600000   -0.1200000   2.494471e-04  1.671101e-07
    276    277   2   0.50000     0.0600000    0.0600000   6.128906e-05  1.496315e-08
    276    278   2   0.50000     0.0600000    0.0600000   6.128906e-05  1.496315e-08
    258    261   2   0.50000    -0.1200000   -0.1200000   1.015252e-03  1.866303e-06
    258    279   2   0.50000    -0.1200000    0.0600000   2.494471e-04  1.671101e-07
    258    280   2   0.50000    -0.1200000    0.0600000   2.494471e-04  1.671101e-07
    277    261   2   0.50000     0.0600000   -0.1200000   2.494471e-04  1.671101e-07
    277    279   2   0.50000     0.0600000    0.0600000   6.128906e-05  1.496315e-08
    277    280   2   0.50000     0.0600000    0.0600000   6.128906e-05  1.496315e-08
    278    261   2   0.50000     0.0600000   -0.1200000   2.494471e-04  1.671101e-07
    278    279   2   0.50000     0.0600000    0.0600000   6.128906e-05  1.496315e-08
    278    280   2   0.50000     0.0600000    0.0600000   6.128906e-05  1.496315e-08
    259    262   2   0.50000    -0.1200000   -0.1200000   1.015252e-03  1.866303e-06
    259    281   2   0.50000    -0.1200000    0.0600000   2.494471e-04  1.671101e-07
    259    282   2   0.50000    -0.1200000    0.0600000   2.494471e-04  1.671101e-07
    279    262   2   0.50000     0.0600000   -0.1200000   2.494471e-04  1.671101e-07
    279    281   2   0.50000     0.0600000    0.0600000   6.128906e-05  1.496315e-08
    279    282   2   0.50000     0.0600000    0.0600000   6.128906e-05  1.496315e-08
    280    262   2   0.50000     0.0600000   -0.1200000   2.494471e-04  1.671101e-07
    280    281   2   0.50000     0.0600000    0.0600000   6.128906e-05  1.496315e-08
    280    282   2   0.50000     0.0600000    0.0600000   6.128906e-05  1.496315e-08
    260    263   2   0.50000    -0.1200000   -0.1200000   1.015252e-03  1.866303e-06
    260    283   2   0.50000    -0.1200000    0.0600000   2.494471e-04  1.671101e-07
    260    284   2   0.50000    -0.1200000    0.0600000   2.494471e-04  1.671101e-07
    281    263   2   0.50000     0.0600000   -0.1200000   2.494471e-04  1.671101e-07
    281    283   2   0.50000     0.0600000    0.0600000   6.128906e-05  1.496315e-08
    281    284   2   0.50000     0.0600000    0.0600000   6.128906e-05  1.496315e-08
    282    263   2   0.50000     0.0600000   -0.1200000   2.494471e-04  1.671101e-07
    282    283   2   0.50000     0.0600000    0.0600000   6.128906e-05  1.496315e-08
    282    284   2   0.50000     0.0600000    0.0600000   6.128906e-05  1.496315e-08
    261    264   2   0.50000    -0.1200000   -0.1200000   1.015252e-03  1.866303e-06
    261    285   2   0.50000    -0.1200000    0.0600000   2.494471e-04  1.671101e-07
    261    286   2   0.50000    -0.1200000    0.0600000   2.494471e-04  1.671101e-07
    283    264   2   0.50000     0.0600000   -0.1200000   2.494471e-04  1.671101e-07
    283    285   2   0.50000     0.0600000    0.0600000   6.128906e-05  1.496315e-08
    283    286   2   0.50000     0.0600000    0.0600000   6.128906e-05  1.496315e-08
    284    264   2   0.50000     0.0600000   -0.1200000   2.494471e-04  1.671101e-07
    284    285   2   0.50000     0.0600000    0.0600000   6.128906e-05  1.496315e-08
    284    286   2   0.50000     0.0600000    0.0600000   6.128906e-05  1.496315e-08
    262    265   2   0.50000    -0.1200000   -0.1200000   1.015252e-03  1.866303e-06
    262    287   2   0.50000    -0.1200000    0.0600000   2.494471e-04  1.671101e-07
    262    288   2   0.50000    -0.1200000    0.0600000   2.494471e-04  1.671101e-07
    285    265   2   0.50000     0.0600000   -0.1200000   2.494471e-04  1.671101e-07
    285    287   2   0.50000     0.0600000    0.0600000   6.128906e-05  1.496315e-08
    285    288   2   0.50000     0.0600000    0.0600000   6.128906e-05  1.496315e-08
    286    265   2   0.50000     0.0600000   -0.1200000   2.494471e-04  1.671101e-07
    286    287   2   0.50000     0.0600000    0.0600000   6.128906e-05  1.496315e-08
    286    288   2   0.50000     0.0600000    0.0600000   6.128906e-05  1.496315e-08
    263    266   2   0.50000    -0.1200000   -0.1200000   1.015252e-03  1.866303e-06
    263    289   2   0.50000    -0.1200000    0.0600000   2.494471e-04  1.671101e-07
    263    290   2   0.50000    -0.1200000    0.0600000   2.494471e-04  1.671101e-07
    287    266   2   0.50000     0.0600000   -0.1200000   2.494471e-04  1.671101e-07
    287    289   2   0.50000     0.0600000    0.0600000   6.128906e-05  1.496315e-08
    287    290   2   0.50000     0.0600000    0.0600000   6.128906e-05  1.496315e-08
    288    266   2   0.50000     0.0600000   -0.1200000   2.494471e-04  1.671101e-07
    288    289   2   0.50000     0.0600000    0.0600000   6.128906e-05  1.496315e-08
    288    290   2   0.50000     0.0600000    0.0600000   6.128906e-05  1.496315e-08
    264    267   2   0.50000    -0.1200000   -0.1800000   1.015252e-03  1.866303e-06
    264    291   2   0.50000    -0.1200000    0.0600000   2.494471e-04  1.671101e-07
    264    292   2   0.50000    -0.1200000    0.0600000   2.494471e-04  1.671101e-07
    289    267   2   0.50000     0.0600000   -0.1800000   2.494471e-04  1.671101e-07
    289    291   2   0.50000     0.0600000    0.0600000   6.128906e-05  1.496315e-08
    289    292   2   0.50000     0.0600000    0.0600000   6.128906e-05  1.496315e-08
    290    267   2   0.50000     0.0600000   -0.1800000   2.494471e-04  1.671101e-07
    290    291   2   0.50000     0.0600000    0.0600000   6.128906e-05  1.496315e-08
    290    292   2   0.50000     0.0600000    0.0600000   6.128906e-05  1.496315e-08
    265    293   2   0.50000    -0.1200000    0.0600000   2.494471e-04  1.671101e-07
    265    294   2   0.50000    -0.1200000    0.0600000   2.494471e-04  1.671101e-07
    265    295   2   0.50000    -0.1200000    0.0600000   2.494471e-04  1.671101e-07
    291    293   2   0.50000     0.0600000    0.0600000   6.128906e-05  1.496315e-08
    291    294   2   0.50000     0.0600000    0.0600000   6.128906e-05  1.496315e-08
    291    295   2   0.50000     0.0600000    0.0600000   6.128906e-05  1.496315e-08
    292    293   2   0.50000     0.0600000    0.0600000   6.128906e-05  1.496315e-08
    292    294   2   0.50000     0.0600000    0.0600000   6.128906e-05  1.496315e-08
    292    295   2   0.50000     0.0600000    0.0600000   6.128906e-05  1.496315e-08
    255    298   2   0.50000    -0.0600000   -0.1200000   1.015252e-03  1.866303e-06
    255    312   2   0.50000    -0.0600000    0.0600000   2.494471e-04  1.671101e-07
    255    338   2   0.50000    -0.0600000   -0.1200000   1.015252e-03  1.866303e-06
    310    298   2   0.50000     0.0600000   -0.1200000   2.494471e-04  1.671101e-07
    310    312   2   0.50000     0.0600000    0.0600000   6.128906e-05  1.496315e-08
    310    338   2   0.50000     0.0600000   -0.1200000   2.494471e-04  1.671101e-07
    311    298   2   0.50000     0.0600000   -0.1200000   2.494471e-04  1.671101e-07
    311    312   2   0.50000     0.0600000    0.0600000   6.128906e-05  1.496315e-08
    311    338   2   0.50000     0.0600000   -0.1200000   2.494471e-04  1.671101e-07
    296    299   2   0.50000    -0.1200000   -0.1200000   1.015252e-03  1.866303e-06
    296    313   2   0.50000    -0.1200000    0.0600000   2.494471e-04  1.671101e-07
    296    314   2   0.50000    -0.1200000    0.0600000   2.494471e-04  1.671101e-07
    312    299   2   0.50000     0.0600000   -0.1200000   2.494471e-04  1.671101e-07
    312    313   2   0.50000     0.0600000    0.0600000   6.128906e-05  1.496315e-08
    312    314   2   0.50000     0.0600000    0.0600000   6.128906e-05  1.496315e-08
    338    299   2   0.50000    -0.1200000   -0.1200000   1.015252e-03  1.866303e-06
    338    313   2   0.50000    -0.1200000    0.0600000   2.494471e-04  1.671101e-07
    338    314   2   0.50000    -0.1200000    0.0600000   2.494471e-04  1.671101e-07
    296    339   2   0.50000    -0.1200000   -0.0600000   1.015252e-03  1.866303e-06
    296    352   2   0.50000    -0.1200000    0.0600000   2.494471e-04  1.671101e-07
    296    353   2   0.50000    -0.1200000    0.0600000   2.494471e-04  1.671101e-07
    298    339   2   0.50000    -0.1200000   -0.0600000   1.015252e-03  1.866303e-06
    298    352   2   0.50000    -0.1200000    0.0600000   2.494471e-04  1.671101e-07
    298    353   2   0.50000    -0.1200000    0.0600000   2.494471e-04  1.671101e-07
    312    339   2   0.50000     0.0600000   -0.0600000   2.494471e-04  1.671101e-07
    312    352   2   0.50000     0.0600000    0.0600000   6.128906e-05  1.496315e-08
    312    353   2   0.50000     0.0600000    0.0600000   6.128906e-05  1.496315e-08
    297    300   2   0.50000    -0.0600000   -0.1200000   1.015252e-03  1.866303e-06
    297    315   2   0.50000    -0.0600000    0.0600000   2.494471e-04  1.671101e-07
    297    316   2   0.50000    -0.0600000    0.0600000   2.494471e-04  1.671101e-07
    313    300   2   0.50000     0.0600000   -0.1200000   2.494471e-04  1.671101e-07
    313    315   2   0.50000     0.0600000    0.0600000   6.128906e-05  1.496315e-08
    313    316   2   0.50000     0.0600000    0.0600000   6.128906e-05  1.496315e-08
    314    300   2   0.50000     0.0600000   -0.1200000   2.494471e-04  1.671101e-07
    314    315   2   0.50000     0.0600000    0.0600000   6.128906e-05  1.496315e-08
    314    316   2   0.50000     0.0600000    0.0600000   6.128906e-05  1.496315e-08
    298    301   2   0.50000    -0.1200000   -0.1200000   1.015252e-03  1.866303e-06
    298    317   2   0.50000    -0.1200000    0.0600000   2.494471e-04  1.671101e-07
    298    318   2   0.50000    -0.1200000    0.0600000   2.494471e-04  1.671101e-07
    315    301   2   0.50000     0.0600000   -0.1200000   2.494471e-04  1.671101e-07
    315    317   2   0.50000     0.0600000    0.0600000   6.128906e-05  1.496315e-08
    315    318   2   0.50000     0.0600000    0.0600000   6.128906e-05  1.496315e-08
    316    301   2   0.50000     0.0600000   -0.1200000   2.494471e-04  1.671101e-07
    316    317   2   0.50000     0.0600000    0.0600000   6.128906e-05  1.496315e-08
    316    318   2   0.50000     0.0600000    0.0600000   6.128906e-05  1.496315e-08
    299    302   2   0.50000    -0.1200000   -0.1200000   1.015252e-03  1.866303e-06
    299    319   2   0.50000    -0.1200000    0.0600000   2.494471e-04  1.671101e-07
    299    320   2   0.50000    -0.1200000    0.0600000   2.494471e-04  1.671101e-07
    317    302   2   0.50000     0.0600000   -0.1200000   2.494471e-04  1.671101e-07
    317    319   2   0.50000     0.0600000    0.0600000   6.128906e-05  1.496315e-08
    317    320   2   0.50000     0.0600000    0.0600000   6.128906e-05  1.496315e-08
    318    302   2   0.50000     0.0600000   -0.1200000   2.494471e-04  1.671101e-07
    318    319   2   0.50000     0.0600000    0.0600000   6.128906e-05  1.496315e-08
    318    320   2   0.50000     0.0600000    0.0600000   6.128906e-05  1.496315e-08
    300    303   2   0.50000    -0.1200000   -0.1200000   1.015252e-03  1.866303e-06
    300    321   2   0.50000    -0.1200000    0.0600000   2.494471e-04  1.671101e-07
    300    322   2   0.50000    -0.1200000    0.0600000   2.494471e-04  1.671101e-07
    319    303   2   0.50000     0.0600000   -0.1200000   2.494471e-04  1.671101e-07
    319    321   2   0.50000     0.0600000    0.0600000   6.128906e-05  1.496315e-08
    319    322   2   0.50000     0.0600000    0.0600000   6.128906e-05  1.496315e-08
    320    303   2   0.50000     0.0600000   -0.1200000   2.494471e-04  1.671101e-07
    320    321   2   0.50000     0.0600000    0.0600000   6.128906e-05  1.496315e-08
    320    322   2   0.50000     0.0600000    0.0600000   6.128906e-05  1.496315e-08
    301    304   2   0.50000    -0.1200000   -0.1200000   1.015252e-03  1.866303e-06
    301    323   2   0.50000    -0.1200000    0.0600000   2.494471e-04  1.671101e-07
    301    324   2   0.50000    -0.1200000    0.0600000   2.494471e-04  1.671101e-07
    321    304   2   0.50000     0.0600000   -0.1200000   2.494471e-04  1.671101e-07
    321    323   2   0.50000     0.0600000    0.0600000   6.128906e-05  1.496315e-08
    321    324   2   0.50000     0.0600000    0.0600000   6.128906e-05  1.496315e-08
    322    304   2   0.50000     0.0600000   -0.1200000   2.494471e-04  1.671101e-07
    322    323   2   0.50000     0.0600000    0.0600000   6.128906e-05  1.496315e-08
    322    324   2   0.50000     0.0600000    0.0600000   6.128906e-05  1.496315e-08
    302    305   2   0.50000    -0.1200000   -0.1200000   1.015252e-03  1.866303e-06
    302    325   2   0.50000    -0.1200000    0.0600000   2.494471e-04  1.671101e-07
    302    326   2   0.50000    -0.1200000    0.0600000   2.494471e-04  1.671101e-07
    323    305   2   0.50000     0.0600000   -0.1200000   2.494471e-04  1.671101e-07
    323    325   2   0.50000     0.0600000    0.0600000   6.128906e-05  1.496315e-08
    323    326   2   0.50000     0.0600000    0.0600000   6.128906e-05  1.496315e-08
    324    305   2   0.50000     0.0600000   -0.1200000   2.494471e-04  1.671101e-07
    324    325   2   0.50000     0.0600000    0.0600000   6.128906e-05  1.496315e-08
    324    326   2   0.50000     0.0600000    0.0600000   6.128906e-05  1.496315e-08
    303    306   2   0.50000    -0.1200000   -0.1200000   1.015252e-03  1.866303e-06
    303    327   2   0.50000    -0.1200000    0.0600000   2.494471e-04  1.671101e-07
    303    328   2   0.50000    -0.1200000    0.0600000   2.494471e-04  1.671101e-07
    325    306   2   0.50000     0.0600000   -0.1200000   2.494471e-04  1.671101e-07
    325    327   2   0.50000     0.0600000    0.0600000   6.128906e-05  1.496315e-08
    325    328   2   0.50000     0.0600000    0.0600000   6.128906e-05  1.496315e-08
    326    306   2   0.50000     0.0600000   -0.1200000   2.494471e-04  1.671101e-07
    326    327   2   0.50000     0.0600000    0.0600000   6.128906e-05  1.496315e-08
    326    328   2   0.50000     0.0600000    0.0600000   6.128906e-05  1.496315e-08
    304    307   2   0.50000    -0.1200000   -0.1200000   1.015252e-03  1.866303e-06
    304    329   2   0.50000    -0.1200000    0.0600000   2.494471e-04  1.671101e-07
    304    330   2   0.50000    -0.1200000    0.0600000   2.494471e-04  1.671101e-07
    327    307   2   0.50000     0.0600000   -0.1200000   2.494471e-04  1.671101e-07
    327    329   2   0.50000     0.0600000    0.0600000   6.128906e-05  1.496315e-08
    327    330   2   0.50000     0.0600000    0.0600000   6.128906e-05  1.496315e-08
    328    307   2   0.50000     0.0600000   -0.1200000   2.494471e-04  1.671101e-07
    328    329   2   0.50000     0.0600000    0.0600000   6.128906e-05  1.496315e-08
    328    330   2   0.50000     0.0600000    0.0600000   6.128906e-05  1.496315e-08
    305    308   2   0.50000    -0.1200000   -0.1200000   1.015252e-03  1.866303e-06
    305    331   2   0.50000    -0.1200000    0.0600000   2.494471e-04  1.671101e-07
    305    332   2   0.50000    -0.1200000    0.0600000   2.494471e-04  1.671101e-07
    329    308   2   0.50000     0.0600000   -0.1200000   2.494471e-04  1.671101e-07
    329    331   2   0.50000     0.0600000    0.0600000   6.128906e-05  1.496315e-08
    329    332   2   0.50000     0.0600000    0.0600000   6.128906e-05  1.496315e-08
    330    308   2   0.50000     0.0600000   -0.1200000   2.494471e-04  1.671101e-07
    330    331   2   0.50000     0.0600000    0.0600000   6.128906e-05  1.496315e-08
    330    332   2   0.50000     0.0600000    0.0600000   6.128906e-05  1.496315e-08
    306    309   2   0.50000    -0.1200000   -0.1800000   1.015252e-03  1.866303e-06
    306    333   2   0.50000    -0.1200000    0.0600000   2.494471e-04  1.671101e-07
    306    334   2   0.50000    -0.1200000    0.0600000   2.494471e-04  1.671101e-07
    331    309   2   0.50000     0.0600000   -0.1800000   2.494471e-04  1.671101e-07
    331    333   2   0.50000     0.0600000    0.0600000   6.128906e-05  1.496315e-08
    331    334   2   0.50000     0.0600000    0.0600000   6.128906e-05  1.496315e-08
    332    309   2   0.50000     0.0600000   -0.1800000   2.494471e-04  1.671101e-07
    332    333   2   0.50000     0.0600000    0.0600000   6.128906e-05  1.496315e-08
    332    334   2   0.50000     0.0600000    0.0600000   6.128906e-05  1.496315e-08
    307    335   2   0.50000    -0.1200000    0.0600000   2.494471e-04  1.671101e-07
    307    336   2   0.50000    -0.1200000    0.0600000   2.494471e-04  1.671101e-07
    307    337   2   0.50000    -0.1200000    0.0600000   2.494471e-04  1.671101e-07
    333    335   2   0.50000     0.0600000    0.0600000   6.128906e-05  1.496315e-08
    333    336   2   0.50000     0.0600000    0.0600000   6.128906e-05  1.496315e-08
    333    337   2   0.50000     0.0600000    0.0600000   6.128906e-05  1.496315e-08
    334    335   2   0.50000     0.0600000    0.0600000   6.128906e-05  1.496315e-08
    334    336   2   0.50000     0.0600000    0.0600000   6.128906e-05  1.496315e-08
    334    337   2   0.50000     0.0600000    0.0600000   6.128906e-05  1.496315e-08
    297    340   2   0.50000    -0.0600000   -0.1200000   1.015252e-03  1.866303e-06
    297    354   2   0.50000    -0.0600000    0.0600000   2.494471e-04  1.671101e-07
    297    380   2   0.50000    -0.0600000   -0.1200000   1.015252e-03  1.866303e-06
    352    340   2   0.50000     0.0600000   -0.1200000   2.494471e-04  1.671101e-07
    352    354   2   0.50000     0.0600000    0.0600000   6.128906e-05  1.496315e-08
    352    380   2   0.50000     0.0600000   -0.1200000   2.494471e-04  1.671101e-07
    353    340   2   0.50000     0.0600000   -0.1200000   2.494471e-04  1.671101e-07
    353    354   2   0.50000     0.0600000    0.0600000   6.128906e-05  1.496315e-08
    353    380   2   0.50000     0.0600000   -0.1200000   2.494471e-04  1.671101e-07
    338    341   2   0.50000    -0.1200000   -0.1200000   1.015252e-03  1.866303e-06
    338    355   2   0.50000    -0.1200000    0.0600000   2.494471e-04  1.671101e-07
    338    356   2   0.50000    -0.1200000    0.0600000   2.494471e-04  1.671101e-07
    354    341   2   0.50000     0.0600000   -0.1200000   2.494471e-04  1.671101e-07
    354    355   2   0.50000     0.0600000    0.0600000   6.128906e-05  1.496315e-08
    354    356   2   0.50000     0.0600000    0.0600000   6.128906e-05  1.496315e-08
    380    341   2   0.50000    -0.1200000   -0.1200000   1.015252e-03  1.866303e-06
    380    355   2   0.50000    -0.1200000    0.0600000   2.494471e-04  1.671101e-07
    380    356   2   0.50000    -0.1200000    0.0600000   2.494471e-04  1.671101e-07
    338    381   2   0.50000    -0.1200000   -0.0600000   1.015252e-03  1.866303e-06
    338    394   2   0.50000    -0.1200000    0.0600000   2.494471e-04  1.671101e-07
    338    395   2   0.50000    -0.1200000    0.0600000   2.494471e-04  1.671101e-07
    340    381   2   0.50000    -0.1200000   -0.0600000   1.015252e-03  1.866303e-06
    340    394   2   0.50000    -0.1200000    0.0600000   2.494471e-04  1.671101e-07
    340    395   2   0.50000    -0.1200000    0.0600000   2.494471e-04  1.671101e-07
    354    381   2   0.50000     0.0600000   -0.0600000   2.494471e-04  1.671101e-07
    354    394   2   0.50000     0.0600000    0.0600000   6.128906e-05  1.496315e-08
    354    395   2   0.50000     0.0600000    0.0600000   6.128906e-05  1.496315e-08
    339    342   2   0.50000    -0.0600000   -0.1200000   1.015252e-03  1.866303e-06
    339    357   2   0.50000    -0.0600000    0.0600000   2.494471e-04  1.671101e-07
    339    358   2   0.50000    -0.0600000    0.0600000   2.494471e-04  1.671101e-07
    355    342   2   0.50000     0.0600000   -0.1200000   2.494471e-04  1.671101e-07
    355    357   2   0.50000     0.0600000    0.0600000   6.128906e-05  1.496315e-08
    355    358   2   0.50000     0.0600000    0.0600000   6.128906e-05  1.496315e-08
    356    342   2   0.50000     0.0600000   -0.1200000   2.494471e-04  1.671101e-07
    356    357   2   0.50000     0.0600000    0.0600000   6.128906e-05  1.496315e-08
    356    358   2   0.50000     0.0600000    0.0600000   6.128906e-05  1.496315e-08
    340    343   2   0.50000    -0.1200000   -0.1200000   1.015252e-03  1.866303e-06
    340    359   2   0.50000    -0.1200000    0.0600000   2.494471e-04  1.671101e-07
    340    360   2   0.50000    -0.1200000    0.0600000   2.494471e-04  1.671101e-07
    357    343   2   0.50000     0.0600000   -0.1200000   2.494471e-04  1.671101e-07
    357    359   2   0.50000     0.0600000    0.0600000   6.128906e-05  1.496315e-08
    357    360   2   0.50000     0.0600000    0.0600000   6.128906e-05  1.496315e-08
    358    343   2   0.50000     0.0600000   -0.1200000   2.494471e-04  1.671101e-07
    358    359   2   0.50000     0.0600000    0.0600000   6.128906e-05  1.496315e-08
    358    360   2   0.50000     0.0600000    0.0600000   6.128906e-05  1.496315e-08
    341    344   2   0.50000    -0.1200000   -0.1200000   1.015252e-03  1.866303e-06
    341    361   2   0.50000    -0.1200000    0.0600000   2.494471e-04  1.671101e-07
    341    362   2   0.50000    -0.1200000    0.0600000   2.494471e-04  1.671101e-07
    359    344   2   0.50000     0.0600000   -0.1200000   2.494471e-04  1.671101e-07
    359    361   2   0.50000     0.0600000    0.0600000   6.128906e-05  1.496315e-08
    359    362   2   0.50000     0.0600000    0.0600000   6.128906e-05  1.496315e-08
    360    344   2   0.50000     0.0600000   -0.1200000   2.494471e-04  1.671101e-07
    360    361   2   0.50000     0.0600000    0.0600000   6.128906e-05  1.496315e-08
    360    362   2   0.50000     0.0600000    0.0600000   6.128906e-05  1.496315e-08
    342    345   2   0.50000    -0.1200000   -0.1200000   1.015252e-03  1.866303e-06
    342    363   2   0.50000    -0.1200000    0.0600000   2.494471e-04  1.671101e-07
    342    364   2   0.50000    -0.1200000    0.0600000   2.494471e-04  1.671101e-07
    361    345   2   0.50000     0.0600000   -0.1200000   2.494471e-04  1.671101e-07
    361    363   2   0.50000     0.0600000    0.0600000   6.128906e-05  1.496315e-08
    361    364   2   0.50000     0.0600000    0.0600000   6.128906e-05  1.496315e-08
    362    345   2   0.50000     0.0600000   -0.1200000   2.494471e-04  1.671101e-07
    362    363   2   0.50000     0.0600000    0.0600000   6.128906e-05  1.496315e-08
    362    364   2   0.50000     0.0600000    0.0600000   6.128906e-05  1.496315e-08
    343    346   2   0.50000    -0.1200000   -0.1200000   1.015252e-03  1.866303e-06
    343    365   2   0.50000    -0.1200000    0.0600000   2.494471e-04  1.671101e-07
    343    366   2   0.50000    -0.1200000    0.0600000   2.494471e-04  1.671101e-07
    363    346   2   0.50000     0.0600000   -0.1200000   2.494471e-04  1.671101e-07
    363    365   2   0.50000     0.0600000    0.0600000   6.128906e-05  1.496315e-08
    363    366   2   0.50000     0.0600000    0.0600000   6.128906e-05  1.496315e-08
    364    346   2   0.50000     0.0600000   -0.1200000   2.494471e-04  1.671101e-07
    364    365   2   0.50000     0.0600000    0.0600000   6.128906e-05  1.496315e-08
    364    366   2   0.50000     0.0600000    0.0600000   6.128906e-05  1.496315e-08
    344    347   2   0.50000    -0.1200000   -0.1200000   1.015252e-03  1.866303e-06
    344    367   2   0.50000    -0.1200000    0.0600000   2.494471e-04  1.671101e-07
    344    368   2   0.50000    -0.1200000    0.0600000   2.494471e-04  1.671101e-07
    365    347   2   0.50000     0.0600000   -0.1200000   2.494471e-04  1.671101e-07
    365    367   2   0.50000     0.0600000    0.0600000   6.128906e-05  1.496315e-08
    365    368   2   0.50000     0.0600000    0.0600000   6.128906e-05  1.496315e-08
    366    347   2   0.50000     0.0600000   -0.1200000   2.494471e-04  1.671101e-07
    366    367   2   0.50000     0.0600000    0.0600000   6.128906e-05  1.496315e-08
    366    368   2   0.50000     0.0600000    0.0600000   6.128906e-05  1.496315e-08
    345    348   2   0.50000    -0.1200000   -0.1200000   1.015252e-03  1.866303e-06
    345    369   2   0.50000    -0.1200000    0.0600000   2.494471e-04  1.671101e-07
    345    370   2   0.50000    -0.1200000    0.0600000   2.494471e-04  1.671101e-07
    367    348   2   0.50000     0.0600000   -0.1200000   2.494471e-04  1.671101e-07
    367    369   2   0.50000     0.0600000    0.0600000   6.128906e-05  1.496315e-08
    367    370   2   0.50000     0.0600000    0.0600000   6.128906e-05  1.496315e-08
    368    348   2   0.50000     0.0600000   -0.1200000   2.494471e-04  1.671101e-07
    368    369   2   0.50000     0.0600000    0.0600000   6.128906e-05  1.496315e-08
    368    370   2   0.50000     0.0600000    0.0600000   6.128906e-05  1.496315e-08
    346    349   2   0.50000    -0.1200000   -0.1200000   1.015252e-03  1.866303e-06
    346    371   2   0.50000    -0.1200000    0.0600000   2.494471e-04  1.671101e-07
    346    372   2   0.50000    -0.1200000    0.0600000   2.494471e-04  1.671101e-07
    369    349   2   0.50000     0.0600000   -0.1200000   2.494471e-04  1.671101e-07
    369    371   2   0.50000     0.0600000    0.0600000   6.128906e-05  1.496315e-08
    369    372   2   0.50000     0.0600000    0.0600000   6.128906e-05  1.496315e-08
    370    349   2   0.50000     0.0600000   -0.1200000   2.494471e-04  1.671101e-07
    370    371   2   0.50000     0.0600000    0.0600000   6.128906e-05  1.496315e-08
    370    372   2   0.50000     0.0600000    0.0600000   6.128906e-05  1.496315e-08
    347    350   2   0.50000    -0.1200000   -0.1200000   1.015252e-03  1.866303e-06
    347    373   2   0.50000    -0.1200000    0.0600000   2.494471e-04  1.671101e-07
    347    374   2   0.50000    -0.1200000    0.0600000   2.494471e-04  1.671101e-07
    371    350   2   0.50000     0.0600000   -0.1200000   2.494471e-04  1.671101e-07
    371    373   2   0.50000     0.0600000    0.0600000   6.128906e-05  1.496315e-08
    371    374   2   0.50000     0.0600000    0.0600000   6.128906e-05  1.496315e-08
    372    350   2   0.50000     0.0600000   -0.1200000   2.494471e-04  1.671101e-07
    372    373   2   0.50000     0.0600000    0.0600000   6.128906e-05  1.496315e-08
    372    374   2   0.50000     0.0600000    0.0600000   6.128906e-05  1.496315e-08
    348    351   2   0.50000    -0.1200000   -0.1800000   1.015252e-03  1.866303e-06
    348    375   2   0.50000    -0.1200000    0.0600000   2.494471e-04  1.671101e-07
    348    376   2   0.50000    -0.1200000    0.0600000   2.494471e-04  1.671101e-07
    373    351   2   0.50000     0.0600000   -0.1800000   2.494471e-04  1.671101e-07
    373    375   2   0.50000     0.0600000    0.0600000   6.128906e-05  1.496315e-08
    373    376   2   0.50000     0.0600000    0.0600000   6.128906e-05  1.496315e-08
    374    351   2   0.50000     0.0600000   -0.1800000   2.494471e-04  1.671101e-07
    374    375   2   0.50000     0.0600000    0.0600000   6.128906e-05  1.496315e-08
    374    376   2   0.50000     0.0600000    0.0600000   6.128906e-05  1.496315e-08
    349    377   2   0.50000    -0.1200000    0.0600000   2.494471e-04  1.671101e-07
    349    378   2   0.50000    -0.1200000    0.0600000   2.494471e-04  1.671101e-07
    349    379   2   0.50000    -0.1200000    0.0600000   2.494471e-04  1.671101e-07
    375    377   2   0.50000     0.0600000    0.0600000   6.128906e-05  1.496315e-08
    375    378   2   0.50000     0.0600000    0.0600000   6.128906e-05  1.496315e-08
    375    379   2   0.50000     0.0600000    0.0600000   6.128906e-05  1.496315e-08
    376    377   2   0.50000     0.0600000    0.0600000   6.128906e-05  1.496315e-08
    376    378   2   0.50000     0.0600000    0.0600000   6.128906e-05  1.496315e-08
    376    379   2   0.50000     0.0600000    0.0600000   6.128906e-05  1.496315e-08
    339    382   2   0.50000    -0.0600000   -0.1200000   1.015252e-03  1.866303e-06
    339    396   2   0.50000    -0.0600000    0.0600000   2.494471e-04  1.671101e-07
    339    422   2   0.50000    -0.0600000   -0.1200000   1.015252e-03  1.866303e-06
    394    382   2   0.50000     0.0600000   -0.1200000   2.494471e-04  1.671101e-07
    394    396   2   0.50000     0.0600000    0.0600000   6.128906e-05  1.496315e-08
    394    422   2   0.50000     0.0600000   -0.1200000   2.494471e-04  1.671101e-07
    395    382   2   0.50000     0.0600000   -0.1200000   2.494471e-04  1.671101e-07
    395    396   2   0.50000     0.0600000    0.0600000   6.128906e-05  1.496315e-08
    395    422   2   0.50000     0.0600000   -0.1200000   2.494471e-04  1.671101e-07
    380    383   2   0.50000    -0.1200000   -0.1200000   1.015252e-03  1.866303e-06
    380    397   2   0.50000    -0.1200000    0.0600000   2.494471e-04  1.671101e-07
    380    398   2   0.50000    -0.1200000    0.0600000   2.494471e-04  1.671101e-07
    396    383   2   0.50000     0.0600000   -0.1200000   2.494471e-04  1.671101e-07
    396    397   2   0.50000     0.0600000    0.0600000   6.128906e-05  1.496315e-08
    396    398   2   0.50000     0.0600000    0.0600000   6.128906e-05  1.496315e-08
    422    383   2   0.50000    -0.1200000   -0.1200000   1.015252e-03  1.866303e-06
    422    397   2   0.50000    -0.1200000    0.0600000   2.494471e-04  1.671101e-07
    422    398   2   0.50000    -0.1200000    0.0600000   2.494471e-04  1.671101e-07
    380    423   2   0.50000    -0.1200000   -0.0600000   1.015252e-03  1.866303e-06
    380    436   2   0.50000    -0.1200000    0.0600000   2.494471e-04  1.671101e-07
    380    437   2   0.50000    -0.1200000    0.0600000   2.494471e-04  1.671101e-07
    382    423   2   0.50000    -0.1200000   -0.0600000   1.015252e-03  1.866303e-06
    382    436   2   0.50000    -0.1200000    0.0600000   2.494471e-04  1.671101e-07
    382    437   2   0.50000    -0.1200000    0.0600000   2.494471e-04  1.671101e-07
    396    423   2   0.50000     0.0600000   -0.0600000   2.494471e-04  1.671101e-07
    396    436   2   0.50000     0.0600000    0.0600000   6.128906e-05  1.496315e-08
    396    437   2   0.50000     0.0600000    0.0600000   6.128906e-05  1.496315e-08
    381    384   2   0.50000    -0.0600000   -0.1200000   1.015252e-03  1.866303e-06
    381    399   2   0.50000    -0.0600000    0.0600000   2.494471e-04  1.671101e-07
    381    400   2   0.50000    -0.0600000    0.0600000   2.494471e-04  1.671101e-07
    397    384   2   0.50000     0.0600000   -0.1200000   2.494471e-04  1.671101e-07
    397    399   2   0.50000     0.0600000    0.0600000   6.128906e-05  1.496315e-08
    397    400   2   0.50000     0.0600000    0.0600000   6.128906e-05  1.496315e-08
    398    384   2   0.50000     0.0600000   -0.1200000   2.494471e-04  1.671101e-07
    398    399   2   0.50000     0.0600000    0.0600000   6.128906e-05  1.496315e-08
    398    400   2   0.50000     0.0600000    0.0600000   6.128906e-05  1.496315e-08
    382    385   2   0.50000    -0.1200000   -0.1200000   1.015252e-03  1.866303e-06
    382    401   2   0.50000    -0.1200000    0.0600000   2.494471e-04  1.671101e-07
    382    402   2   0.50000    -0.1200000    0.0600000   2.494471e-04  1.671101e-07
    399    385   2   0.50000     0.0600000   -0.1200000   2.494471e-04  1.671101e-07
    399    401   2   0.50000     0.0600000    0.0600000   6.128906e-05  1.496315e-08
    399    402   2   0.50000     0.0600000    0.0600000   6.128906e-05  1.496315e-08
    400    385   2   0.50000     0.0600000   -0.1200000   2.494471e-04  1.671101e-07
    400    401   2   0.50000     0.0600000    0.0600000   6.128906e-05  1.496315e-08
    400    402   2   0.50000     0.0600000    0.0600000   6.128906e-05  1.496315e-08
    383    386   2   0.50000    -0.1200000   -0.1200000   1.015252e-03  1.866303e-06
    383    403   2   0.50000    -0.1200000    0.0600000   2.494471e-04  1.671101e-07
    383    404   2   0.50000    -0.1200000    0.0600000   2.494471e-04  1.671101e-07
    401    386   2   0.50000     0.0600000   -0.1200000   2.494471e-04  1.671101e-07
    401    403   2   0.50000     0.0600000    0.0600000   6.128906e-05  1.496315e-08
    401    404   2   0.50000     0.0600000    0.0600000   6.128906e-05  1.496315e-08
    402    386   2   0.50000     0.0600000   -0.1200000   2.494471e-04  1.671101e-07
    402    403   2   0.50000     0.0600000    0.0600000   6.128906e-05  1.496315e-08
    402    404   2   0.50000     0.0600000    0.0600000   6.128906e-05  1.496315e-08
    384    387   2   0.50000    -0.1200000   -0.1200000   1.015252e-03  1.866303e-06
    384    405   2   0.50000    -0.1200000    0.0600000   2.494471e-04  1.671101e-07
    384    406   2   0.50000    -0.1200000    0.0600000   2.494471e-04  1.671101e-07
    403    387   2   0.50000     0.0600000   -0.1200000   2.494471e-04  1.671101e-07
    403    405   2   0.50000     0.0600000    0.0600000   6.128906e-05  1.496315e-08
    403    406   2   0.50000     0.0600000    0.0600000   6.128906e-05  1.496315e-08
    404    387   2   0.50000     0.0600000   -0.1200000   2.494471e-04  1.671101e-07
    404    405   2   0.50000     0.0600000    0.0600000   6.128906e-05  1.496315e-08
    404    406   2   0.50000     0.0600000    0.0600000   6.128906e-05  1.496315e-08
    385    388   2   0.50000    -0.1200000   -0.1200000   1.015252e-03  1.866303e-06
    385    407   2   0.50000    -0.1200000    0.0600000   2.494471e-04  1.671101e-07
    385    408   2   0.50000    -0.1200000    0.0600000   2.494471e-04  1.671101e-07
    405    388   2   0.50000     0.0600000   -0.1200000   2.494471e-04  1.671101e-07
    405    407   2   0.50000     0.0600000    0.0600000   6.128906e-05  1.496315e-08
    405    408   2   0.50000     0.0600000    0.0600000   6.128906e-05  1.496315e-08
    406    388   2   0.50000     0.0600000   -0.1200000   2.494471e-04  1.671101e-07
    406    407   2   0.50000     0.0600000    0.0600000   6.128906e-05  1.496315e-08
    406    408   2   0.50000     0.0600000    0.0600000   6.128906e-05  1.496315e-08
    386    389   2   0.50000    -0.1200000   -0.1200000   1.015252e-03  1.866303e-06
    386    409   2   0.50000    -0.1200000    0.0600000   2.494471e-04  1.671101e-07
    386    410   2   0.50000    -0.1200000    0.0600000   2.494471e-04  1.671101e-07
    407    389   2   0.50000     0.0600000   -0.1200000   2.494471e-04  1.671101e-07
    407    409   2   0.50000     0.0600000    0.0600000   6.128906e-05  1.496315e-08
    407    410   2   0.50000     0.0600000    0.0600000   6.128906e-05  1.496315e-08
    408    389   2   0.50000     0.0600000   -0.1200000   2.494471e-04  1.671101e-07
    408    409   2   0.50000     0.0600000    0.0600000   6.128906e-05  1.496315e-08
    408    410   2   0.50000     0.0600000    0.0600000   6.128906e-05  1.496315e-08
    387    390   2   0.50000    -0.1200000   -0.1200000   1.015252e-03  1.866303e-06
    387    411   2   0.50000    -0.1200000    0.0600000   2.494471e-04  1.671101e-07
    387    412   2   0.50000    -0.1200000    0.0600000   2.494471e-04  1.671101e-07
    409    390   2   0.50000     0.0600000   -0.1200000   2.494471e-04  1.671101e-07
    409    411   2   0.50000     0.0600000    0.0600000   6.128906e-05  1.496315e-08
    409    412   2   0.50000     0.0600000    0.0600000   6.128906e-05  1.496315e-08
    410    390   2   0.50000     0.0600000   -0.1200000   2.494471e-04  1.671101e-07
    410    411   2   0.50000     0.0600000    0.0600000   6.128906e-05  1.496315e-08
    410    412   2   0.50000     0.0600000    0.0600000   6.128906e-05  1.496315e-08
    388    391   2   0.50000    -0.1200000   -0.1200000   1.015252e-03  1.866303e-06
    388    413   2   0.50000    -0.1200000    0.0600000   2.494471e-04  1.671101e-07
    388    414   2   0.50000    -0.1200000    0.0600000   2.494471e-04  1.671101e-07
    411    391   2   0.50000     0.0600000   -0.1200000   2.494471e-04  1.671101e-07
    411    413   2   0.50000     0.0600000    0.0600000   6.128906e-05  1.496315e-08
    411    414   2   0.50000     0.0600000    0.0600000   6.128906e-05  1.496315e-08
    412    391   2   0.50000     0.0600000   -0.1200000   2.494471e-04  1.671101e-07
    412    413   2   0.50000     0.0600000    0.0600000   6.128906e-05  1.496315e-08
    412    414   2   0.50000     0.0600000    0.0600000   6.128906e-05  1.496315e-08
    389    392   2   0.50000    -0.1200000   -0.1200000   1.015252e-03  1.866303e-06
    389    415   2   0.50000    -0.1200000    0.0600000   2.494471e-04  1.671101e-07
    389    416   2   0.50000    -0.1200000    0.0600000   2.494471e-04  1.671101e-07
    413    392   2   0.50000     0.0600000   -0.1200000   2.494471e-04  1.671101e-07
    413    415   2   0.50000     0.0600000    0.0600000   6.128906e-05  1.496315e-08
    413    416   2   0.50000     0.0600000    0.0600000   6.128906e-05  1.496315e-08
    414    392   2   0.50000     0.0600000   -0.1200000   2.494471e-04  1.671101e-07
    414    415   2   0.50000     0.0600000    0.0600000   6.128906e-05  1.496315e-08
    414    416   2   0.50000     0.0600000    0.0600000   6.128906e-05  1.496315e-08
    390    393   2   0.50000    -0.1200000   -0.1800000   1.015252e-03  1.866303e-06
    390    417   2   0.50000    -0.1200000    0.0600000   2.494471e-04  1.671101e-07
    390    418   2   0.50000    -0.1200000    0.0600000   2.494471e-04  1.671101e-07
    415    393   2   0.50000     0.0600000   -0.1800000   2.494471e-04  1.671101e-07
    415    417   2   0.50000     0.0600000    0.0600000   6.128906e-05  1.496315e-08
    415    418   2   0.50000     0.0600000    0.0600000   6.128906e-05  1.496315e-08
    416    393   2   0.50000     0.0600000   -0.1800000   2.494471e-04  1.671101e-07
    416    417   2   0.50000     0.0600000    0.0600000   6.128906e-05  1.496315e-08
    416    418   2   0.50000     0.0600000    0.0600000   6.128906e-05  1.496315e-08
    391    419   2   0.50000    -0.1200000    0.0600000   2.494471e-04  1.671101e-07
    391    420   2   0.50000    -0.1200000    0.0600000   2.494471e-04  1.671101e-07
    391    421   2   0.50000    -0.1200000    0.0600000   2.494471e-04  1.671101e-07
    417    419   2   0.50000     0.0600000    0.0600000   6.128906e-05  1.496315e-08
    417    420   2   0.50000     0.0600000    0.0600000   6.128906e-05  1.496315e-08
    417    421   2   0.50000     0.0600000    0.0600000   6.128906e-05  1.496315e-08
    418    419   2   0.50000     0.0600000    0.0600000   6.128906e-05  1.496315e-08
    418    420   2   0.50000     0.0600000    0.0600000   6.128906e-05  1.496315e-08
    418    421   2   0.50000     0.0600000    0.0600000   6.128906e-05  1.496315e-08
    381    424   2   0.50000    -0.0600000   -0.1200000   1.015252e-03  1.866303e-06
    381    438   2   0.50000    -0.0600000    0.0600000   2.494471e-04  1.671101e-07
    381    464   2   0.50000    -0.0600000   -0.1200000   1.015252e-03  1.866303e-06
    436    424   2   0.50000     0.0600000   -0.1200000   2.494471e-04  1.671101e-07
    436    438   2   0.50000     0.0600000    0.0600000   6.128906e-05  1.496315e-08
    436    464   2   0.50000     0.0600000   -0.1200000   2.494471e-04  1.671101e-07
    437    424   2   0.50000     0.0600000   -0.1200000   2.494471e-04  1.671101e-07
    437    438   2   0.50000     0.0600000    0.0600000   6.128906e-05  1.496315e-08
    437    464   2   0.50000     0.0600000   -0.1200000   2.494471e-04  1.671101e-07
    422    425   2   0.50000    -0.1200000   -0.1200000   1.015252e-03  1.866303e-06
    422    439   2   0.50000    -0.1200000    0.0600000   2.494471e-04  1.671101e-07
    422    440   2   0.50000    -0.1200000    0.0600000   2.494471e-04  1.671101e-07
    438    425   2   0.50000     0.0600000   -0.1200000   2.494471e-04  1.671101e-07
    438    439   2   0.50000     0.0600000    0.0600000   6.128906e-05  1.496315e-08
    438    440   2   0.50000     0.0600000    0.0600000   6.128906e-05  1.496315e-08
    464    425   2   0.50000    -0.1200000   -0.1200000   1.015252e-03  1.866303e-06
    464    439   2   0.50000    -0.1200000    0.0600000   2.494471e-04  1.671101e-07
    464    440   2   0.50000    -0.1200000    0.0600000   2.494471e-04  1.671101e-07
    422    465   2   0.50000    -0.1200000   -0.0600000   1.015252e-03  1.866303e-06
    422    478   2   0.50000    -0.1200000    0.0600000   2.494471e-04  1.671101e-07
    422    479   2   0.50000    -0.1200000    0.0600000   2.494471e-04  1.671101e-07
    424    465   2   0.50000    -0.1200000   -0.0600000   1.015252e-03  1.866303e-06
    424    478   2   0.50000    -0.1200000    0.0600000   2.494471e-04  1.671101e-07
    424    479   2   0.50000    -0.1200000    0.0600000   2.494471e-04  1.671101e-07
    438    465   2   0.50000     0.0600000   -0.0600000   2.494471e-04  1.671101e-07
    438    478   2   0.50000     0.0600000    0.0600000   6.128906e-05  1.496315e-08
    438    479   2   0.50000     0.0600000    0.0600000   6.128906e-05  1.496315e-08
    423    426   2   0.50000    -0.0600000   -0.1200000   1.015252e-03  1.866303e-06
    423    441   2   0.50000    -0.0600000    0.0600000   2.494471e-04  1.671101e-07
    423    442   2   0.50000    -0.0600000    0.0600000   2.494471e-04  1.671101e-07
    439    426   2   0.50000     0.0600000   -0.1200000   2.494471e-04  1.671101e-07
    439    441   2   0.50000     0.0600000    0.0600000   6.128906e-05  1.496315e-08
    439    442   2   0.50000     0.0600000    0.0600000   6.128906e-05  1.496315e-08
    440    426   2   0.50000     0.0600000   -0.1200000   2.494471e-04  1.671101e-07
    440    441   2   0.50000     0.0600000    0.0600000   6.128906e-05  1.496315e-08
    440    442   2   0.50000     0.0600000    0.0600000   6.128906e-05  1.496315e-08
    424    427   2   0.50000    -0.1200000   -0.1200000   1.015252e-03  1.866303e-06
    424    443   2   0.50000    -0.1200000    0.0600000   2.494471e-04  1.671101e-07
    424    444   2   0.50000    -0.1200000    0.0600000   2.494471e-04  1.671101e-07
    441    427   2   0.50000     0.0600000   -0.1200000   2.494471e-04  1.671101e-07
    441    443   2   0.50000     0.0600000    0.0600000   6.128906e-05  1.496315e-08
    441    444   2   0.50000     0.0600000    0.0600000   6.128906e-05  1.496315e-08
    442    427   2   0.50000     0.0600000   -0.1200000   2.494471e-04  1.671101e-07
    442    443   2   0.50000     0.0600000    0.0600000   6.128906e-05  1.496315e-08
    442    444   2   0.50000     0.0600000    0.0600000   6.128906e-05  1.496315e-08
    425    428   2   0.50000    -0.1200000   -0.1200000   1.015252e-03  1.866303e-06
    425    445   2   0.50000    -0.1200000    0.0600000   2.494471e-04  1.671101e-07
    425    446   2   0.50000    -0.1200000    0.0600000   2.494471e-04  1.671101e-07
    443    428   2   0.50000     0.0600000   -0.1200000   2.494471e-04  1.671101e-07
    443    445   2   0.50000     0.0600000    0.0600000   6.128906e-05  1.496315e-08
    443    446   2   0.50000     0.0600000    0.0600000   6.128906e-05  1.496315e-08
    444    428   2   0.50000     0.0600000   -0.1200000   2.494471e-04  1.671101e-07
    444    445   2   0.50000     0.0600000    0.0600000   6.128906e-05  1.496315e-08
    444    446   2   0.50000     0.0600000    0.0600000   6.128906e-05  1.496315e-08
    426    429   2   0.50000    -0.1200000   -0.1200000   1.015252e-03  1.866303e-06
    426    447   2   0.50000    -0.1200000    0.0600000   2.494471e-04  1.671101e-07
    426    448   2   0.50000    -0.1200000    0.0600000   2.494471e-04  1.671101e-07
    445    429   2   0.50000     0.0600000   -0.1200000   2.494471e-04  1.671101e-07
    445    447   2   0.50000     0.0600000    0.0600000   6.128906e-05  1.496315e-08
    445    448   2   0.50000     0.0600000    0.0600000   6.128906e-05  1.496315e-08
    446    429   2   0.50000     0.0600000   -0.1200000   2.494471e-04  1.671101e-07
    446    447   2   0.50000     0.0600000    0.0600000   6.128906e-05  1.496315e-08
    446    448   2   0.50000     0.0600000    0.0600000   6.128906e-05  1.496315e-08
    427    430   2   0.50000    -0.1200000   -0.1200000   1.015252e-03  1.866303e-06
    427    449   2   0.50000    -0.1200000    0.0600000   2.494471e-04  1.671101e-07
    427    450   2   0.50000    -0.1200000    0.0600000   2.494471e-04  1.671101e-07
    447    430   2   0.50000     0.0600000   -0.1200000   2.494471e-04  1.671101e-07
    447    449   2   0.50000     0.0600000    0.0600000   6.128906e-05  1.496315e-08
    447    450   2   0.50000     0.0600000    0.0600000   6.128906e-05  1.496315e-08
    448    430   2   0.50000     0.0600000   -0.1200000   2.494471e-04  1.671101e-07
    448    449   2   0.50000     0.0600000    0.0600000   6.128906e-05  1.496315e-08
    448    450   2   0.50000     0.0600000    0.0600000   6.128906e-05  1.496315e-08
    428    431   2   0.50000    -0.1200000   -0.1200000   1.015252e-03  1.866303e-06
    428    451   2   0.50000    -0.1200000    0.0600000   2.494471e-04  1.671101e-07
    428    452   2   0.50000    -0.1200000    0.0600000   2.494471e-04  1.671101e-07
    449    431   2   0.50000     0.0600000   -0.1200000   2.494471e-04  1.671101e-07
    449    451   2   0.50000     0.0600000    0.0600000   6.128906e-05  1.496315e-08
    449    452   2   0.50000     0.0600000    0.0600000   6.128906e-05  1.496315e-08
    450    431   2   0.50000     0.0600000   -0.1200000   2.494471e-04  1.671101e-07
    450    451   2   0.50000     0.0600000    0.0600000   6.128906e-05  1.496315e-08
    450    452   2   0.50000     0.0600000    0.0600000   6.128906e-05  1.496315e-08
    429    432   2   0.50000    -0.1200000   -0.1200000   1.015252e-03  1.866303e-06
    429    453   2   0.50000    -0.1200000    0.0600000   2.494471e-04  1.671101e-07
    429    454   2   0.50000    -0.1200000    0.0600000   2.494471e-04  1.671101e-07
    451    432   2   0.50000     0.0600000   -0.1200000   2.494471e-04  1.671101e-07
    451    453   2   0.50000     0.0600000    0.0600000   6.128906e-05  1.496315e-08
    451    454   2   0.50000     0.0600000    0.0600000   6.128906e-05  1.496315e-08
    452    432   2   0.50000     0.0600000   -0.1200000   2.494471e-04  1.671101e-07
    452    453   2   0.50000     0.0600000    0.0600000   6.128906e-05  1.496315e-08
    452    454   2   0.50000     0.0600000    0.0600000   6.128906e-05  1.496315e-08
    430    433   2   0.50000    -0.1200000   -0.1200000   1.015252e-03  1.866303e-06
    430    455   2   0.50000    -0.1200000    0.0600000   2.494471e-04  1.671101e-07
    430    456   2   0.50000    -0.1200000    0.0600000   2.494471e-04  1.671101e-07
    453    433   2   0.50000     0.0600000   -0.1200000   2.494471e-04  1.671101e-07
    453    455   2   0.50000     0.0600000    0.0600000   6.128906e-05  1.496315e-08
    453    456   2   0.50000     0.0600000    0.0600000   6.128906e-05  1.496315e-08
    454    433   2   0.50000     0.0600000   -0.1200000   2.494471e-04  1.671101e-07
    454    455   2   0.50000     0.0600000    0.0600000   6.128906e-05  1.496315e-08
    454    456   2   0.50000     0.0600000    0.0600000   6.128906e-05  1.496315e-08
    431    434   2   0.50000    -0.1200000   -0.1200000   1.015252e-03  1.866303e-06
    431    457   2   0.50000    -0.1200000    0.0600000   2.494471e-04  1.671101e-07
    431    458   2   0.50000    -0.1200000    0.0600000   2.494471e-04  1.671101e-07
    455    434   2   0.50000     0.0600000   -0.1200000   2.494471e-04  1.671101e-07
    455    457   2   0.50000     0.0600000    0.0600000   6.128906e-05  1.496315e-08
    455    458   2   0.50000     0.0600000    0.0600000   6.128906e-05  1.496315e-08
    456    434   2   0.50000     0.0600000   -0.1200000   2.494471e-04  1.671101e-07
    456    457   2   0.50000     0.0600000    0.0600000   6.128906e-05  1.496315e-08
    456    458   2   0.50000     0.0600000    0.0600000   6.128906e-05  1.496315e-08
    432    435   2   0.50000    -0.1200000   -0.1800000   1.015252e-03  1.866303e-06
    432    459   2   0.50000    -0.1200000    0.0600000   2.494471e-04  1.671101e-07
    432    460   2   0.50000    -0.1200000    0.0600000   2.494471e-04  1.671101e-07
    457    435   2   0.50000     0.0600000   -0.1800000   2.494471e-04  1.671101e-07
    457    459   2   0.50000     0.0600000    0.0600000   6.128906e-05  1.496315e-08
    457    460   2   0.50000     0.0600000    0.0600000   6.128906e-05  1.496315e-08
    458    435   2   0.50000     0.0600000   -0.1800000   2.494471e-04  1.671101e-07
    458    459   2   0.50000     0.0600000    0.0600000   6.128906e-05  1.496315e-08
    458    460   2   0.50000     0.0600000    0.0600000   6.128906e-05  1.496315e-08
    433    461   2   0.50000    -0.1200000    0.0600000   2.494471e-04  1.671101e-07
    433    462   2   0.50000    -0.1200000    0.0600000   2.494471e-04  1.671101e-07
    433    463   2   0.50000    -0.1200000    0.0600000   2.494471e-04  1.671101e-07
    459    461   2   0.50000     0.0600000    0.0600000   6.128906e-05  1.496315e-08
    459    462   2   0.50000     0.0600000    0.0600000   6.128906e-05  1.496315e-08
    459    463   2   0.50000     0.0600000    0.0600000   6.128906e-05  1.496315e-08
    460    461   2   0.50000     0.0600000    0.0600000   6.128906e-05  1.496315e-08
    460    462   2   0.50000     0.0600000    0.0600000   6.128906e-05  1.496315e-08
    460    463   2   0.50000     0.0600000    0.0600000   6.128906e-05  1.496315e-08
    423    466   2   0.50000    -0.0600000   -0.1200000   1.015252e-03  1.866303e-06
    423    480   2   0.50000    -0.0600000    0.0600000   2.494471e-04  1.671101e-07
    423    506   2   0.50000    -0.0600000   -0.1200000   1.015252e-03  1.866303e-06
    478    466   2   0.50000     0.0600000   -0.1200000   2.494471e-04  1.671101e-07
    478    480   2   0.50000     0.0600000    0.0600000   6.128906e-05  1.496315e-08
    478    506   2   0.50000     0.0600000   -0.1200000   2.494471e-04  1.671101e-07
    479    466   2   0.50000     0.0600000   -0.1200000   2.494471e-04  1.671101e-07
    479    480   2   0.50000     0.0600000    0.0600000   6.128906e-05  1.496315e-08
    479    506   2   0.50000     0.0600000   -0.1200000   2.494471e-04  1.671101e-07
    464    467   2   0.50000    -0.1200000   -0.1200000   1.015252e-03  1.866303e-06
    464    481   2   0.50000    -0.1200000    0.0600000   2.494471e-04  1.671101e-07
    464    482   2   0.50000    -0.1200000    0.0600000   2.494471e-04  1.671101e-07
    480    467   2   0.50000     0.0600000   -0.1200000   2.494471e-04  1.671101e-07
    480    481   2   0.50000     0.0600000    0.0600000   6.128906e-05  1.496315e-08
    480    482   2   0.50000     0.0600000    0.0600000   6.128906e-05  1.496315e-08
    506    467   2   0.50000    -0.1200000   -0.1200000   1.015252e-03  1.866303e-06
    506    481   2   0.50000    -0.1200000    0.0600000   2.494471e-04  1.671101e-07
    506    482   2   0.50000    -0.1200000    0.0600000   2.494471e-04  1.671101e-07
    464    507   2   0.50000    -0.1200000   -0.0600000   1.015252e-03  1.866303e-06
    464    520   2   0.50000    -0.1200000    0.0600000   2.494471e-04  1.671101e-07
    464    521   2   0.50000    -0.1200000    0.0600000   2.494471e-04  1.671101e-07
    466    507   2   0.50000    -0.1200000   -0.0600000   1.015252e-03  1.866303e-06
    466    520   2   0.50000    -0.1200000    0.0600000   2.494471e-04  1.671101e-07
    466    521   2   0.50000    -0.1200000    0.0600000   2.494471e-04  1.671101e-07
    480    507   2   0.50000     0.0600000   -0.0600000   2.494471e-04  1.671101e-07
    480    520   2   0.50000     0.0600000    0.0600000   6.128906e-05  1.496315e-08
    480    521   2   0.50000     0.0600000    0.0600000   6.128906e-05  1.496315e-08
    465    468   2   0.50000    -0.0600000   -0.1200000   1.015252e-03  1.866303e-06
    465    483   2   0.50000    -0.0600000    0.0600000   2.494471e-04  1.671101e-07
    465    484   2   0.50000    -0.0600000    0.0600000   2.494471e-04  1.671101e-07
    481    468   2   0.50000     0.0600000   -0.1200000   2.494471e-04  1.671101e-07
    481    483   2   0.50000     0.0600000    0.0600000   6.128906e-05  1.496315e-08
    481    484   2   0.50000     0.0600000    0.0600000   6.128906e-05  1.496315e-08
    482    468   2   0.50000     0.0600000   -0.1200000   2.494471e-04  1.671101e-07
    482    483   2   0.50000     0.0600000    0.0600000   6.128906e-05  1.496315e-08
    482    484   2   0.50000     0.0600000    0.0600000   6.128906e-05  1.496315e-08
    466    469   2   0.50000    -0.1200000   -0.1200000   1.015252e-03  1.866303e-06
    466    485   2   0.50000    -0.1200000    0.0600000   2.494471e-04  1.671101e-07
    466    486   2   0.50000    -0.1200000    0.0600000   2.494471e-04  1.671101e-07
    483    469   2   0.50000     0.0600000   -0.1200000   2.494471e-04  1.671101e-07
    483    485   2   0.50000     0.0600000    0.0600000   6.128906e-05  1.496315e-08
    483    486   2   0.50000     0.0600000    0.0600000   6.128906e-05  1.496315e-08
    484    469   2   0.50000     0.0600000   -0.1200000   2.494471e-04  1.671101e-07
    484    485   2   0.50000     0.0600000    0.0600000   6.128906e-05  1.496315e-08
    484    486   2   0.50000     0.0600000    0.0600000   6.128906e-05  1.496315e-08
    467    470   2   0.50000    -0.1200000   -0.1200000   1.015252e-03  1.866303e-06
    467    487   2   0.50000    -0.1200000    0.0600000   2.494471e-04  1.671101e-07
    467    488   2   0.50000    -0.1200000    0.0600000   2.494471e-04  1.671101e-07
    485    470   2   0.50000     0.0600000   -0.1200000   2.494471e-04  1.671101e-07
    485    487   2   0.50000     0.0600000    0.0600000   6.128906e-05  1.496315e-08
    485    488   2   0.50000     0.0600000    0.0600000   6.128906e-05  1.496315e-08
    486    470   2   0.50000     0.0600000   -0.1200000   2.494471e-04  1.671101e-07
    486    487   2   0.50000     0.0600000    0.0600000   6.128906e-05  1.496315e-08
    486    488   2   0.50000     0.0600000    0.0600000   6.128906e-05  1.496315e-08
    468    471   2   0.50000    -0.1200000   -0.1200000   1.015252e-03  1.866303e-06
    468    489   2   0.50000    -0.1200000    0.0600000   2.494471e-04  1.671101e-07
    468    490   2   0.50000    -0.1200000    0.0600000   2.494471e-04  1.671101e-07
    487    471   2   0.50000     0.0600000   -0.1200000   2.494471e-04  1.671101e-07
    487    489   2   0.50000     0.0600000    0.0600000   6.128906e-05  1.496315e-08
    487    490   2   0.50000     0.0600000    0.0600000   6.128906e-05  1.496315e-08
    488    471   2   0.50000     0.0600000   -0.1200000   2.494471e-04  1.671101e-07
    488    489   2   0.50000     0.0600000    0.0600000   6.128906e-05  1.496315e-08
    488    490   2   0.50000     0.0600000    0.0600000   6.128906e-05  1.496315e-08
    469    472   2   0.50000    -0.1200000   -0.1200000   1.015252e-03  1.866303e-06
    469    491   2   0.50000    -0.1200000    0.0600000   2.494471e-04  1.671101e-07
    469    492   2   0.50000    -0.1200000    0.0600000   2.494471e-04  1.671101e-07
    489    472   2   0.50000     0.0600000   -0.1200000   2.494471e-04  1.671101e-07
    489    491   2   0.50000     0.0600000    0.0600000   6.128906e-05  1.496315e-08
    489    492   2   0.50000     0.0600000    0.0600000   6.128906e-05  1.496315e-08
    490    472   2   0.50000     0.0600000   -0.1200000   2.494471e-04  1.671101e-07
    490    491   2   0.50000     0.0600000    0.0600000   6.128906e-05  1.496315e-08
    490    492   2   0.50000     0.0600000    0.0600000   6.128906e-05  1.496315e-08
    470    473   2   0.50000    -0.1200000   -0.1200000   1.015252e-03  1.866303e-06
    470    493   2   0.50000    -0.1200000    0.0600000   2.494471e-04  1.671101e-07
    470    494   2   0.50000    -0.1200000    0.0600000   2.494471e-04  1.671101e-07
    491    473   2   0.50000     0.0600000   -0.1200000   2.494471e-04  1.671101e-07
    491    493   2   0.50000     0.0600000    0.0600000   6.128906e-05  1.496315e-08
    491    494   2   0.50000     0.0600000    0.0600000   6.128906e-05  1.496315e-08
    492    473   2   0.50000     0.0600000   -0.1200000   2.494471e-04  1.671101e-07
    492    493   2   0.50000     0.0600000    0.0600000   6.128906e-05  1.496315e-08
    492    494   2   0.50000     0.0600000    0.0600000   6.128906e-05  1.496315e-08
    471    474   2   0.50000    -0.1200000   -0.1200000   1.015252e-03  1.866303e-06
    471    495   2   0.50000    -0.1200000    0.0600000   2.494471e-04  1.671101e-07
    471    496   2   0.50000    -0.1200000    0.0600000   2.494471e-04  1.671101e-07
    493    474   2   0.50000     0.0600000   -0.1200000   2.494471e-04  1.671101e-07
    493    495   2   0.50000     0.0600000    0.0600000   6.128906e-05  1.496315e-08
    493    496   2   0.50000     0.0600000    0.0600000   6.128906e-05  1.496315e-08
    494    474   2   0.50000     0.0600000   -0.1200000   2.494471e-04  1.671101e-07
    494    495   2   0.50000     0.0600000    0.0600000   6.128906e-05  1.496315e-08
    494    496   2   0.50000     0.0600000    0.0600000   6.128906e-05  1.496315e-08
    472    475   2   0.50000    -0.1200000   -0.1200000   1.015252e-03  1.866303e-06
    472    497   2   0.50000    -0.1200000    0.0600000   2.494471e-04  1.671101e-07
    472    498   2   0.50000    -0.1200000    0.0600000   2.494471e-04  1.671101e-07
    495    475   2   0.50000     0.0600000   -0.1200000   2.494471e-04  1.671101e-07
    495    497   2   0.50000     0.0600000    0.0600000   6.128906e-05  1.496315e-08
    495    498   2   0.50000     0.0600000    0.0600000   6.128906e-05  1.496315e-08
    496    475   2   0.50000     0.0600000   -0.1200000   2.494471e-04  1.671101e-07
    496    497   2   0.50000     0.0600000    0.0600000   6.128906e-05  1.496315e-08
    496    498   2   0.50000     0.0600000    0.0600000   6.128906e-05  1.496315e-08
    473    476   2   0.50000    -0.1200000   -0.1200000   1.015252e-03  1.866303e-06
    473    499   2   0.50000    -0.1200000    0.0600000   2.494471e-04  1.671101e-07
    473    500   2   0.50000    -0.1200000    0.0600000   2.494471e-04  1.671101e-07
    497    476   2   0.50000     0.0600000   -0.1200000   2.494471e-04  1.671101e-07
    497    499   2   0.50000     0.0600000    0.0600000   6.128906e-05  1.496315e-08
    497    500   2   0.50000     0.0600000    0.0600000   6.128906e-05  1.496315e-08
    498    476   2   0.50000     0.0600000   -0.1200000   2.494471e-04  1.671101e-07
    498    499   2   0.50000     0.0600000    0.0600000   6.128906e-05  1.496315e-08
    498    500   2   0.50000     0.0600000    0.0600000   6.128906e-05  1.496315e-08
    474    477   2   0.50000    -0.1200000   -0.1800000   1.015252e-03  1.866303e-06
    474    501   2   0.50000    -0.1200000    0.0600000   2.494471e-04  1.671101e-07
    474    502   2   0.50000    -0.1200000    0.0600000   2.494471e-04  1.671101e-07
    499    477   2   0.50000     0.0600000   -0.1800000   2.494471e-04  1.671101e-07
    499    501   2   0.50000     0.0600000    0.0600000   6.128906e-05  1.496315e-08
    499    502   2   0.50000     0.0600000    0.0600000   6.128906e-05  1.496315e-08
    500    477   2   0.50000     0.0600000   -0.1800000   2.494471e-04  1.671101e-07
    500    501   2   0.50000     0.0600000    0.0600000   6.128906e-05  1.496315e-08
    500    502   2   0.50000     0.0600000    0.0600000   6.128906e-05  1.496315e-08
    475    503   2   0.50000    -0.1200000    0.0600000   2.494471e-04  1.671101e-07
    475    504   2   0.50000    -0.1200000    0.0600000   2.494471e-04  1.671101e-07
    475    505   2   0.50000    -0.1200000    0.0600000   2.494471e-04  1.671101e-07
    501    503   2   0.50000     0.0600000    0.0600000   6.128906e-05  1.496315e-08
    501    504   2   0.50000     0.0600000    0.0600000   6.128906e-05  1.496315e-08
    501    505   2   0.50000     0.0600000    0.0600000   6.128906e-05  1.496315e-08
    502    503   2   0.50000     0.0600000    0.0600000   6.128906e-05  1.496315e-08
    502    504   2   0.50000     0.0600000    0.0600000   6.128906e-05  1.496315e-08
    502    505   2   0.50000     0.0600000    0.0600000   6.128906e-05  1.496315e-08
    465    508   2   0.50000    -0.0600000   -0.1200000   1.015252e-03  1.866303e-06
    465    522   2   0.50000    -0.0600000    0.0600000   2.494471e-04  1.671101e-07
    465    548   2   0.50000    -0.0600000   -0.1200000   1.015252e-03  1.866303e-06
    520    508   2   0.50000     0.0600000   -0.1200000   2.494471e-04  1.671101e-07
    520    522   2   0.50000     0.0600000    0.0600000   6.128906e-05  1.496315e-08
    520    548   2   0.50000     0.0600000   -0.1200000   2.494471e-04  1.671101e-07
    521    508   2   0.50000     0.0600000   -0.1200000   2.494471e-04  1.671101e-07
    521    522   2   0.50000     0.0600000    0.0600000   6.128906e-05  1.496315e-08
    521    548   2   0.50000     0.0600000   -0.1200000   2.494471e-04  1.671101e-07
    506    509   2   0.50000    -0.1200000   -0.1200000   1.015252e-03  1.866303e-06
    506    523   2   0.50000    -0.1200000    0.0600000   2.494471e-04  1.671101e-07
    506    524   2   0.50000    -0.1200000    0.0600000   2.494471e-04  1.671101e-07
    522    509   2   0.50000     0.0600000   -0.1200000   2.494471e-04  1.671101e-07
    522    523   2   0.50000     0.0600000    0.0600000   6.128906e-05  1.496315e-08
    522    524   2   0.50000     0.0600000    0.0600000   6.128906e-05  1.496315e-08
    548    509   2   0.50000    -0.1200000   -0.1200000   1.015252e-03  1.866303e-06
    548    523   2   0.50000    -0.1200000    0.0600000   2.494471e-04  1.671101e-07
    548    524   2   0.50000    -0.1200000    0.0600000   2.494471e-04  1.671101e-07
    506    549   2   0.50000    -0.1200000   -0.0600000   1.015252e-03  1.866303e-06
    506    562   2   0.50000    -0.1200000    0.0600000   2.494471e-04  1.671101e-07
    506    563   2   0.50000    -0.1200000    0.0600000   2.494471e-04  1.671101e-07
    508    549   2   0.50000    -0.1200000   -0.0600000   1.015252e-03  1.866303e-06
    508    562   2   0.50000    -0.1200000    0.0600000   2.494471e-04  1.671101e-07
    508    563   2   0.50000    -0.1200000    0.0600000   2.494471e-04  1.671101e-07
    522    549   2   0.50000     0.0600000   -0.0600000   2.494471e-04  1.671101e-07
    522    562   2   0.50000     0.0600000    0.0600000   6.128906e-05  1.496315e-08
    522    563   2   0.50000     0.0600000    0.0600000   6.128906e-05  1.496315e-08
    507    510   2   0.50000    -0.0600000   -0.1200000   1.015252e-03  1.866303e-06
    507    525   2   0.50000    -0.0600000    0.0600000   2.494471e-04  1.671101e-07
    507    526   2   0.50000    -0.0600000    0.0600000   2.494471e-04  1.671101e-07
    523    510   2   0.50000     0.0600000   -0.1200000   2.494471e-04  1.671101e-07
    523    525   2   0.50000     0.0600000    0.0600000   6.128906e-05  1.496315e-08
    523    526   2   0.50000     0.0600000    0.0600000   6.128906e-05  1.496315e-08
    524    510   2   0.50000     0.0600000   -0.1200000   2.494471e-04  1.671101e-07
    524    525   2   0.50000     0.0600000    0.0600000   6.128906e-05  1.496315e-08
    524    526   2   0.50000     0.0600000    0.0600000   6.128906e-05  1.496315e-08
    508    511   2   0.50000    -0.1200000   -0.1200000   1.015252e-03  1.866303e-06
    508    527   2   0.50000    -0.1200000    0.0600000   2.494471e-04  1.671101e-07
    508    528   2   0.50000    -0.1200000    0.0600000   2.494471e-04  1.671101e-07
    525    511   2   0.50000     0.0600000   -0.1200000   2.494471e-04  1.671101e-07
    525    527   2   0.50000     0.0600000    0.0600000   6.128906e-05  1.496315e-08
    525    528   2   0.50000     0.0600000    0.0600000   6.128906e-05  1.496315e-08
    526    511   2   0.50000     0.0600000   -0.1200000   2.494471e-04  1.671101e-07
    526    527   2   0.50000     0.0600000    0.0600000   6.128906e-05  1.496315e-08
    526    528   2   0.50000     0.0600000    0.0600000   6.128906e-05  1.496315e-08
    509    512   2   0.50000    -0.1200000   -0.1200000   1.015252e-03  1.866303e-06
    509    529   2   0.50000    -0.1200000    0.0600000   2.494471e-04  1.671101e-07
    509    530   2   0.50000    -0.1200000    0.0600000   2.494471e-04  1.671101e-07
    527    512   2   0.50000     0.0600000   -0.1200000   2.494471e-04  1.671101e-07
    527    529   2   0.50000     0.0600000    0.0600000   6.128906e-05  1.496315e-08
    527    530   2   0.50000     0.0600000    0.0600000   6.128906e-05  1.496315e-08
    528    512   2   0.50000     0.0600000   -0.1200000   2.494471e-04  1.671101e-07
    528    529   2   0.50000     0.0600000    0.0600000   6.128906e-05  1.496315e-08
    528    530   2   0.50000     0.0600000    0.0600000   6.128906e-05  1.496315e-08
    510    513   2   0.50000    -0.1200000   -0.1200000   1.015252e-03  1.866303e-06
    510    531   2   0.50000    -0.1200000    0.0600000   2.494471e-04  1.671101e-07
    510    532   2   0.50000    -0.1200000    0.0600000   2.494471e-04  1.671101e-07
    529    513   2   0.50000     0.0600000   -0.1200000   2.494471e-04  1.671101e-07
    529    531   2   0.50000     0.0600000    0.0600000   6.128906e-05  1.496315e-08
    529    532   2   0.50000     0.0600000    0.0600000   6.128906e-05  1.496315e-08
    530    513   2   0.50000     0.0600000   -0.1200000   2.494471e-04  1.671101e-07
    530    531   2   0.50000     0.0600000    0.0600000   6.128906e-05  1.496315e-08
    530    532   2   0.50000     0.0600000    0.0600000   6.128906e-05  1.496315e-08
    511    514   2   0.50000    -0.1200000   -0.1200000   1.015252e-03  1.866303e-06
    511    533   2   0.50000    -0.1200000    0.0600000   2.494471e-04  1.671101e-07
    511    534   2   0.50000    -0.1200000    0.0600000   2.494471e-04  1.671101e-07
    531    514   2   0.50000     0.0600000   -0.1200000   2.494471e-04  1.671101e-07
    531    533   2   0.50000     0.0600000    0.0600000   6.128906e-05  1.496315e-08
    531    534   2   0.50000     0.0600000    0.0600000   6.128906e-05  1.496315e-08
    532    514   2   0.50000     0.0600000   -0.1200000   2.494471e-04  1.671101e-07
    532    533   2   0.50000     0.0600000    0.0600000   6.128906e-05  1.496315e-08
    532    534   2   0.50000     0.0600000    0.0600000   6.128906e-05  1.496315e-08
    512    515   2   0.50000    -0.1200000   -0.1200000   1.015252e-03  1.866303e-06
    512    535   2   0.50000    -0.1200000    0.0600000   2.494471e-04  1.671101e-07
    512    536   2   0.50000    -0.1200000    0.0600000   2.494471e-04  1.671101e-07
    533    515   2   0.50000     0.0600000   -0.1200000   2.494471e-04  1.671101e-07
    533    535   2   0.50000     0.0600000    0.0600000   6.128906e-05  1.496315e-08
    533    536   2   0.50000     0.0600000    0.0600000   6.128906e-05  1.496315e-08
    534    515   2   0.50000     0.0600000   -0.1200000   2.494471e-04  1.671101e-07
    534    535   2   0.50000     0.0600000    0.0600000   6.128906e-05  1.496315e-08
    534    536   2   0.50000     0.0600000    0.0600000   6.128906e-05  1.496315e-08
    513    516   2   0.50000    -0.1200000   -0.1200000   1.015252e-03  1.866303e-06
    513    537   2   0.50000    -0.1200000    0.0600000   2.494471e-04  1.671101e-07
    513    538   2   0.50000    -0.1200000    0.0600000   2.494471e-04  1.671101e-07
    535    516   2   0.50000     0.0600000   -0.1200000   2.494471e-04  1.671101e-07
    535    537   2   0.50000     0.0600000    0.0600000   6.128906e-05  1.496315e-08
    535    538   2   0.50000     0.0600000    0.0600000   6.128906e-05  1.496315e-08
    536    516   2   0.50000     0.0600000   -0.1200000   2.494471e-04  1.671101e-07
    536    537   2   0.50000     0.0600000    0.0600000   6.128906e-05  1.496315e-08
    536    538   2   0.50000     0.0600000    0.0600000   6.128906e-05  1.496315e-08
    514    517   2   0.50000    -0.1200000   -0.1200000   1.015252e-03  1.866303e-06
    514    539   2   0.50000    -0.1200000    0.0600000   2.494471e-04  1.671101e-07
    514    540   2   0.50000    -0.1200000    0.0600000   2.494471e-04  1.671101e-07
    537    517   2   0.50000     0.0600000   -0.1200000   2.494471e-04  1.671101e-07
    537    539   2   0.50000     0.0600000    0.0600000   6.128906e-05  1.496315e-08
    537    540   2   0.50000     0.0600000    0.0600000   6.128906e-05  1.496315e-08
    538    517   2   0.50000     0.0600000   -0.1200000   2.494471e-04  1.671101e-07
    538    539   2   0.50000     0.0600000    0.0600000   6.128906e-05  1.496315e-08
    538    540   2   0.50000     0.0600000    0.0600000   6.128906e-05  1.496315e-08
    515    518   2   0.50000    -0.1200000   -0.1200000   1.015252e-03  1.866303e-06
    515    541   2   0.50000    -0.1200000    0.0600000   2.494471e-04  1.671101e-07
    515    542   2   0.50000    -0.1200000    0.0600000   2.494471e-04  1.671101e-07
    539    518   2   0.50000     0.0600000   -0.1200000   2.494471e-04  1.671101e-07
    539    541   2   0.50000     0.0600000    0.0600000   6.128906e-05  1.496315e-08
    539    542   2   0.50000     0.0600000    0.0600000   6.128906e-05  1.496315e-08
    540    518   2   0.50000     0.0600000   -0.1200000   2.494471e-04  1.671101e-07
    540    541   2   0.50000     0.0600000    0.0600000   6.128906e-05  1.496315e-08
    540    542   2   0.50000     0.0600000    0.0600000   6.128906e-05  1.496315e-08
    516    519   2   0.50000    -0.1200000   -0.1800000   1.015252e-03  1.866303e-06
    516    543   2   0.50000    -0.1200000    0.0600000   2.494471e-04  1.671101e-07
    516    544   2   0.50000    -0.1200000    0.0600000   2.494471e-04  1.671101e-07
    541    519   2   0.50000     0.0600000   -0.1800000   2.494471e-04  1.671101e-07
    541    543   2   0.50000     0.0600000    0.0600000   6.128906e-05  1.496315e-08
    541    544   2   0.50000     0.0600000    0.0600000   6.128906e-05  1.496315e-08
    542    519   2   0.50000     0.0600000   -0.1800000   2.494471e-04  1.671101e-07
    542    543   2   0.50000     0.0600000    0.0600000   6.128906e-05  1.496315e-08
    542    544   2   0.50000     0.0600000    0.0600000   6.128906e-05  1.496315e-08
    517    545   2   0.50000    -0.1200000    0.0600000   2.494471e-04  1.671101e-07
    517    546   2   0.50000    -0.1200000    0.0600000   2.494471e-04  1.671101e-07
    517    547   2   0.50000    -0.1200000    0.0600000   2.494471e-04  1.671101e-07
    543    545   2   0.50000     0.0600000    0.0600000   6.128906e-05  1.496315e-08
    543    546   2   0.50000     0.0600000    0.0600000   6.128906e-05  1.496315e-08
    543    547   2   0.50000     0.0600000    0.0600000   6.128906e-05  1.496315e-08
    544    545   2   0.50000     0.0600000    0.0600000   6.128906e-05  1.496315e-08
    544    546   2   0.50000     0.0600000    0.0600000   6.128906e-05  1.496315e-08
    544    547   2   0.50000     0.0600000    0.0600000   6.128906e-05  1.496315e-08
    507    550   2   0.50000    -0.0600000   -0.1200000   1.015252e-03  1.866303e-06
    507    564   2   0.50000    -0.0600000    0.0600000   2.494471e-04  1.671101e-07
    507    590   2   0.50000    -0.0600000   -0.1200000   1.015252e-03  1.866303e-06
    562    550   2   0.50000     0.0600000   -0.1200000   2.494471e-04  1.671101e-07
    562    564   2   0.50000     0.0600000    0.0600000   6.128906e-05  1.496315e-08
    562    590   2   0.50000     0.0600000   -0.1200000   2.494471e-04  1.671101e-07
    563    550   2   0.50000     0.0600000   -0.1200000   2.494471e-04  1.671101e-07
    563    564   2   0.50000     0.0600000    0.0600000   6.128906e-05  1.496315e-08
    563    590   2   0.50000     0.0600000   -0.1200000   2.494471e-04  1.671101e-07
    548    551   2   0.50000    -0.1200000   -0.1200000   1.015252e-03  1.866303e-06
    548    565   2   0.50000    -0.1200000    0.0600000   2.494471e-04  1.671101e-07
    548    566   2   0.50000    -0.1200000    0.0600000   2.494471e-04  1.671101e-07
    564    551   2   0.50000     0.0600000   -0.1200000   2.494471e-04  1.671101e-07
    564    565   2   0.50000     0.0600000    0.0600000   6.128906e-05  1.496315e-08
    564    566   2   0.50000     0.0600000    0.0600000   6.128906e-05  1.496315e-08
    590    551   2   0.50000    -0.1200000   -0.1200000   1.015252e-03  1.866303e-06
    590    565   2   0.50000    -0.1200000    0.0600000   2.494471e-04  1.671101e-07
    590    566   2   0.50000    -0.1200000    0.0600000   2.494471e-04  1.671101e-07
    548    591   2   0.50000    -0.1200000   -0.0600000   1.015252e-03  1.866303e-06
    548    604   2   0.50000    -0.1200000    0.0600000   2.494471e-04  1.671101e-07
    548    605   2   0.50000    -0.1200000    0.0600000   2.494471e-04  1.671101e-07
    550    591   2   0.50000    -0.1200000   -0.0600000   1.015252e-03  1.866303e-06
    550    604   2   0.50000    -0.1200000    0.0600000   2.494471e-04  1.671101e-07
    550    605   2   0.50000    -0.1200000    0.0600000   2.494471e-04  1.671101e-07
    564    591   2   0.50000     0.0600000   -0.0600000   2.494471e-04  1.671101e-07
    564    604   2   0.50000     0.0600000    0.0600000   6.128906e-05  1.496315e-08
    564    605   2   0.50000     0.0600000    0.0600000   6.128906e-05  1.496315e-08
    549    552   2   0.50000    -0.0600000   -0.1200000   1.015252e-03  1.866303e-06
    549    567   2   0.50000    -0.0600000    0.0600000   2.494471e-04  1.671101e-07
    549    568   2   0.50000    -0.0600000    0.0600000   2.494471e-04  1.671101e-07
    565    552   2   0.50000     0.0600000   -0.1200000   2.494471e-04  1.671101e-07
    565    567   2   0.50000     0.0600000    0.0600000   6.128906e-05  1.496315e-08
    565    568   2   0.50000     0.0600000    0.0600000   6.128906e-05  1.496315e-08
    566    552   2   0.50000     0.0600000   -0.1200000   2.494471e-04  1.671101e-07
    566    567   2   0.50000     0.0600000    0.0600000   6.128906e-05  1.496315e-08
    566    568   2   0.50000     0.0600000    0.0600000   6.128906e-05  1.496315e-08
    550    553   2   0.50000    -0.1200000   -0.1200000   1.015252e-03  1.866303e-06
    550    569   2   0.50000    -0.1200000    0.0600000   2.494471e-04  1.671101e-07
    550    570   2   0.50000    -0.1200000    0.0600000   2.494471e-04  1.671101e-07
    567    553   2   0.50000     0.0600000   -0.1200000   2.494471e-04  1.671101e-07
    567    569   2   0.50000     0.0600000    0.0600000   6.128906e-05  1.496315e-08
    567    570   2   0.50000     0.0600000    0.0600000   6.128906e-05  1.496315e-08
    568    553   2   0.50000     0.0600000   -0.1200000   2.494471e-04  1.671101e-07
    568    569   2   0.50000     0.0600000    0.0600000   6.128906e-05  1.496315e-08
    568    570   2   0.50000     0.0600000    0.0600000   6.128906e-05  1.496315e-08
    551    554   2   0.50000    -0.1200000   -0.1200000   1.015252e-03  1.866303e-06
    551    571   2   0.50000    -0.1200000    0.0600000   2.494471e-04  1.671101e-07
    551    572   2   0.50000    -0.1200000    0.0600000   2.494471e-04  1.671101e-07
    569    554   2   0.50000     0.0600000   -0.1200000   2.494471e-04  1.671101e-07
    569    571   2   0.50000     0.0600000    0.0600000   6.128906e-05  1.496315e-08
    569    572   2   0.50000     0.0600000    0.0600000   6.128906e-05  1.496315e-08
    570    554   2   0.50000     0.0600000   -0.1200000   2.494471e-04  1.671101e-07
    570    571   2   0.50000     0.0600000    0.0600000   6.128906e-05  1.496315e-08
    570    572   2   0.50000     0.0600000    0.0600000   6.128906e-05  1.496315e-08
    552    555   2   0.50000    -0.1200000   -0.1200000   1.015252e-03  1.866303e-06
    552    573   2   0.50000    -0.1200000    0.0600000   2.494471e-04  1.671101e-07
    552    574   2   0.50000    -0.1200000    0.0600000   2.494471e-04  1.671101e-07
    571    555   2   0.50000     0.0600000   -0.1200000   2.494471e-04  1.671101e-07
    571    573   2   0.50000     0.0600000    0.0600000   6.128906e-05  1.496315e-08
    571    574   2   0.50000     0.0600000    0.0600000   6.128906e-05  1.496315e-08
    572    555   2   0.50000     0.0600000   -0.1200000   2.494471e-04  1.671101e-07
    572    573   2   0.50000     0.0600000    0.0600000   6.128906e-05  1.496315e-08
    572    574   2   0.50000     0.0600000    0.0600000   6.128906e-05  1.496315e-08
    553    556   2   0.50000    -0.1200000   -0.1200000   1.015252e-03  1.866303e-06
    553    575   2   0.50000    -0.1200000    0.0600000   2.494471e-04  1.671101e-07
    553    576   2   0.50000    -0.1200000    0.0600000   2.494471e-04  1.671101e-07
    573    556   2   0.50000     0.0600000   -0.1200000   2.494471e-04  1.671101e-07
    573    575   2   0.50000     0.0600000    0.0600000   6.128906e-05  1.496315e-08
    573    576   2   0.50000     0.0600000    0.0600000   6.128906e-05  1.496315e-08
    574    556   2   0.50000     0.0600000   -0.1200000   2.494471e-04  1.671101e-07
    574    575   2   0.50000     0.0600000    0.0600000   6.128906e-05  1.496315e-08
    574    576   2   0.50000     0.0600000    0.0600000   6.128906e-05  1.496315e-08
    554    557   2   0.50000    -0.1200000   -0.1200000   1.015252e-03  1.866303e-06
    554    577   2   0.50000    -0.1200000    0.0600000   2.494471e-04  1.671101e-07
    554    578   2   0.50000    -0.1200000    0.0600000   2.494471e-04  1.671101e-07
    575    557   2   0.50000     0.0600000   -0.1200000   2.494471e-04  1.671101e-07
    575    577   2   0.50000     0.0600000    0.0600000   6.128906e-05  1.496315e-08
    575    578   2   0.50000     0.0600000    0.0600000   6.128906e-05  1.496315e-08
    576    557   2   0.50000     0.0600000   -0.1200000   2.494471e-04  1.671101e-07
    576    577   2   0.50000     0.0600000    0.0600000   6.128906e-05  1.496315e-08
    576    578   2   0.50000     0.0600000    0.0600000   6.128906e-05  1.496315e-08
    555    558   2   0.50000    -0.1200000   -0.1200000   1.015252e-03  1.866303e-06
    555    579   2   0.50000    -0.1200000    0.0600000   2.494471e-04  1.671101e-07
    555    580   2   0.50000    -0.1200000    0.0600000   2.494471e-04  1.671101e-07
    577    558   2   0.50000     0.0600000   -0.1200000   2.494471e-04  1.671101e-07
    577    579   2   0.50000     0.0600000    0.0600000   6.128906e-05  1.496315e-08
    577    580   2   0.50000     0.0600000    0.0600000   6.128906e-05  1.496315e-08
    578    558   2   0.50000     0.0600000   -0.1200000   2.494471e-04  1.671101e-07
    578    579   2   0.50000     0.0600000    0.0600000   6.128906e-05  1.496315e-08
    578    580   2   0.50000     0.0600000    0.0600000   6.128906e-05  1.496315e-08
    556    559   2   0.50000    -0.1200000   -0.1200000   1.015252e-03  1.866303e-06
    556    581   2   0.50000    -0.1200000    0.0600000   2.494471e-04  1.671101e-07
    556    582   2   0.50000    -0.1200000    0.0600000   2.494471e-04  1.671101e-07
    579    559   2   0.50000     0.0600000   -0.1200000   2.494471e-04  1.671101e-07
    579    581   2   0.50000     0.0600000    0.0600000   6.128906e-05  1.496315e-08
    579    582   2   0.50000     0.0600000    0.0600000   6.128906e-05  1.496315e-08
    580    559   2   0.50000     0.0600000   -0.1200000   2.494471e-04  1.671101e-07
    580    581   2   0.50000     0.0600000    0.0600000   6.128906e-05  1.496315e-08
    580    582   2   0.50000     0.0600000    0.0600000   6.128906e-05  1.496315e-08
    557    560   2   0.50000    -0.1200000   -0.1200000   1.015252e-03  1.866303e-06
    557    583   2   0.50000    -0.1200000    0.0600000   2.494471e-04  1.671101e-07
    557    584   2   0.50000    -0.1200000    0.0600000   2.494471e-04  1.671101e-07
    581    560   2   0.50000     0.0600000   -0.1200000   2.494471e-04  1.671101e-07
    581    583   2   0.50000     0.0600000    0.0600000   6.128906e-05  1.496315e-08
    581    584   2   0.50000     0.0600000    0.0600000   6.128906e-05  1.496315e-08
    582    560   2   0.50000     0.0600000   -0.1200000   2.494471e-04  1.671101e-07
    582    583   2   0.50000     0.0600000    0.0600000   6.128906e-05  1.496315e-08
    582    584   2   0.50000     0.0600000    0.0600000   6.128906e-05  1.496315e-08
    558    561   2   0.50000    -0.1200000   -0.1800000   1.015252e-03  1.866303e-06
    558    585   2   0.50000    -0.1200000    0.0600000   2.494471e-04  1.671101e-07
    558    586   2   0.50000    -0.1200000    0.0600000   2.494471e-04  1.671101e-07
    583    561   2   0.50000     0.0600000   -0.1800000   2.494471e-04  1.671101e-07
    583    585   2   0.50000     0.0600000    0.0600000   6.128906e-05  1.496315e-08
    583    586   2   0.50000     0.0600000    0.0600000   6.128906e-05  1.496315e-08
    584    561   2   0.50000     0.0600000   -0.1800000   2.494471e-04  1.671101e-07
    584    585   2   0.50000     0.0600000    0.0600000   6.128906e-05  1.496315e-08
    584    586   2   0.50000     0.0600000    0.0600000   6.128906e-05  1.496315e-08
    559    587   2   0.50000    -0.1200000    0.0600000   2.494471e-04  1.671101e-07
    559    588   2   0.50000    -0.1200000    0.0600000   2.494471e-04  1.671101e-07
    559    589   2   0.50000    -0.1200000    0.0600000   2.494471e-04  1.671101e-07
    585    587   2   0.50000     0.0600000    0.0600000   6.128906e-05  1.496315e-08
    585    588   2   0.50000     0.0600000    0.0600000   6.128906e-05  1.496315e-08
    585    589   2   0.50000     0.0600000    0.0600000   6.128906e-05  1.496315e-08
    586    587   2   0.50000     0.0600000    0.0600000   6.128906e-05  1.496315e-08
    586    588   2   0.50000     0.0600000    0.0600000   6.128906e-05  1.496315e-08
    586    589   2   0.50000     0.0600000    0.0600000   6.128906e-05  1.496315e-08
    549    592   2   0.50000    -0.0600000   -0.1200000   1.015252e-03  1.866303e-06
    549    606   2   0.50000    -0.0600000    0.0600000   2.494471e-04  1.671101e-07
    549    632   2   0.50000    -0.0600000   -0.1200000   1.015252e-03  1.866303e-06
    604    592   2   0.50000     0.0600000   -0.1200000   2.494471e-04  1.671101e-07
    604    606   2   0.50000     0.0600000    0.0600000   6.128906e-05  1.496315e-08
    604    632   2   0.50000     0.0600000   -0.1200000   2.494471e-04  1.671101e-07
    605    592   2   0.50000     0.0600000   -0.1200000   2.494471e-04  1.671101e-07
    605    606   2   0.50000     0.0600000    0.0600000   6.128906e-05  1.496315e-08
    605    632   2   0.50000     0.0600000   -0.1200000   2.494471e-04  1.671101e-07
    590    593   2   0.50000    -0.1200000   -0.1200000   1.015252e-03  1.866303e-06
    590    607   2   0.50000    -0.1200000    0.0600000   2.494471e-04  1.671101e-07
    590    608   2   0.50000    -0.1200000    0.0600000   2.494471e-04  1.671101e-07
    606    593   2   0.50000     0.0600000   -0.1200000   2.494471e-04  1.671101e-07
    606    607   2   0.50000     0.0600000    0.0600000   6.128906e-05  1.496315e-08
    606    608   2   0.50000     0.0600000    0.0600000   6.128906e-05  1.496315e-08
    632    593   2   0.50000    -0.1200000   -0.1200000   1.015252e-03  1.866303e-06
    632    607   2   0.50000    -0.1200000    0.0600000   2.494471e-04  1.671101e-07
    632    608   2   0.50000    -0.1200000    0.0600000   2.494471e-04  1.671101e-07
    590    633   2   0.50000    -0.1200000   -0.0600000   1.015252e-03  1.866303e-06
    590    646   2   0.50000    -0.1200000    0.0600000   2.494471e-04  1.671101e-07
    590    647   2   0.50000    -0.1200000    0.0600000   2.494471e-04  1.671101e-07
    592    633   2   0.50000    -0.1200000   -0.0600000   1.015252e-03  1.866303e-06
    592    646   2   0.50000    -0.1200000    0.0600000   2.494471e-04  1.671101e-07
    592    647   2   0.50000    -0.1200000    0.0600000   2.494471e-04  1.671101e-07
    606    633   2   0.50000     0.0600000   -0.0600000   2.494471e-04  1.671101e-07
    606    646   2   0.50000     0.0600000    0.0600000   6.128906e-05  1.496315e-08
    606    647   2   0.50000     0.0600000    0.0600000   6.128906e-05  1.496315e-08
    591    594   2   0.50000    -0.0600000   -0.1200000   1.015252e-03  1.866303e-06
    591    609   2   0.50000    -0.0600000    0.0600000   2.494471e-04  1.671101e-07
    591    610   2   0.50000    -0.0600000    0.0600000   2.494471e-04  1.671101e-07
    607    594   2   0.50000     0.0600000   -0.1200000   2.494471e-04  1.671101e-07
    607    609   2   0.50000     0.0600000    0.0600000   6.128906e-05  1.496315e-08
    607    610   2   0.50000     0.0600000    0.0600000   6.128906e-05  1.496315e-08
    608    594   2   0.50000     0.0600000   -0.1200000   2.494471e-04  1.671101e-07
    608    609   2   0.50000     0.0600000    0.0600000   6.128906e-05  1.496315e-08
    608    610   2   0.50000     0.0600000    0.0600000   6.128906e-05  1.496315e-08
    592    595   2   0.50000    -0.1200000   -0.1200000   1.015252e-03  1.866303e-06
    592    611   2   0.50000    -0.1200000    0.0600000   2.494471e-04  1.671101e-07
    592    612   2   0.50000    -0.1200000    0.0600000   2.494471e-04  1.671101e-07
    609    595   2   0.50000     0.0600000   -0.1200000   2.494471e-04  1.671101e-07
    609    611   2   0.50000     0.0600000    0.0600000   6.128906e-05  1.496315e-08
    609    612   2   0.50000     0.0600000    0.0600000   6.128906e-05  1.496315e-08
    610    595   2   0.50000     0.0600000   -0.1200000   2.494471e-04  1.671101e-07
    610    611   2   0.50000     0.0600000    0.0600000   6.128906e-05  1.496315e-08
    610    612   2   0.50000     0.0600000    0.0600000   6.128906e-05  1.496315e-08
    593    596   2   0.50000    -0.1200000   -0.1200000   1.015252e-03  1.866303e-06
    593    613   2   0.50000    -0.1200000    0.0600000   2.494471e-04  1.671101e-07
    593    614   2   0.50000    -0.1200000    0.0600000   2.494471e-04  1.671101e-07
    611    596   2   0.50000     0.0600000   -0.1200000   2.494471e-04  1.671101e-07
    611    613   2   0.50000     0.0600000    0.0600000   6.128906e-05  1.496315e-08
    611    614   2   0.50000     0.0600000    0.0600000   6.128906e-05  1.496315e-08
    612    596   2   0.50000     0.0600000   -0.1200000   2.494471e-04  1.671101e-07
    612    613   2   0.50000     0.0600000    0.0600000   6.128906e-05  1.496315e-08
    612    614   2   0.50000     0.0600000    0.0600000   6.128906e-05  1.496315e-08
    594    597   2   0.50000    -0.1200000   -0.1200000   1.015252e-03  1.866303e-06
    594    615   2   0.50000    -0.1200000    0.0600000   2.494471e-04  1.671101e-07
    594    616   2   0.50000    -0.1200000    0.0600000   2.494471e-04  1.671101e-07
    613    597   2   0.50000     0.0600000   -0.1200000   2.494471e-04  1.671101e-07
    613    615   2   0.50000     0.0600000    0.0600000   6.128906e-05  1.496315e-08
    613    616   2   0.50000     0.0600000    0.0600000   6.128906e-05  1.496315e-08
    614    597   2   0.50000     0.0600000   -0.1200000   2.494471e-04  1.671101e-07
    614    615   2   0.50000     0.0600000    0.0600000   6.128906e-05  1.496315e-08
    614    616   2   0.50000     0.0600000    0.0600000   6.128906e-05  1.496315e-08
    595    598   2   0.50000    -0.1200000   -0.1200000   1.015252e-03  1.866303e-06
    595    617   2   0.50000    -0.1200000    0.0600000   2.494471e-04  1.671101e-07
    595    618   2   0.50000    -0.1200000    0.0600000   2.494471e-04  1.671101e-07
    615    598   2   0.50000     0.0600000   -0.1200000   2.494471e-04  1.671101e-07
    615    617   2   0.50000     0.0600000    0.0600000   6.128906e-05  1.496315e-08
    615    618   2   0.50000     0.0600000    0.0600000   6.128906e-05  1.496315e-08
    616    598   2   0.50000     0.0600000   -0.1200000   2.494471e-04  1.671101e-07
    616    617   2   0.50000     0.0600000    0.0600000   6.128906e-05  1.496315e-08
    616    618   2   0.50000     0.0600000    0.0600000   6.128906e-05  1.496315e-08
    596    599   2   0.50000    -0.1200000   -0.1200000   1.015252e-03  1.866303e-06
    596    619   2   0.50000    -0.1200000    0.0600000   2.494471e-04  1.671101e-07
    596    620   2   0.50000    -0.1200000    0.0600000   2.494471e-04  1.671101e-07
    617    599   2   0.50000     0.0600000   -0.1200000   2.494471e-04  1.671101e-07
    617    619   2   0.50000     0.0600000    0.0600000   6.128906e-05  1.496315e-08
    617    620   2   0.50000     0.0600000    0.0600000   6.128906e-05  1.496315e-08
    618    599   2   0.50000     0.0600000   -0.1200000   2.494471e-04  1.671101e-07
    618    619   2   0.50000     0.0600000    0.0600000   6.128906e-05  1.496315e-08
    618    620   2   0.50000     0.0600000    0.0600000   6.128906e-05  1.496315e-08
    597    600   2   0.50000    -0.1200000   -0.1200000   1.015252e-03  1.866303e-06
    597    621   2   0.50000    -0.1200000    0.0600000   2.494471e-04  1.671101e-07
    597    622   2   0.50000    -0.1200000    0.0600000   2.494471e-04  1.671101e-07
    619    600   2   0.50000     0.0600000   -0.1200000   2.494471e-04  1.671101e-07
    619    621   2   0.50000     0.0600000    0.0600000   6.128906e-05  1.496315e-08
    619    622   2   0.50000     0.0600000    0.0600000   6.128906e-05  1.496315e-08
    620    600   2   0.50000     0.0600000   -0.1200000   2.494471e-04  1.671101e-07
    620    621   2   0.50000     0.0600000    0.0600000   6.128906e-05  1.496315e-08
    620    622   2   0.50000     0.0600000    0.0600000   6.128906e-05  1.496315e-08
    598    601   2   0.50000    -0.1200000   -0.1200000   1.015252e-03  1.866303e-06
    598    623   2   0.50000    -0.1200000    0.0600000   2.494471e-04  1.671101e-07
    598    624   2   0.50000    -0.1200000    0.0600000   2.494471e-04  1.671101e-07
    621    601   2   0.50000     0.0600000   -0.1200000   2.494471e-04  1.671101e-07
    621    623   2   0.50000     0.0600000    0.0600000   6.128906e-05  1.496315e-08
    621    624   2   0.50000     0.0600000    0.0600000   6.128906e-05  1.496315e-08
    622    601   2   0.50000     0.0600000   -0.1200000   2.494471e-04  1.671101e-07
    622    623   2   0.50000     0.0600000    0.0600000   6.128906e-05  1.496315e-08
    622    624   2   0.50000     0.0600000    0.0600000   6.128906e-05  1.496315e-08
    599    602   2   0.50000    -0.1200000   -0.1200000   1.015252e-03  1.866303e-06
    599    625   2   0.50000    -0.1200000    0.0600000   2.494471e-04  1.671101e-07
    599    626   2   0.50000    -0.1200000    0.0600000   2.494471e-04  1.671101e-07
    623    602   2   0.50000     0.0600000   -0.1200000   2.494471e-04  1.671101e-07
    623    625   2   0.50000     0.0600000    0.0600000   6.128906e-05  1.496315e-08
    623    626   2   0.50000     0.0600000    0.0600000   6.128906e-05  1.496315e-08
    624    602   2   0.50000     0.0600000   -0.1200000   2.494471e-04  1.671101e-07
    624    625   2   0.50000     0.0600000    0.0600000   6.128906e-05  1.496315e-08
    624    626   2   0.50000     0.0600000    0.0600000   6.128906e-05  1.496315e-08
    600    603   2   0.50000    -0.1200000   -0.1800000   1.015252e-03  1.866303e-06
    600    627   2   0.50000    -0.1200000    0.0600000   2.494471e-04  1.671101e-07
    600    628   2   0.50000    -0.1200000    0.0600000   2.494471e-04  1.671101e-07
    625    603   2   0.50000     0.0600000   -0.1800000   2.494471e-04  1.671101e-07
    625    627   2   0.50000     0.0600000    0.0600000   6.128906e-05  1.496315e-08
    625    628   2   0.50000     0.0600000    0.0600000   6.128906e-05  1.496315e-08
    626    603   2   0.50000     0.0600000   -0.1800000   2.494471e-04  1.671101e-07
    626    627   2   0.50000     0.0600000    0.0600000   6.128906e-05  1.496315e-08
    626    628   2   0.50000     0.0600000    0.0600000   6.128906e-05  1.496315e-08
    601    629   2   0.50000    -0.1200000    0.0600000   2.494471e-04  1.671101e-07
    601    630   2   0.50000    -0.1200000    0.0600000   2.494471e-04  1.671101e-07
    601    631   2   0.50000    -0.1200000    0.0600000   2.494471e-04  1.671101e-07
    627    629   2   0.50000     0.0600000    0.0600000   6.128906e-05  1.496315e-08
    627    630   2   0.50000     0.0600000    0.0600000   6.128906e-05  1.496315e-08
    627    631   2   0.50000     0.0600000    0.0600000   6.128906e-05  1.496315e-08
    628    629   2   0.50000     0.0600000    0.0600000   6.128906e-05  1.496315e-08
    628    630   2   0.50000     0.0600000    0.0600000   6.128906e-05  1.496315e-08
    628    631   2   0.50000     0.0600000    0.0600000   6.128906e-05  1.496315e-08
    591    634   2   0.50000    -0.0600000   -0.1200000   1.015252e-03  1.866303e-06
    591    648   2   0.50000    -0.0600000    0.0600000   2.494471e-04  1.671101e-07
    591    674   2   0.50000    -0.0600000   -0.1200000   1.015252e-03  1.866303e-06
    646    634   2   0.50000     0.0600000   -0.1200000   2.494471e-04  1.671101e-07
    646    648   2   0.50000     0.0600000    0.0600000   6.128906e-05  1.496315e-08
    646    674   2   0.50000     0.0600000   -0.1200000   2.494471e-04  1.671101e-07
    647    634   2   0.50000     0.0600000   -0.1200000   2.494471e-04  1.671101e-07
    647    648   2   0.50000     0.0600000    0.0600000   6.128906e-05  1.496315e-08
    647    674   2   0.50000     0.0600000   -0.1200000   2.494471e-04  1.671101e-07
    632    635   2   0.50000    -0.1200000   -0.1200000   1.015252e-03  1.866303e-06
    632    649   2   0.50000    -0.1200000    0.0600000   2.494471e-04  1.671101e-07
    632    650   2   0.50000    -0.1200000    0.0600000   2.494471e-04  1.671101e-07
    648    635   2   0.50000     0.0600000   -0.1200000   2.494471e-04  1.671101e-07
    648    649   2   0.50000     0.0600000    0.0600000   6.128906e-05  1.496315e-08
    648    650   2   0.50000     0.0600000    0.0600000   6.128906e-05  1.496315e-08
    674    635   2   0.50000    -0.1200000   -0.1200000   1.015252e-03  1.866303e-06
    674    649   2   0.50000    -0.1200000    0.0600000   2.494471e-04  1.671101e-07
    674    650   2   0.50000    -0.1200000    0.0600000   2.494471e-04  1.671101e-07
    632    675   2   0.50000    -0.1200000   -0.0600000   1.015252e-03  1.866303e-06
    632    688   2   0.50000    -0.1200000    0.0600000   2.494471e-04  1.671101e-07
    632    689   2   0.50000    -0.1200000    0.0600000   2.494471e-04  1.671101e-07
    634    675   2   0.50000    -0.1200000   -0.0600000   1.015252e-03  1.866303e-06
    634    688   2   0.50000    -0.1200000    0.0600000   2.494471e-04  1.671101e-07
    634    689   2   0.50000    -0.1200000    0.0600000   2.494471e-04  1.671101e-07
    648    675   2   0.50000     0.0600000   -0.0600000   2.494471e-04  1.671101e-07
    648    688   2   0.50000     0.0600000    0.0600000   6.128906e-05  1.496315e-08
    648    689   2   0.50000     0.0600000    0.0600000   6.128906e-05  1.496315e-08
    633    636   2   0.50000    -0.0600000   -0.1200000   1.015252e-03  1.866303e-06
    633    651   2   0.50000    -0.0600000    0.0600000   2.494471e-04  1.671101e-07
    633    652   2   0.50000    -0.0600000    0.0600000   2.494471e-04  1.671101e-07
    649    636   2   0.50000     0.0600000   -0.1200000   2.494471e-04  1.671101e-07
    649    651   2   0.50000     0.0600000    0.0600000   6.128906e-05  1.496315e-08
    649    652   2   0.50000     0.0600000    0.0600000   6.128906e-05  1.496315e-08
    650    636   2   0.50000     0.0600000   -0.1200000   2.494471e-04  1.671101e-07
    650    651   2   0.50000     0.0600000    0.0600000   6.128906e-05  1.496315e-08
    650    652   2   0.50000     0.0600000    0.0600000   6.128906e-05  1.496315e-08
    634    637   2   0.50000    -0.1200000   -0.1200000   1.015252e-03  1.866303e-06
    634    653   2   0.50000    -0.1200000    0.0600000   2.494471e-04  1.671101e-07
    634    654   2   0.50000    -0.1200000    0.0600000   2.494471e-04  1.671101e-07
    651    637   2   0.50000     0.0600000   -0.1200000   2.494471e-04  1.671101e-07
    651    653   2   0.50000     0.0600000    0.0600000   6.128906e-05  1.496315e-08
    651    654   2   0.50000     0.0600000    0.0600000   6.128906e-05  1.496315e-08
    652    637   2   0.50000     0.0600000   -0.1200000   2.494471e-04  1.671101e-07
    652    653   2   0.50000     0.0600000    0.0600000   6.128906e-05  1.496315e-08
    652    654   2   0.50000     0.0600000    0.0600000   6.128906e-05  1.496315e-08
    635    638   2   0.50000    -0.1200000   -0.1200000   1.015252e-03  1.866303e-06
    635    655   2   0.50000    -0.1200000    0.0600000   2.494471e-04  1.671101e-07
    635    656   2   0.50000    -0.1200000    0.0600000   2.494471e-04  1.671101e-07
    653    638   2   0.50000     0.0600000   -0.1200000   2.494471e-04  1.671101e-07
    653    655   2   0.50000     0.0600000    0.0600000   6.128906e-05  1.496315e-08
    653    656   2   0.50000     0.0600000    0.0600000   6.128906e-05  1.496315e-08
    654    638   2   0.50000     0.0600000   -0.1200000   2.494471e-04  1.671101e-07
    654    655   2   0.50000     0.0600000    0.0600000   6.128906e-05  1.496315e-08
    654    656   2   0.50000     0.0600000    0.0600000   6.128906e-05  1.496315e-08
    636    639   2   0.50000    -0.1200000   -0.1200000   1.015252e-03  1.866303e-06
    636    657   2   0.50000    -0.1200000    0.0600000   2.494471e-04  1.671101e-07
    636    658   2   0.50000    -0.1200000    0.0600000   2.494471e-04  1.671101e-07
    655    639   2   0.50000     0.0600000   -0.1200000   2.494471e-04  1.671101e-07
    655    657   2   0.50000     0.0600000    0.0600000   6.128906e-05  1.496315e-08
    655    658   2   0.50000     0.0600000    0.0600000   6.128906e-05  1.496315e-08
    656    639   2   0.50000     0.0600000   -0.1200000   2.494471e-04  1.671101e-07
    656    657   2   0.50000     0.0600000    0.0600000   6.128906e-05  1.496315e-08
    656    658   2   0.50000     0.0600000    0.0600000   6.128906e-05  1.496315e-08
    637    640   2   0.50000    -0.1200000   -0.1200000   1.015252e-03  1.866303e-06
    637    659   2   0.50000    -0.1200000    0.0600000   2.494471e-04  1.671101e-07
    637    660   2   0.50000    -0.1200000    0.0600000   2.494471e-04  1.671101e-07
    657    640   2   0.50000     0.0600000   -0.1200000   2.494471e-04  1.671101e-07
    657    659   2   0.50000     0.0600000    0.0600000   6.128906e-05  1.496315e-08
    657    660   2   0.50000     0.0600000    0.0600000   6.128906e-05  1.496315e-08
    658    640   2   0.50000     0.0600000   -0.1200000   2.494471e-04  1.671101e-07
    658    659   2   0.50000     0.0600000    0.0600000   6.128906e-05  1.496315e-08
    658    660   2   0.50000     0.0600000    0.0600000   6.128906e-05  1.496315e-08
    638    641   2   0.50000    -0.1200000   -0.1200000   1.015252e-03  1.866303e-06
    638    661   2   0.50000    -0.1200000    0.0600000   2.494471e-04  1.671101e-07
    638    662   2   0.50000    -0.1200000    0.0600000   2.494471e-04  1.671101e-07
    659    641   2   0.50000     0.0600000   -0.1200000   2.494471e-04  1.671101e-07
    659    661   2   0.50000     0.0600000    0.0600000   6.128906e-05  1.496315e-08
    659    662   2   0.50000     0.0600000    0.0600000   6.128906e-05  1.496315e-08
    660    641   2   0.50000     0.0600000   -0.1200000   2.494471e-04  1.671101e-07
    660    661   2   0.50000     0.0600000    0.0600000   6.128906e-05  1.496315e-08
    660    662   2   0.50000     0.0600000    0.0600000   6.128906e-05  1.496315e-08
    639    642   2   0.50000    -0.1200000   -0.1200000   1.015252e-03  1.866303e-06
    639    663   2   0.50000    -0.1200000    0.0600000   2.494471e-04  1.671101e-07
    639    664   2   0.50000    -0.1200000    0.0600000   2.494471e-04  1.671101e-07
    661    642   2   0.50000     0.0600000   -0.1200000   2.494471e-04  1.671101e-07
    661    663   2   0.50000     0.0600000    0.0600000   6.128906e-05  1.496315e-08
    661    664   2   0.50000     0.0600000    0.0600000   6.128906e-05  1.496315e-08
    662    642   2   0.50000     0.0600000   -0.1200000   2.494471e-04  1.671101e-07
    662    663   2   0.50000     0.0600000    0.0600000   6.128906e-05  1.496315e-08
    662    664   2   0.50000     0.0600000    0.0600000   6.128906e-05  1.496315e-08
    640    643   2   0.50000    -0.1200000   -0.1200000   1.015252e-03  1.866303e-06
    640    665   2   0.50000    -0.1200000    0.0600000   2.494471e-04  1.671101e-07
    640    666   2   0.50000    -0.1200000    0.0600000   2.494471e-04  1.671101e-07
    663    643   2   0.50000     0.0600000   -0.1200000   2.494471e-04  1.671101e-07
    663    665   2   0.50000     0.0600000    0.0600000   6.128906e-05  1.496315e-08
    663    666   2   0.50000     0.0600000    0.0600000   6.128906e-05  1.496315e-08
    664    643   2   0.50000     0.0600000   -0.1200000   2.494471e-04  1.671101e-07
    664    665   2   0.50000     0.0600000    0.0600000   6.128906e-05  1.496315e-08
    664    666   2   0.50000     0.0600000    0.0600000   6.128906e-05  1.496315e-08
    641    644   2   0.50000    -0.1200000   -0.1200000   1.015252e-03  1.866303e-06
    641    667   2   0.50000    -0.1200000    0.0600000   2.494471e-04  1.671101e-07
    641    668   2   0.50000    -0.1200000    0.0600000   2.494471e-04  1.671101e-07
    665    644   2   0.50000     0.0600000   -0.1200000   2.494471e-04  1.671101e-07
    665    667   2   0.50000     0.0600000    0.0600000   6.128906e-05  1.496315e-08
    665    668   2   0.50000     0.0600000    0.0600000   6.128906e-05  1.496315e-08
    666    644   2   0.50000     0.0600000   -0.1200000   2.494471e-04  1.671101e-07
    666    667   2   0.50000     0.0600000    0.0600000   6.128906e-05  1.496315e-08
    666    668   2   0.50000     0.0600000    0.0600000   6.128906e-05  1.496315e-08
    642    645   2   0.50000    -0.1200000   -0.1800000   1.015252e-03  1.866303e-06
    642    669   2   0.50000    -0.1200000    0.0600000   2.494471e-04  1.671101e-07
    642    670   2   0.50000    -0.1200000    0.0600000   2.494471e-04  1.671101e-07
    667    645   2   0.50000     0.0600000   -0.1800000   2.494471e-04  1.671101e-07
    667    669   2   0.50000     0.0600000    0.0600000   6.128906e-05  1.496315e-08
    667    670   2   0.50000     0.0600000    0.0600000   6.128906e-05  1.496315e-08
    668    645   2   0.50000     0.0600000   -0.1800000   2.494471e-04  1.671101e-07
    668    669   2   0.50000     0.0600000    0.0600000   6.128906e-05  1.496315e-08
    668    670   2   0.50000     0.0600000    0.0600000   6.128906e-05  1.496315e-08
    643    671   2   0.50000    -0.1200000    0.0600000   2.494471e-04  1.671101e-07
    643    672   2   0.50000    -0.1200000    0.0600000   2.494471e-04  1.671101e-07
    643    673   2   0.50000    -0.1200000    0.0600000   2.494471e-04  1.671101e-07
    669    671   2   0.50000     0.0600000    0.0600000   6.128906e-05  1.496315e-08
    669    672   2   0.50000     0.0600000    0.0600000   6.128906e-05  1.496315e-08
    669    673   2   0.50000     0.0600000    0.0600000   6.128906e-05  1.496315e-08
    670    671   2   0.50000     0.0600000    0.0600000   6.128906e-05  1.496315e-08
    670    672   2   0.50000     0.0600000    0.0600000   6.128906e-05  1.496315e-08
    670    673   2   0.50000     0.0600000    0.0600000   6.128906e-05  1.496315e-08
    633    676   2   0.50000    -0.0600000   -0.1200000   1.015252e-03  1.866303e-06
    633    690   2   0.50000    -0.0600000    0.0600000   2.494471e-04  1.671101e-07
    633    716   2   0.50000    -0.0600000   -0.1200000   1.015252e-03  1.866303e-06
    688    676   2   0.50000     0.0600000   -0.1200000   2.494471e-04  1.671101e-07
    688    690   2   0.50000     0.0600000    0.0600000   6.128906e-05  1.496315e-08
    688    716   2   0.50000     0.0600000   -0.1200000   2.494471e-04  1.671101e-07
    689    676   2   0.50000     0.0600000   -0.1200000   2.494471e-04  1.671101e-07
    689    690   2   0.50000     0.0600000    0.0600000   6.128906e-05  1.496315e-08
    689    716   2   0.50000     0.0600000   -0.1200000   2.494471e-04  1.671101e-07
    674    677   2   0.50000    -0.1200000   -0.1200000   1.015252e-03  1.866303e-06
    674    691   2   0.50000    -0.1200000    0.0600000   2.494471e-04  1.671101e-07
    674    692   2   0.50000    -0.1200000    0.0600000   2.494471e-04  1.671101e-07
    690    677   2   0.50000     0.0600000   -0.1200000   2.494471e-04  1.671101e-07
    690    691   2   0.50000     0.0600000    0.0600000   6.128906e-05  1.496315e-08
    690    692   2   0.50000     0.0600000    0.0600000   6.128906e-05  1.496315e-08
    716    677   2   0.50000    -0.1200000   -0.1200000   1.015252e-03  1.866303e-06
    716    691   2   0.50000    -0.1200000    0.0600000   2.494471e-04  1.671101e-07
    716    692   2   0.50000    -0.1200000    0.0600000   2.494471e-04  1.671101e-07
    674    717   2   0.50000    -0.1200000   -0.0600000   1.015252e-03  1.866303e-06
    674    730   2   0.50000    -0.1200000    0.0600000   2.494471e-04  1.671101e-07
    674    731   2   0.50000    -0.1200000    0.0600000   2.494471e-04  1.671101e-07
    676    717   2   0.50000    -0.1200000   -0.0600000   1.015252e-03  1.866303e-06
    676    730   2   0.50000    -0.1200000    0.0600000   2.494471e-04  1.671101e-07
    676    731   2   0.50000    -0.1200000    0.0600000   2.494471e-04  1.671101e-07
    690    717   2   0.50000     0.0600000   -0.0600000   2.494471e-04  1.671101e-07
    690    730   2   0.50000     0.0600000    0.0600000   6.128906e-05  1.496315e-08
    690    731   2   0.50000     0.0600000    0.0600000   6.128906e-05  1.496315e-08
    675    678   2   0.50000    -0.0600000   -0.1200000   1.015252e-03  1.866303e-06
    675    693   2   0.50000    -0.0600000    0.0600000   2.494471e-04  1.671101e-07
    675    694   2   0.50000    -0.0600000    0.0600000   2.494471e-04  1.671101e-07
    691    678   2   0.50000     0.0600000   -0.1200000   2.494471e-04  1.671101e-07
    691    693   2   0.50000     0.0600000    0.0600000   6.128906e-05  1.496315e-08
    691    694   2   0.50000     0.0600000    0.0600000   6.128906e-05  1.496315e-08
    692    678   2   0.50000     0.0600000   -0.1200000   2.494471e-04  1.671101e-07
    692    693   2   0.50000     0.0600000    0.0600000   6.128906e-05  1.496315e-08
    692    694   2   0.50000     0.0600000    0.0600000   6.128906e-05  1.496315e-08
    676    679   2   0.50000    -0.1200000   -0.1200000   1.015252e-03  1.866303e-06
    676    695   2   0.50000    -0.1200000    0.0600000   2.494471e-04  1.671101e-07
    676    696   2   0.50000    -0.1200000    0.0600000   2.494471e-04  1.671101e-07
    693    679   2   0.50000     0.0600000   -0.1200000   2.494471e-04  1.671101e-07
    693    695   2   0.50000     0.0600000    0.0600000   6.128906e-05  1.496315e-08
    693    696   2   0.50000     0.0600000    0.0600000   6.128906e-05  1.496315e-08
    694    679   2   0.50000     0.0600000   -0.1200000   2.494471e-04  1.671101e-07
    694    695   2   0.50000     0.0600000    0.0600000   6.128906e-05  1.496315e-08
    694    696   2   0.50000     0.0600000    0.0600000   6.128906e-05  1.496315e-08
    677    680   2   0.50000    -0.1200000   -0.1200000   1.015252e-03  1.866303e-06
    677    697   2   0.50000    -0.1200000    0.0600000   2.494471e-04  1.671101e-07
    677    698   2   0.50000    -0.1200000    0.0600000   2.494471e-04  1.671101e-07
    695    680   2   0.50000     0.0600000   -0.1200000   2.494471e-04  1.671101e-07
    695    697   2   0.50000     0.0600000    0.0600000   6.128906e-05  1.496315e-08
    695    698   2   0.50000     0.0600000    0.0600000   6.128906e-05  1.496315e-08
    696    680   2   0.50000     0.0600000   -0.1200000   2.494471e-04  1.671101e-07
    696    697   2   0.50000     0.0600000    0.0600000   6.128906e-05  1.496315e-08
    696    698   2   0.50000     0.0600000    0.0600000   6.128906e-05  1.496315e-08
    678    681   2   0.50000    -0.1200000   -0.1200000   1.015252e-03  1.866303e-06
    678    699   2   0.50000    -0.1200000    0.0600000   2.494471e-04  1.671101e-07
    678    700   2   0.50000    -0.1200000    0.0600000   2.494471e-04  1.671101e-07
    697    681   2   0.50000     0.0600000   -0.1200000   2.494471e-04  1.671101e-07
    697    699   2   0.50000     0.0600000    0.0600000   6.128906e-05  1.496315e-08
    697    700   2   0.50000     0.0600000    0.0600000   6.128906e-05  1.496315e-08
    698    681   2   0.50000     0.0600000   -0.1200000   2.494471e-04  1.671101e-07
    698    699   2   0.50000     0.0600000    0.0600000   6.128906e-05  1.496315e-08
    698    700   2   0.50000     0.0600000    0.0600000   6.128906e-05  1.496315e-08
    679    682   2   0.50000    -0.1200000   -0.1200000   1.015252e-03  1.866303e-06
    679    701   2   0.50000    -0.1200000    0.0600000   2.494471e-04  1.671101e-07
    679    702   2   0.50000    -0.1200000    0.0600000   2.494471e-04  1.671101e-07
    699    682   2   0.50000     0.0600000   -0.1200000   2.494471e-04  1.671101e-07
    699    701   2   0.50000     0.0600000    0.0600000   6.128906e-05  1.496315e-08
    699    702   2   0.50000     0.0600000    0.0600000   6.128906e-05  1.496315e-08
    700    682   2   0.50000     0.0600000   -0.1200000   2.494471e-04  1.671101e-07
    700    701   2   0.50000     0.0600000    0.0600000   6.128906e-05  1.496315e-08
    700    702   2   0.50000     0.0600000    0.0600000   6.128906e-05  1.496315e-08
    680    683   2   0.50000    -0.1200000   -0.1200000   1.015252e-03  1.866303e-06
    680    703   2   0.50000    -0.1200000    0.0600000   2.494471e-04  1.671101e-07
    680    704   2   0.50000    -0.1200000    0.0600000   2.494471e-04  1.671101e-07
    701    683   2   0.50000     0.0600000   -0.1200000   2.494471e-04  1.671101e-07
    701    703   2   0.50000     0.0600000    0.0600000   6.128906e-05  1.496315e-08
    701    704   2   0.50000     0.0600000    0.0600000   6.128906e-05  1.496315e-08
    702    683   2   0.50000     0.0600000   -0.1200000   2.494471e-04  1.671101e-07
    702    703   2   0.50000     0.0600000    0.0600000   6.128906e-05  1.496315e-08
    702    704   2   0.50000     0.0600000    0.0600000   6.128906e-05  1.496315e-08
    681    684   2   0.50000    -0.1200000   -0.1200000   1.015252e-03  1.866303e-06
    681    705   2   0.50000    -0.1200000    0.0600000   2.494471e-04  1.671101e-07
    681    706   2   0.50000    -0.1200000    0.0600000   2.494471e-04  1.671101e-07
    703    684   2   0.50000     0.0600000   -0.1200000   2.494471e-04  1.671101e-07
    703    705   2   0.50000     0.0600000    0.0600000   6.128906e-05  1.496315e-08
    703    706   2   0.50000     0.0600000    0.0600000   6.128906e-05  1.496315e-08
    704    684   2   0.50000     0.0600000   -0.1200000   2.494471e-04  1.671101e-07
    704    705   2   0.50000     0.0600000    0.0600000   6.128906e-05  1.496315e-08
    704    706   2   0.50000     0.0600000    0.0600000   6.128906e-05  1.496315e-08
    682    685   2   0.50000    -0.1200000   -0.1200000   1.015252e-03  1.866303e-06
    682    707   2   0.50000    -0.1200000    0.0600000   2.494471e-04  1.671101e-07
    682    708   2   0.50000    -0.1200000    0.0600000   2.494471e-04  1.671101e-07
    705    685   2   0.50000     0.0600000   -0.1200000   2.494471e-04  1.671101e-07
    705    707   2   0.50000     0.0600000    0.0600000   6.128906e-05  1.496315e-08
    705    708   2   0.50000     0.0600000    0.0600000   6.128906e-05  1.496315e-08
    706    685   2   0.50000     0.0600000   -0.1200000   2.494471e-04  1.671101e-07
    706    707   2   0.50000     0.0600000    0.0600000   6.128906e-05  1.496315e-08
    706    708   2   0.50000     0.0600000    0.0600000   6.128906e-05  1.496315e-08
    683    686   2   0.50000    -0.1200000   -0.1200000   1.015252e-03  1.866303e-06
    683    709   2   0.50000    -0.1200000    0.0600000   2.494471e-04  1.671101e-07
    683    710   2   0.50000    -0.1200000    0.0600000   2.494471e-04  1.671101e-07
    707    686   2   0.50000     0.0600000   -0.1200000   2.494471e-04  1.671101e-07
    707    709   2   0.50000     0.0600000    0.0600000   6.128906e-05  1.496315e-08
    707    710   2   0.50000     0.0600000    0.0600000   6.128906e-05  1.496315e-08
    708    686   2   0.50000     0.0600000   -0.1200000   2.494471e-04  1.671101e-07
    708    709   2   0.50000     0.0600000    0.0600000   6.128906e-05  1.496315e-08
    708    710   2   0.50000     0.0600000    0.0600000   6.128906e-05  1.496315e-08
    684    687   2   0.50000    -0.1200000   -0.1800000   1.015252e-03  1.866303e-06
    684    711   2   0.50000    -0.1200000    0.0600000   2.494471e-04  1.671101e-07
    684    712   2   0.50000    -0.1200000    0.0600000   2.494471e-04  1.671101e-07
    709    687   2   0.50000     0.0600000   -0.1800000   2.494471e-04  1.671101e-07
    709    711   2   0.50000     0.0600000    0.0600000   6.128906e-05  1.496315e-08
    709    712   2   0.50000     0.0600000    0.0600000   6.128906e-05  1.496315e-08
    710    687   2   0.50000     0.0600000   -0.1800000   2.494471e-04  1.671101e-07
    710    711   2   0.50000     0.0600000    0.0600000   6.128906e-05  1.496315e-08
    710    712   2   0.50000     0.0600000    0.0600000   6.128906e-05  1.496315e-08
    685    713   2   0.50000    -0.1200000    0.0600000   2.494471e-04  1.671101e-07
    685    714   2   0.50000    -0.1200000    0.0600000   2.494471e-04  1.671101e-07
    685    715   2   0.50000    -0.1200000    0.0600000   2.494471e-04  1.671101e-07
    711    713   2   0.50000     0.0600000    0.0600000   6.128906e-05  1.496315e-08
    711    714   2   0.50000     0.0600000    0.0600000   6.128906e-05  1.496315e-08
    711    715   2   0.50000     0.0600000    0.0600000   6.128906e-05  1.496315e-08
    712    713   2   0.50000     0.0600000    0.0600000   6.128906e-05  1.496315e-08
    712    714   2   0.50000     0.0600000    0.0600000   6.128906e-05  1.496315e-08
    712    715   2   0.50000     0.0600000    0.0600000   6.128906e-05  1.496315e-08
    675    718   2   0.50000    -0.0600000   -0.1200000   1.015252e-03  1.866303e-06
    675    732   2   0.50000    -0.0600000    0.0600000   2.494471e-04  1.671101e-07
    675    758   2   0.50000    -0.0600000   -0.1200000   1.015252e-03  1.866303e-06
    730    718   2   0.50000     0.0600000   -0.1200000   2.494471e-04  1.671101e-07
    730    732   2   0.50000     0.0600000    0.0600000   6.128906e-05  1.496315e-08
    730    758   2   0.50000     0.0600000   -0.1200000   2.494471e-04  1.671101e-07
    731    718   2   0.50000     0.0600000   -0.1200000   2.494471e-04  1.671101e-07
    731    732   2   0.50000     0.0600000    0.0600000   6.128906e-05  1.496315e-08
    731    758   2   0.50000     0.0600000   -0.1200000   2.494471e-04  1.671101e-07
    716    719   2   0.50000    -0.1200000   -0.1200000   1.015252e-03  1.866303e-06
    716    733   2   0.50000    -0.1200000    0.0600000   2.494471e-04  1.671101e-07
    716    734   2   0.50000    -0.1200000    0.0600000   2.494471e-04  1.671101e-07
    732    719   2   0.50000     0.0600000   -0.1200000   2.494471e-04  1.671101e-07
    732    733   2   0.50000     0.0600000    0.0600000   6.128906e-05  1.496315e-08
    732    734   2   0.50000     0.0600000    0.0600000   6.128906e-05  1.496315e-08
    758    719   2   0.50000    -0.1200000   -0.1200000   1.015252e-03  1.866303e-06
    758    733   2   0.50000    -0.1200000    0.0600000   2.494471e-04  1.671101e-07
    758    734   2   0.50000    -0.1200000    0.0600000   2.494471e-04  1.671101e-07
    716    759   2   0.50000    -0.1200000   -0.0600000   1.015252e-03  1.866303e-06
    716    772   2   0.50000    -0.1200000    0.0600000   2.494471e-04  1.671101e-07
    716    773   2   0.50000    -0.1200000    0.0600000   2.494471e-04  1.671101e-07
    718    759   2   0.50000    -0.1200000   -0.0600000   1.015252e-03  1.866303e-06
    718    772   2   0.50000    -0.1200000    0.0600000   2.494471e-04  1.671101e-07
    718    773   2   0.50000    -0.1200000    0.0600000   2.494471e-04  1.671101e-07
    732    759   2   0.50000     0.0600000   -0.0600000   2.494471e-04  1.671101e-07
    732    772   2   0.50000     0.0600000    0.0600000   6.128906e-05  1.496315e-08
    732    773   2   0.50000     0.0600000    0.0600000   6.128906e-05  1.496315e-08
    717    720   2   0.50000    -0.0600000   -0.1200000   1.015252e-03  1.866303e-06
    717    735   2   0.50000    -0.0600000    0.0600000   2.494471e-04  1.671101e-07
    717    736   2   0.50000    -0.0600000    0.0600000   2.494471e-04  1.671101e-07
    733    720   2   0.50000     0.0600000   -0.1200000   2.494471e-04  1.671101e-07
    733    735   2   0.50000     0.0600000    0.0600000   6.128906e-05  1.496315e-08
    733    736   2   0.50000     0.0600000    0.0600000   6.128906e-05  1.496315e-08
    734    720   2   0.50000     0.0600000   -0.1200000   2.494471e-04  1.671101e-07
    734    735   2   0.50000     0.0600000    0.0600000   6.128906e-05  1.496315e-08
    734    736   2   0.50000     0.0600000    0.0600000   6.128906e-05  1.496315e-08
    718    721   2   0.50000    -0.1200000   -0.1200000   1.015252e-03  1.866303e-06
    718    737   2   0.50000    -0.1200000    0.0600000   2.494471e-04  1.671101e-07
    718    738   2   0.50000    -0.1200000    0.0600000   2.494471e-04  1.671101e-07
    735    721   2   0.50000     0.0600000   -0.1200000   2.494471e-04  1.671101e-07
    735    737   2   0.50000     0.0600000    0.0600000   6.128906e-05  1.496315e-08
    735    738   2   0.50000     0.0600000    0.0600000   6.128906e-05  1.496315e-08
    736    721   2   0.50000     0.0600000   -0.1200000   2.494471e-04  1.671101e-07
    736    737   2   0.50000     0.0600000    0.0600000   6.128906e-05  1.496315e-08
    736    738   2   0.50000     0.0600000    0.0600000   6.128906e-05  1.496315e-08
    719    722   2   0.50000    -0.1200000   -0.1200000   1.015252e-03  1.866303e-06
    719    739   2   0.50000    -0.1200000    0.0600000   2.494471e-04  1.671101e-07
    719    740   2   0.50000    -0.1200000    0.0600000   2.494471e-04  1.671101e-07
    737    722   2   0.50000     0.0600000   -0.1200000   2.494471e-04  1.671101e-07
    737    739   2   0.50000     0.0600000    0.0600000   6.128906e-05  1.496315e-08
    737    740   2   0.50000     0.0600000    0.0600000   6.128906e-05  1.496315e-08
    738    722   2   0.50000     0.0600000   -0.1200000   2.494471e-04  1.671101e-07
    738    739   2   0.50000     0.0600000    0.0600000   6.128906e-05  1.496315e-08
    738    740   2   0.50000     0.0600000    0.0600000   6.128906e-05  1.496315e-08
    720    723   2   0.50000    -0.1200000   -0.1200000   1.015252e-03  1.866303e-06
    720    741   2   0.50000    -0.1200000    0.0600000   2.494471e-04  1.671101e-07
    720    742   2   0.50000    -0.1200000    0.0600000   2.494471e-04  1.671101e-07
    739    723   2   0.50000     0.0600000   -0.1200000   2.494471e-04  1.671101e-07
    739    741   2   0.50000     0.0600000    0.0600000   6.128906e-05  1.496315e-08
    739    742   2   0.50000     0.0600000    0.0600000   6.128906e-05  1.496315e-08
    740    723   2   0.50000     0.0600000   -0.1200000   2.494471e-04  1.671101e-07
    740    741   2   0.50000     0.0600000    0.0600000   6.128906e-05  1.496315e-08
    740    742   2   0.50000     0.0600000    0.0600000   6.128906e-05  1.496315e-08
    721    724   2   0.50000    -0.1200000   -0.1200000   1.015252e-03  1.866303e-06
    721    743   2   0.50000    -0.1200000    0.0600000   2.494471e-04  1.671101e-07
    721    744   2   0.50000    -0.1200000    0.0600000   2.494471e-04  1.671101e-07
    741    724   2   0.50000     0.0600000   -0.1200000   2.494471e-04  1.671101e-07
    741    743   2   0.50000     0.0600000    0.0600000   6.128906e-05  1.496315e-08
    741    744   2   0.50000     0.0600000    0.0600000   6.128906e-05  1.496315e-08
    742    724   2   0.50000     0.0600000   -0.1200000   2.494471e-04  1.671101e-07
    742    743   2   0.50000     0.0600000    0.0600000   6.128906e-05  1.496315e-08
    742    744   2   0.50000     0.0600000    0.0600000   6.128906e-05  1.496315e-08
    722    725   2   0.50000    -0.1200000   -0.1200000   1.015252e-03  1.866303e-06
    722    745   2   0.50000    -0.1200000    0.0600000   2.494471e-04  1.671101e-07
    722    746   2   0.50000    -0.1200000    0.0600000   2.494471e-04  1.671101e-07
    743    725   2   0.50000     0.0600000   -0.1200000   2.494471e-04  1.671101e-07
    743    745   2   0.50000     0.0600000    0.0600000   6.128906e-05  1.496315e-08
    743    746   2   0.50000     0.0600000    0.0600000   6.128906e-05  1.496315e-08
    744    725   2   0.50000     0.0600000   -0.1200000   2.494471e-04  1.671101e-07
    744    745   2   0.50000     0.0600000    0.0600000   6.128906e-05  1.496315e-08
    744    746   2   0.50000     0.0600000    0.0600000   6.128906e-05  1.496315e-08
    723    726   2   0.50000    -0.1200000   -0.1200000   1.015252e-03  1.866303e-06
    723    747   2   0.50000    -0.1200000    0.0600000   2.494471e-04  1.671101e-07
    723    748   2   0.50000    -0.1200000    0.0600000   2.494471e-04  1.671101e-07
    745    726   2   0.50000     0.0600000   -0.1200000   2.494471e-04  1.671101e-07
    745    747   2   0.50000     0.0600000    0.0600000   6.128906e-05  1.496315e-08
    745    748   2   0.50000     0.0600000    0.0600000   6.128906e-05  1.496315e-08
    746    726   2   0.50000     0.0600000   -0.1200000   2.494471e-04  1.671101e-07
    746    747   2   0.50000     0.0600000    0.0600000   6.128906e-05  1.496315e-08
    746    748   2   0.50000     0.0600000    0.0600000   6.128906e-05  1.496315e-08
    724    727   2   0.50000    -0.1200000   -0.1200000   1.015252e-03  1.866303e-06
    724    749   2   0.50000    -0.1200000    0.0600000   2.494471e-04  1.671101e-07
    724    750   2   0.50000    -0.1200000    0.0600000   2.494471e-04  1.671101e-07
    747    727   2   0.50000     0.0600000   -0.1200000   2.494471e-04  1.671101e-07
    747    749   2   0.50000     0.0600000    0.0600000   6.128906e-05  1.496315e-08
    747    750   2   0.50000     0.0600000    0.0600000   6.128906e-05  1.496315e-08
    748    727   2   0.50000     0.0600000   -0.1200000   2.494471e-04  1.671101e-07
    748    749   2   0.50000     0.0600000    0.0600000   6.128906e-05  1.496315e-08
    748    750   2   0.50000     0.0600000    0.0600000   6.128906e-05  1.496315e-08
    725    728   2   0.50000    -0.1200000   -0.1200000   1.015252e-03  1.866303e-06
    725    751   2   0.50000    -0.1200000    0.0600000   2.494471e-04  1.671101e-07
    725    752   2   0.50000    -0.1200000    0.0600000   2.494471e-04  1.671101e-07
    749    728   2   0.50000     0.0600000   -0.1200000   2.494471e-04  1.671101e-07
    749    751   2   0.50000     0.0600000    0.0600000   6.128906e-05  1.496315e-08
    749    752   2   0.50000     0.0600000    0.0600000   6.128906e-05  1.496315e-08
    750    728   2   0.50000     0.0600000   -0.1200000   2.494471e-04  1.671101e-07
    750    751   2   0.50000     0.0600000    0.0600000   6.128906e-05  1.496315e-08
    750    752   2   0.50000     0.0600000    0.0600000   6.128906e-05  1.496315e-08
    726    729   2   0.50000    -0.1200000   -0.1800000   1.015252e-03  1.866303e-06
    726    753   2   0.50000    -0.1200000    0.0600000   2.494471e-04  1.671101e-07
    726    754   2   0.50000    -0.1200000    0.0600000   2.494471e-04  1.671101e-07
    751    729   2   0.50000     0.0600000   -0.1800000   2.494471e-04  1.671101e-07
    751    753   2   0.50000     0.0600000    0.0600000   6.128906e-05  1.496315e-08
    751    754   2   0.50000     0.0600000    0.0600000   6.128906e-05  1.496315e-08
    752    729   2   0.50000     0.0600000   -0.1800000   2.494471e-04  1.671101e-07
    752    753   2   0.50000     0.0600000    0.0600000   6.128906e-05  1.496315e-08
    752    754   2   0.50000     0.0600000    0.0600000   6.128906e-05  1.496315e-08
    727    755   2   0.50000    -0.1200000    0.0600000   2.494471e-04  1.671101e-07
    727    756   2   0.50000    -0.1200000    0.0600000   2.494471e-04  1.671101e-07
    727    757   2   0.50000    -0.1200000    0.0600000   2.494471e-04  1.671101e-07
    753    755   2   0.50000     0.0600000    0.0600000   6.128906e-05  1.496315e-08
    753    756   2   0.50000     0.0600000    0.0600000   6.128906e-05  1.496315e-08
    753    757   2   0.50000     0.0600000    0.0600000   6.128906e-05  1.496315e-08
    754    755   2   0.50000     0.0600000    0.0600000   6.128906e-05  1.496315e-08
    754    756   2   0.50000     0.0600000    0.0600000   6.128906e-05  1.496315e-08
    754    757   2   0.50000     0.0600000    0.0600000   6.128906e-05  1.496315e-08
    717    760   2   0.50000    -0.0600000   -0.1200000   1.015252e-03  1.866303e-06
    717    774   2   0.50000    -0.0600000    0.0600000   2.494471e-04  1.671101e-07
    717    800   2   0.50000    -0.0600000   -0.1200000   1.015252e-03  1.866303e-06
    772    760   2   0.50000     0.0600000   -0.1200000   2.494471e-04  1.671101e-07
    772    774   2   0.50000     0.0600000    0.0600000   6.128906e-05  1.496315e-08
    772    800   2   0.50000     0.0600000   -0.1200000   2.494471e-04  1.671101e-07
    773    760   2   0.50000     0.0600000   -0.1200000   2.494471e-04  1.671101e-07
    773    774   2   0.50000     0.0600000    0.0600000   6.128906e-05  1.496315e-08
    773    800   2   0.50000     0.0600000   -0.1200000   2.494471e-04  1.671101e-07
    758    761   2   0.50000    -0.1200000   -0.1200000   1.015252e-03  1.866303e-06
    758    775   2   0.50000    -0.1200000    0.0600000   2.494471e-04  1.671101e-07
    758    776   2   0.50000    -0.1200000    0.0600000   2.494471e-04  1.671101e-07
    774    761   2   0.50000     0.0600000   -0.1200000   2.494471e-04  1.671101e-07
    774    775   2   0.50000     0.0600000    0.0600000   6.128906e-05  1.496315e-08
    774    776   2   0.50000     0.0600000    0.0600000   6.128906e-05  1.496315e-08
    800    761   2   0.50000    -0.1200000   -0.1200000   1.015252e-03  1.866303e-06
    800    775   2   0.50000    -0.1200000    0.0600000   2.494471e-04  1.671101e-07
    800    776   2   0.50000    -0.1200000    0.0600000   2.494471e-04  1.671101e-07
    758    801   2   0.50000    -0.1200000   -0.1200000   1.015252e-03  1.866303e-06
    758    814   2   0.50000    -0.1200000    0.0600000   2.494471e-04  1.671101e-07
    758    815   2   0.50000    -0.1200000    0.0600000   2.494471e-04  1.671101e-07
    760    801   2   0.50000    -0.1200000   -0.1200000   1.015252e-03  1.866303e-06
    760    814   2   0.50000    -0.1200000    0.0600000   2.494471e-04  1.671101e-07
    760    815   2   0.50000    -0.1200000    0.0600000   2.494471e-04  1.671101e-07
    774    801   2   0.50000     0.0600000   -0.1200000   2.494471e-04  1.671101e-07
    774    814   2   0.50000     0.0600000    0.0600000   6.128906e-05  1.496315e-08
    774    815   2   0.50000     0.0600000    0.0600000   6.128906e-05  1.496315e-08
    759    762   2   0.50000    -0.0600000   -0.1200000   1.015252e-03  1.866303e-06
    759    777   2   0.50000    -0.0600000    0.0600000   2.494471e-04  1.671101e-07
    759    778   2   0.50000    -0.0600000    0.0600000   2.494471e-04  1.671101e-07
    775    762   2   0.50000     0.0600000   -0.1200000   2.494471e-04  1.671101e-07
    775    777   2   0.50000     0.0600000    0.0600000   6.128906e-05  1.496315e-08
    775    778   2   0.50000     0.0600000    0.0600000   6.128906e-05  1.496315e-08
    776    762   2   0.50000     0.0600000   -0.1200000   2.494471e-04  1.671101e-07
    776    777   2   0.50000     0.0600000    0.0600000   6.128906e-05  1.496315e-08
    776    778   2   0.50000     0.0600000    0.0600000   6.128906e-05  1.496315e-08
    760    763   2   0.50000    -0.1200000   -0.1200000   1.015252e-03  1.866303e-06
    760    779   2   0.50000    -0.1200000    0.0600000   2.494471e-04  1.671101e-07
    760    780   2   0.50000    -0.1200000    0.0600000   2.494471e-04  1.671101e-07
    777    763   2   0.50000     0.0600000   -0.1200000   2.494471e-04  1.671101e-07
    777    779   2   0.50000     0.0600000    0.0600000   6.128906e-05  1.496315e-08
    777    780   2   0.50000     0.0600000    0.0600000   6.128906e-05  1.496315e-08
    778    763   2   0.50000     0.0600000   -0.1200000   2.494471e-04  1.671101e-07
    778    779   2   0.50000     0.0600000    0.0600000   6.128906e-05  1.496315e-08
    778    780   2   0.50000     0.0600000    0.0600000   6.128906e-05  1.496315e-08
    761    764   2   0.50000    -0.1200000   -0.1200000   1.015252e-03  1.866303e-06
    761    781   2   0.50000    -0.1200000    0.0600000   2.494471e-04  1.671101e-07
    761    782   2   0.50000    -0.1200000    0.0600000   2.494471e-04  1.671101e-07
    779    764   2   0.50000     0.0600000   -0.1200000   2.494471e-04  1.671101e-07
    779    781   2   0.50000     0.0600000    0.0600000   6.128906e-05  1.496315e-08
    779    782   2   0.50000     0.0600000    0.0600000   6.128906e-05  1.496315e-08
    780    764   2   0.50000     0.0600000   -0.1200000   2.494471e-04  1.671101e-07
    780    781   2   0.50000     0.0600000    0.0600000   6.128906e-05  1.496315e-08
    780    782   2   0.50000     0.0600000    0.0600000   6.128906e-05  1.496315e-08
    762    765   2   0.50000    -0.1200000   -0.1200000   1.015252e-03  1.866303e-06
    762    783   2   0.50000    -0.1200000    0.0600000   2.494471e-04  1.671101e-07
    762    784   2   0.50000    -0.1200000    0.0600000   2.494471e-04  1.671101e-07
    781    765   2   0.50000     0.0600000   -0.1200000   2.494471e-04  1.671101e-07
    781    783   2   0.50000     0.0600000    0.0600000   6.128906e-05  1.496315e-08
    781    784   2   0.50000     0.0600000    0.0600000   6.128906e-05  1.496315e-08
    782    765   2   0.50000     0.0600000   -0.1200000   2.494471e-04  1.671101e-07
    782    783   2   0.50000     0.0600000    0.0600000   6.128906e-05  1.496315e-08
    782    784   2   0.50000     0.0600000    0.0600000   6.128906e-05  1.496315e-08
    763    766   2   0.50000    -0.1200000   -0.1200000   1.015252e-03  1.866303e-06
    763    785   2   0.50000    -0.1200000    0.0600000   2.494471e-04  1.671101e-07
    763    786   2   0.50000    -0.1200000    0.0600000   2.494471e-04  1.671101e-07
    783    766   2   0.50000     0.0600000   -0.1200000   2.494471e-04  1.671101e-07
    783    785   2   0.50000     0.0600000    0.0600000   6.128906e-05  1.496315e-08
    783    786   2   0.50000     0.0600000    0.0600000   6.128906e-05  1.496315e-08
    784    766   2   0.50000     0.0600000   -0.1200000   2.494471e-04  1.671101e-07
    784    785   2   0.50000     0.0600000    0.0600000   6.128906e-05  1.496315e-08
    784    786   2   0.50000     0.0600000    0.0600000   6.128906e-05  1.496315e-08
    764    767   2   0.50000    -0.1200000   -0.1200000   1.015252e-03  1.866303e-06
    764    787   2   0.50000    -0.1200000    0.0600000   2.494471e-04  1.671101e-07
    764    788   2   0.50000    -0.1200000    0.0600000   2.494471e-04  1.671101e-07
    785    767   2   0.50000     0.0600000   -0.1200000   2.494471e-04  1.671101e-07
    785    787   2   0.50000     0.0600000    0.0600000   6.128906e-05  1.496315e-08
    785    788   2   0.50000     0.0600000    0.0600000   6.128906e-05  1.496315e-08
    786    767   2   0.50000     0.0600000   -0.1200000   2.494471e-04  1.671101e-07
    786    787   2   0.50000     0.0600000    0.0600000   6.128906e-05  1.496315e-08
    786    788   2   0.50000     0.0600000    0.0600000   6.128906e-05  1.496315e-08
    765    768   2   0.50000    -0.1200000   -0.1200000   1.015252e-03  1.866303e-06
    765    789   2   0.50000    -0.1200000    0.0600000   2.494471e-04  1.671101e-07
    765    790   2   0.50000    -0.1200000    0.0600000   2.494471e-04  1.671101e-07
    787    768   2   0.50000     0.0600000   -0.1200000   2.494471e-04  1.671101e-07
    787    789   2   0.50000     0.0600000    0.0600000   6.128906e-05  1.496315e-08
    787    790   2   0.50000     0.0600000    0.0600000   6.128906e-05  1.496315e-08
    788    768   2   0.50000     0.0600000   -0.1200000   2.494471e-04  1.671101e-07
    788    789   2   0.50000     0.0600000    0.0600000   6.128906e-05  1.496315e-08
    788    790   2   0.50000     0.0600000    0.0600000   6.128906e-05  1.496315e-08
    766    769   2   0.50000    -0.1200000   -0.1200000   1.015252e-03  1.866303e-06
    766    791   2   0.50000    -0.1200000    0.0600000   2.494471e-04  1.671101e-07
    766    792   2   0.50000    -0.1200000    0.0600000   2.494471e-04  1.671101e-07
    789    769   2   0.50000     0.0600000   -0.1200000   2.494471e-04  1.671101e-07
    789    791   2   0.50000     0.0600000    0.0600000   6.128906e-05  1.496315e-08
    789    792   2   0.50000     0.0600000    0.0600000   6.128906e-05  1.496315e-08
    790    769   2   0.50000     0.0600000   -0.1200000   2.494471e-04  1.671101e-07
    790    791   2   0.50000     0.0600000    0.0600000   6.128906e-05  1.496315e-08
    790    792   2   0.50000     0.0600000    0.0600000   6.128906e-05  1.496315e-08
    767    770   2   0.50000    -0.1200000   -0.1200000   1.015252e-03  1.866303e-06
    767    793   2   0.50000    -0.1200000    0.0600000   2.494471e-04  1.671101e-07
    767    794   2   0.50000    -0.1200000    0.0600000   2.494471e-04  1.671101e-07
    791    770   2   0.50000     0.0600000   -0.1200000   2.494471e-04  1.671101e-07
    791    793   2   0.50000     0.0600000    0.0600000   6.128906e-05  1.496315e-08
    791    794   2   0.50000     0.0600000    0.0600000   6.128906e-05  1.496315e-08
    792    770   2   0.50000     0.0600000   -0.1200000   2.494471e-04  1.671101e-07
    792    793   2   0.50000     0.0600000    0.0600000   6.128906e-05  1.496315e-08
    792    794   2   0.50000     0.0600000    0.0600000   6.128906e-05  1.496315e-08
    768    771   2   0.50000    -0.1200000   -0.1800000   1.015252e-03  1.866303e-06
    768    795   2   0.50000    -0.1200000    0.0600000   2.494471e-04  1.671101e-07
    768    796   2   0.50000    -0.1200000    0.0600000   2.494471e-04  1.671101e-07
    793    771   2   0.50000     0.0600000   -0.1800000   2.494471e-04  1.671101e-07
    793    795   2   0.50000     0.0600000    0.0600000   6.128906e-05  1.496315e-08
    793    796   2   0.50000     0.0600000    0.0600000   6.128906e-05  1.496315e-08
    794    771   2   0.50000     0.0600000   -0.1800000   2.494471e-04  1.671101e-07
    794    795   2   0.50000     0.0600000    0.0600000   6.128906e-05  1.496315e-08
    794    796   2   0.50000     0.0600000    0.0600000   6.128906e-05  1.496315e-08
    769    797   2   0.50000    -0.1200000    0.0600000   2.494471e-04  1.671101e-07
    769    798   2   0.50000    -0.1200000    0.0600000   2.494471e-04  1.671101e-07
    769    799   2   0.50000    -0.1200000    0.0600000   2.494471e-04  1.671101e-07
    795    797   2   0.50000     0.0600000    0.0600000   6.128906e-05  1.496315e-08
    795    798   2   0.50000     0.0600000    0.0600000   6.128906e-05  1.496315e-08
    795    799   2   0.50000     0.0600000    0.0600000   6.128906e-05  1.496315e-08
    796    797   2   0.50000     0.0600000    0.0600000   6.128906e-05  1.496315e-08
    796    798   2   0.50000     0.0600000    0.0600000   6.128906e-05  1.496315e-08
    796    799   2   0.50000     0.0600000    0.0600000   6.128906e-05  1.496315e-08
    759    802   2   0.50000    -0.0600000   -0.1200000   1.015252e-03  1.866303e-06
    759    816   2   0.50000    -0.0600000    0.0600000   2.494471e-04  1.671101e-07
    759    842   2   0.50000    -0.0600000    0.0600000   2.494471e-04  1.671101e-07
    814    802   2   0.50000     0.0600000   -0.1200000   2.494471e-04  1.671101e-07
    814    816   2   0.50000     0.0600000    0.0600000   6.128906e-05  1.496315e-08
    814    842   2   0.50000     0.0600000    0.0600000   6.128906e-05  1.496315e-08
    815    802   2   0.50000     0.0600000   -0.1200000   2.494471e-04  1.671101e-07
    815    816   2   0.50000     0.0600000    0.0600000   6.128906e-05  1.496315e-08
    815    842   2   0.50000     0.0600000    0.0600000   6.128906e-05  1.496315e-08
    800    803   2   0.50000    -0.1200000   -0.1200000   1.015252e-03  1.866303e-06
    800    817   2   0.50000    -0.1200000    0.0600000   2.494471e-04  1.671101e-07
    800    818   2   0.50000    -0.1200000    0.0600000   2.494471e-04  1.671101e-07
    816    803   2   0.50000     0.0600000   -0.1200000   2.494471e-04  1.671101e-07
    816    817   2   0.50000     0.0600000    0.0600000   6.128906e-05  1.496315e-08
    816    818   2   0.50000     0.0600000    0.0600000   6.128906e-05  1.496315e-08
    842    803   2   0.50000     0.0600000   -0.1200000   2.494471e-04  1.671101e-07
    842    817   2   0.50000     0.0600000    0.0600000   6.128906e-05  1.496315e-08
    842    818   2   0.50000     0.0600000    0.0600000   6.128906e-05  1.496315e-08
    801    804   2   0.50000    -0.1200000   -0.1200000   1.015252e-03  1.866303e-06
    801    819   2   0.50000    -0.1200000    0.0600000   2.494471e-04  1.671101e-07
    801    820   2   0.50000    -0.1200000    0.0600000   2.494471e-04  1.671101e-07
    817    804   2   0.50000     0.0600000   -0.1200000   2.494471e-04  1.671101e-07
    817    819   2   0.50000     0.0600000    0.0600000   6.128906e-05  1.496315e-08
    817    820   2   0.50000     0.0600000    0.0600000   6.128906e-05  1.496315e-08
    818    804   2   0.50000     0.0600000   -0.1200000   2.494471e-04  1.671101e-07
    818    819   2   0.50000     0.0600000    0.0600000   6.128906e-05  1.496315e-08
    818    820   2   0.50000     0.0600000    0.0600000   6.128906e-05  1.496315e-08
    802    805   2   0.50000    -0.1200000   -0.1200000   1.015252e-03  1.866303e-06
    802    821   2   0.50000    -0.1200000    0.0600000   2.494471e-04  1.671101e-07
    802    822   2   0.50000    -0.1200000    0.0600000   2.494471e-04  1.671101e-07
    819    805   2   0.50000     0.0600000   -0.1200000   2.494471e-04  1.671101e-07
    819    821   2   0.50000     0.0600000    0.0600000   6.128906e-05  1.496315e-08
    819    822   2   0.50000     0.0600000    0.0600000   6.128906e-05  1.496315e-08
    820    805   2   0.50000     0.0600000   -0.1200000   2.494471e-04  1.671101e-07
    820    821   2   0.50000     0.0600000    0.0600000   6.128906e-05  1.496315e-08
    820    822   2   0.50000     0.0600000    0.0600000   6.128906e-05  1.496315e-08
    803    806   2   0.50000    -0.1200000   -0.1200000   1.015252e-03  1.866303e-06
    803    823   2   0.50000    -0.1200000    0.0600000   2.494471e-04  1.671101e-07
    803    824   2   0.50000    -0.1200000    0.0600000   2.494471e-04  1.671101e-07
    821    806   2   0.50000     0.0600000   -0.1200000   2.494471e-04  1.671101e-07
    821    823   2   0.50000     0.0600000    0.0600000   6.128906e-05  1.496315e-08
    821    824   2   0.50000     0.0600000    0.0600000   6.128906e-05  1.496315e-08
    822    806   2   0.50000     0.0600000   -0.1200000   2.494471e-04  1.671101e-07
    822    823   2   0.50000     0.0600000    0.0600000   6.128906e-05  1.496315e-08
    822    824   2   0.50000     0.0600000    0.0600000   6.128906e-05  1.496315e-08
    804    807   2   0.50000    -0.1200000   -0.1200000   1.015252e-03  1.866303e-06
    804    825   2   0.50000    -0.1200000    0.0600000   2.494471e-04  1.671101e-07
    804    826   2   0.50000    -0.1200000    0.0600000   2.494471e-04  1.671101e-07
    823    807   2   0.50000     0.0600000   -0.1200000   2.494471e-04  1.671101e-07
    823    825   2   0.50000     0.0600000    0.0600000   6.128906e-05  1.496315e-08
    823    826   2   0.50000     0.0600000    0.0600000   6.128906e-05  1.496315e-08
    824    807   2   0.50000     0.0600000   -0.1200000   2.494471e-04  1.671101e-07
    824    825   2   0.50000     0.0600000    0.0600000   6.128906e-05  1.496315e-08
    824    826   2   0.50000     0.0600000    0.0600000   6.128906e-05  1.496315e-08
    805    808   2   0.50000    -0.1200000   -0.1200000   1.015252e-03  1.866303e-06
    805    827   2   0.50000    -0.1200000    0.0600000   2.494471e-04  1.671101e-07
    805    828   2   0.50000    -0.1200000    0.0600000   2.494471e-04  1.671101e-07
    825    808   2   0.50000     0.0600000   -0.1200000   2.494471e-04  1.671101e-07
    825    827   2   0.50000     0.0600000    0.0600000   6.128906e-05  1.496315e-08
    825    828   2   0.50000     0.0600000    0.0600000   6.128906e-05  1.496315e-08
    826    808   2   0.50000     0.0600000   -0.1200000   2.494471e-04  1.671101e-07
    826    827   2   0.50000     0.0600000    0.0600000   6.128906e-05  1.496315e-08
    826    828   2   0.50000     0.0600000    0.0600000   6.128906e-05  1.496315e-08
    806    809   2   0.50000    -0.1200000   -0.1200000   1.015252e-03  1.866303e-06
    806    829   2   0.50000    -0.1200000    0.0600000   2.494471e-04  1.671101e-07
    806    830   2   0.50000    -0.1200000    0.0600000   2.494471e-04  1.671101e-07
    827    809   2   0.50000     0.0600000   -0.1200000   2.494471e-04  1.671101e-07
    827    829   2   0.50000     0.0600000    0.0600000   6.128906e-05  1.496315e-08
    827    830   2   0.50000     0.0600000    0.0600000   6.128906e-05  1.496315e-08
    828    809   2   0.50000     0.0600000   -0.1200000   2.494471e-04  1.671101e-07
    828    829   2   0.50000     0.0600000    0.0600000   6.128906e-05  1.496315e-08
    828    830   2   0.50000     0.0600000    0.0600000   6.128906e-05  1.496315e-08
    807    810   2   0.50000    -0.1200000   -0.1200000   1.015252e-03  1.866303e-06
    807    831   2   0.50000    -0.1200000    0.0600000   2.494471e-04  1.671101e-07
    807    832   2   0.50000    -0.1200000    0.0600000   2.494471e-04  1.671101e-07
    829    810   2   0.50000     0.0600000   -0.1200000   2.494471e-04  1.671101e-07
    829    831   2   0.50000     0.0600000    0.0600000   6.128906e-05  1.496315e-08
    829    832   2   0.50000     0.0600000    0.0600000   6.128906e-05  1.496315e-08
    830    810   2   0.50000     0.0600000   -0.1200000   2.494471e-04  1.671101e-07
    830    831   2   0.50000     0.0600000    0.0600000   6.128906e-05  1.496315e-08
    830    832   2   0.50000     0.0600000    0.0600000   6.128906e-05  1.496315e-08
    808    811   2   0.50000    -0.1200000   -0.1200000   1.015252e-03  1.866303e-06
    808    833   2   0.50000    -0.1200000    0.0600000   2.494471e-04  1.671101e-07
    808    834   2   0.50000    -0.1200000    0.0600000   2.494471e-04  1.671101e-07
    831    811   2   0.50000     0.0600000   -0.1200000   2.494471e-04  1.671101e-07
    831    833   2   0.50000     0.0600000    0.0600000   6.128906e-05  1.496315e-08
    831    834   2   0.50000     0.0600000    0.0600000   6.128906e-05  1.496315e-08
    832    811   2   0.50000     0.0600000   -0.1200000   2.494471e-04  1.671101e-07
    832    833   2   0.50000     0.0600000    0.0600000   6.128906e-05  1.496315e-08
    832    834   2   0.50000     0.0600000    0.0600000   6.128906e-05  1.496315e-08
    809    812   2   0.50000    -0.1200000   -0.1200000   1.015252e-03  1.866303e-06
    809    835   2   0.50000    -0.1200000    0.0600000   2.494471e-04  1.671101e-07
    809    836   2   0.50000    -0.1200000    0.0600000   2.494471e-04  1.671101e-07
    833    812   2   0.50000     0.0600000   -0.1200000   2.494471e-04  1.671101e-07
    833    835   2   0.50000     0.0600000    0.0600000   6.128906e-05  1.496315e-08
    833    836   2   0.50000     0.0600000    0.0600000   6.128906e-05  1.496315e-08
    834    812   2   0.50000     0.0600000   -0.1200000   2.494471e-04  1.671101e-07
    834    835   2   0.50000     0.0600000    0.0600000   6.128906e-05  1.496315e-08
    834    836   2   0.50000     0.0600000    0.0600000   6.128906e-05  1.496315e-08
    810    813   2   0.50000    -0.1200000   -0.1800000   1.015252e-03  1.866303e-06
    810    837   2   0.50000    -0.1200000    0.0600000   2.494471e-04  1.671101e-07
    810    838   2   0.50000    -0.1200000    0.0600000   2.494471e-04  1.671101e-07
    835    813   2   0.50000     0.0600000   -0.1800000   2.494471e-04  1.671101e-07
    835    837   2   0.50000     0.0600000    0.0600000   6.128906e-05  1.496315e-08
    835    838   2   0.50000     0.0600000    0.0600000   6.128906e-05  1.496315e-08
    836    813   2   0.50000     0.0600000   -0.1800000   2.494471e-04  1.671101e-07
    836    837   2   0.50000     0.0600000    0.0600000   6.128906e-05  1.496315e-08
    836    838   2   0.50000     0.0600000    0.0600000   6.128906e-05  1.496315e-08
    811    839   2   0.50000    -0.1200000    0.0600000   2.494471e-04  1.671101e-07
    811    840   2   0.50000    -0.1200000    0.0600000   2.494471e-04  1.671101e-07
    811    841   2   0.50000    -0.1200000    0.0600000   2.494471e-04  1.671101e-07
    837    839   2   0.50000     0.0600000    0.0600000   6.128906e-05  1.496315e-08
    837    840   2   0.50000     0.0600000    0.0600000   6.128906e-05  1.496315e-08
    837    841   2   0.50000     0.0600000    0.0600000   6.128906e-05  1.496315e-08
    838    839   2   0.50000     0.0600000    0.0600000   6.128906e-05  1.496315e-08
    838    840   2   0.50000     0.0600000    0.0600000   6.128906e-05  1.496315e-08
    838    841   2   0.50000     0.0600000    0.0600000   6.128906e-05  1.496315e-08

[ angles ]
; ai  aj  ak
      2      1     15   1    110.7000    313.8000
      2      1     16   1    110.7000    313.8000
      2      1     43   1    110.7000    313.8000
     15      1     16   1    107.8000    276.1440
     15      1     43   1    107.8000    276.1440
     16      1     43   1    107.8000    276.1440
      1      2      3   1    112.7000    488.2728
      1      2     17   1    110.7000    313.8000
      1      2     44   1    112.7000    488.2728
      3      2     17   1    110.7000    313.8000
      3      2     44   1    112.7000    488.2728
     17      2     44   1    110.7000    313.8000
      2      3      4   1    112.7000    488.2728
      2      3     18   1    110.7000    313.8000
      2      3     19   1    110.7000    313.8000
      4      3     18   1    110.7000    313.8000
      4      3     19   1    110.7000    313.8000
     18      3     19   1    107.8000    276.1440
      3      4      5   1    112.7000    488.2728
      3      4     20   1    110.7000    313.8000
      3      4     21   1    110.7000    313.8000
      5      4     20   1    110.7000    313.8000
      5      4     21   1    110.7000    313.8000
     20      4     21   1    107.8000    276.1440
      4      5      6   1    112.7000    488.2728
      4      5     22   1    110.7000    313.8000
      4      5     23   1    110.7000    313.8000
      6      5     22   1    110.7000    313.8000
      6      5     23   1    110.7000    313.8000
     22      5     23   1    107.8000    276.1440
      5      6      7   1    112.7000    488.2728
      5      6     24   1    110.7000    313.8000
      5      6     25   1    110.7000    313.8000
      7      6     24   1    110.7000    313.8000
      7      6     25   1    110.7000    313.8000
     24      6     25   1    107.8000    276.1440
      6      7      8   1    112.7000    488.2728
      6      7     26   1    110.7000    313.8000
      6      7     27   1    110.7000    313.8000
      8      7     26   1    110.7000    313.8000
      8      7     27   1    110.7000    313.8000
     26      7     27   1    107.8000    276.1440
      7      8      9   1    112.7000    488.2728
      7      8     28   1    110.7000    313.8000
      7      8     29   1    110.7000    313.8000
      9      8     28   1    110.7000    313.8000
      9      8     29   1    110.7000    313.8000
     28      8     29   1    107.8000    276.1440
      8      9     10   1    112.7000    488.2728
      8      9     30   1    110.7000    313.8000
      8      9     31   1    110.7000    313.8000
     10      9     30   1    110.7000    313.8000
     10      9     31   1    110.7000    313.8000
     30      9     31   1    107.8000    276.1440
      9     10     11   1    112.7000    488.2728
      9     10     32   1    110.7000    313.8000
      9     10     33   1    110.7000    313.8000
     11     10     32   1    110.7000    313.8000
     11     10     33   1    110.7000    313.8000
     32     10     33   1    107.8000    276.1440
     10     11     12   1    112.7000    488.2728
     10     11     34   1    110.7000    313.8000
     10     11     35   1    110.7000    313.8000
     12     11     34   1    110.7000    313.8000
     12     11     35   1    110.7000    313.8000
     34     11     35   1    107.8000    276.1440
     11     12     13   1    112.7000    488.2728
     11     12     36   1    110.7000    313.8000
     11     12     37   1    110.7000    313.8000
     13     12     36   1    110.7000    313.8000
     13     12     37   1    110.7000    313.8000
     36     12     37   1    107.8000    276.1440
     12     13     14   1    112.7000    488.2728
     12     13     38   1    110.7000    313.8000
     12     13     39   1    110.7000    313.8000
     14     13     38   1    110.7000    313.8000
     14     13     39   1    110.7000    313.8000
     38     13     39   1    107.8000    276.1440
     13     14     40   1    110.7000    313.8000
     13     14     41   1    110.7000    313.8000
     13     14     42   1    110.7000    313.8000
     40     14     41   1    107.8000    276.1440
     40     14     42   1    107.8000    276.1440
     41     14     42   1    107.8000    276.1440
      2     44     45   1    112.7000    488.2728
      2     44     58   1    110.7000    313.8000
      2     44     59   1    110.7000    313.8000
     45     44     58   1    110.7000    313.8000
     45     44     59   1    110.7000    313.8000
     58     44     59   1    107.8000    276.1440
     44     45     46   1    112.7000    488.2728
     44     45     60   1    110.7000    313.8000
     44     45     86   1    112.7000    488.2728
     46     45     60   1    110.7000    313.8000
     46     45     86   1    112.7000    488.2728
     60     45     86   1    110.7000    313.8000
     45     46     47   1    112.7000    488.2728
     45     46     61   1    110.7000    313.8000
     45     46     62   1    110.7000    313.8000
     47     46     61   1    110.7000    313.8000
     47     46     62   1    110.7000    313.8000
     61     46     62   1    107.8000    276.1440
     46     47     48   1    112.7000    488.2728
     46     47     63   1    110.7000    313.8000
     46     47     64   1    110.7000    313.8000
     48     47     63   1    110.7000    313.8000
     48     47     64   1    110.7000    313.8000
     63     47     64   1    107.8000    276.1440
     47     48     49   1    112.7000    488.2728
     47     48     65   1    110.7000    313.8000
     47     48     66   1    110.7000    313.8000
     49     48     65   1    110.7000    313.8000
     49     48     66   1    110.7000    313.8000
     65     48     66   1    107.8000    276.1440
     48     49     50   1    112.7000    488.2728
     48     49     67   1    110.7000    313.8000
     48     49     68   1    110.7000    313.8000
     50     49     67   1    110.7000    313.8000
     50     49     68   1    110.7000    313.8000
     67     49     68   1    107.8000    276.1440
     49     50     51   1    112.7000    488.2728
     49     50     69   1    110.7000    313.8000
     49     50     70   1    110.7000    313.8000
     51     50     69   1    110.7000    313.8000
     51     50     70   1    110.7000    313.8000
     69     50     70   1    107.8000    276.1440
     50     51     52   1    112.7000    488.2728
     50     51     71   1    110.7000    313.8000
     50     51     72   1    110.7000    313.8000
     52     51     71   1    110.7000    313.8000
     52     51     72   1    110.7000    313.8000
     71     51     72   1    107.8000    276.1440
     51     52     53   1    112.7000    488.2728
     51     52     73   1    110.7000    313.8000
     51     52     74   1    110.7000    313.8000
     53     52     73   1    110.7000    313.8000
     53     52     74   1    110.7000    313.8000
     73     52     74   1    107.8000    276.1440
     52     53     54   1    112.7000    488.2728
     52     53     75   1    110.7000    313.8000
     52     53     76   1    110.7000    313.8000
     54     53     75   1    110.7000    313.8000
     54     53     76   1    110.7000    313.8000
     75     53     76   1    107.8000    276.1440
     53     54     55   1    112.7000    488.2728
     53     54     77   1    110.7000    313.8000
     53     54     78   1    110.7000    313.8000
     55     54     77   1    110.7000    313.8000
     55     54     78   1    110.7000    313.8000
     77     54     78   1    107.8000    276.1440
     54     55     56   1    112.7000    488.2728
     54     55     79   1    110.7000    313.8000
     54     55     80   1    110.7000    313.8000
     56     55     79   1    110.7000    313.8000
     56     55     80   1    110.7000    313.8000
     79     55     80   1    107.8000    276.1440
     55     56     57   1    112.7000    488.2728
     55     56     81   1    110.7000    313.8000
     55     56     82   1    110.7000    313.8000
     57     56     81   1    110.7000    313.8000
     57     56     82   1    110.7000    313.8000
     81     56     82   1    107.8000    276.1440
     56     57     83   1    110.7000    313.8000
     56     57     84   1    110.7000    313.8000
     56     57     85   1    110.7000    313.8000
     83     57     84   1    107.8000    276.1440
     83     57     85   1    107.8000    276.1440
     84     57     85   1    107.8000    276.1440
     45     86     87   1    112.7000    488.2728
     45     86    100   1    110.7000    313.8000
     45     86    101   1    110.7000    313.8000
     87     86    100   1    110.7000    313.8000
     87     86    101   1    110.7000    313.8000
    100     86    101   1    107.8000    276.1440
     86     87     88   1    112.7000    488.2728
     86     87    102   1    110.7000    313.8000
     86     87    128   1    112.7000    488.2728
     88     87    102   1    110.7000    313.8000
     88     87    128   1    112.7000    488.2728
    102     87    128   1    110.7000    313.8000
     87     88     89   1    112.7000    488.2728
     87     88    103   1    110.7000    313.8000
     87     88    104   1    110.7000    313.8000
     89     88    103   1    110.7000    313.8000
     89     88    104   1    110.7000    313.8000
    103     88    104   1    107.8000    276.1440
     88     89     90   1    112.7000    488.2728
     88     89    105   1    110.7000    313.8000
     88     89    106   1    110.7000    313.8000
     90     89    105   1    110.7000    313.8000
     90     89    106   1    110.7000    313.8000
    105     89    106   1    107.8000    276.1440
     89     90     91   1    112.7000    488.2728
     89     90    107   1    110.7000    313.8000
     89     90    108   1    110.7000    313.8000
     91     90    107   1    110.7000    313.8000
     91     90    108   1    110.7000    313.8000
    107     90    108   1    107.8000    276.1440
     90     91     92   1    112.7000    488.2728
     90     91    109   1    110.7000    313.8000
     90     91    110   1    110.7000    313.8000
     92     91    109   1    110.7000    313.8000
     92     91    110   1    110.7000    313.8000
    109     91    110   1    107.8000    276.1440
     91     92     93   1    112.7000    488.2728
     91     92    111   1    110.7000    313.8000
     91     92    112   1    110.7000    313.8000
     93     92    111   1    110.7000    313.8000
     93     92    112   1    110.7000    313.8000
    111     92    112   1    107.8000    276.1440
     92     93     94   1    112.7000    488.2728
     92     93    113   1    110.7000    313.8000
     92     93    114   1    110.7000    313.8000
     94     93    113   1    110.7000    313.8000
     94     93    114   1    110.7000    313.8000
    113     93    114   1    107.8000    276.1440
     93     94     95   1    112.7000    488.2728
     93     94    115   1    110.7000    313.8000
     93     94    116   1    110.7000    313.8000
     95     94    115   1    110.7000    313.8000
     95     94    116   1    110.7000    313.8000
    115     94    116   1    107.8000    276.1440
     94     95     96   1    112.7000    488.2728
     94     95    117   1    110.7000    313.8000
     94     95    118   1    110.7000    313.8000
     96     95    117   1    110.7000    313.8000
     96     95    118   1    110.7000    313.8000
    117     95    118   1    107.8000    276.1440
     95     96     97   1    112.7000    488.2728
     95     96    119   1    110.7000    313.8000
     95     96    120   1    110.7000    313.8000
     97     96    119   1    110.7000    313.8000
     97     96    120   1    110.7000    313.8000
    119     96    120   1    107.8000    276.1440
     96     97     98   1    112.7000    488.2728
     96     97    121   1    110.7000    313.8000
     96     97    122   1    110.7000    313.8000
     98     97    121   1    110.7000    313.8000
     98     97    122   1    110.7000    313.8000
    121     97    122   1    107.8000    276.1440
     97     98     99   1    112.7000    488.2728
     97     98    123   1    110.7000    313.8000
     97     98    124   1    110.7000    313.8000
     99     98    123   1    110.7000    313.8000
     99     98    124   1    110.7000    313.8000
    123     98    124   1    107.8000    276.1440
     98     99    125   1    110.7000    313.8000
     98     99    126   1    110.7000    313.8000
     98     99    127   1    110.7000    313.8000
    125     99    126   1    107.8000    276.1440
    125     99    127   1    107.8000    276.1440
    126     99    127   1    107.8000    276.1440
     87    128    129   1    112.7000    488.2728
     87    128    142   1    110.7000    313.8000
     87    128    143   1    110.7000    313.8000
    129    128    142   1    110.7000    313.8000
    129    128    143   1    110.7000    313.8000
    142    128    143   1    107.8000    276.1440
    128    129    130   1    112.7000    488.2728
    128    129    144   1    110.7000    313.8000
    128    129    170   1    112.7000    488.2728
    130    129    144   1    110.7000    313.8000
    130    129    170   1    112.7000    488.2728
    144    129    170   1    110.7000    313.8000
    129    130    131   1    112.7000    488.2728
    129    130    145   1    110.7000    313.8000
    129    130    146   1    110.7000    313.8000
    131    130    145   1    110.7000    313.8000
    131    130    146   1    110.7000    313.8000
    145    130    146   1    107.8000    276.1440
    130    131    132   1    112.7000    488.2728
    130    131    147   1    110.7000    313.8000
    130    131    148   1    110.7000    313.8000
    132    131    147   1    110.7000    313.8000
    132    131    148   1    110.7000    313.8000
    147    131    148   1    107.8000    276.1440
    131    132    133   1    112.7000    488.2728
    131    132    149   1    110.7000    313.8000
    131    132    150   1    110.7000    313.8000
    133    132    149   1    110.7000    313.8000
    133    132    150   1    110.7000    313.8000
    149    132    150   1    107.8000    276.1440
    132    133    134   1    112.7000    488.2728
    132    133    151   1    110.7000    313.8000
    132    133    152   1    110.7000    313.8000
    134    133    151   1    110.7000    313.8000
    134    133    152   1    110.7000    313.8000
    151    133    152   1    107.8000    276.1440
    133    134    135   1    112.7000    488.2728
    133    134    153   1    110.7000    313.8000
    133    134    154   1    110.7000    313.8000
    135    134    153   1    110.7000    313.8000
    135    134    154   1    110.7000    313.8000
    153    134    154   1    107.8000    276.1440
    134    135    136   1    112.7000    488.2728
    134    135    155   1    110.7000    313.8000
    134    135    156   1    110.7000    313.8000
    136    135    155   1    110.7000    313.8000
    136    135    156   1    110.7000    313.8000
    155    135    156   1    107.8000    276.1440
    135    136    137   1    112.7000    488.2728
    135    136    157   1    110.7000    313.8000
    135    136    158   1    110.7000    313.8000
    137    136    157   1    110.7000    313.8000
    137    136    158   1    110.7000    313.8000
    157    136    158   1    107.8000    276.1440
    136    137    138   1    112.7000    488.2728
    136    137    159   1    110.7000    313.8000
    136    137    160   1    110.7000    313.8000
    138    137    159   1    110.7000    313.8000
    138    137    160   1    110.7000    313.8000
    159    137    160   1    107.8000    276.1440
    137    138    139   1    112.7000    488.2728
    137    138    161   1    110.7000    313.8000
    137    138    162   1    110.7000    313.8000
    139    138    161   1    110.7000    313.8000
    139    138    162   1    110.7000    313.8000
    161    138    162   1    107.8000    276.1440
    138    139    140   1    112.7000    488.2728
    138    139    163   1    110.7000    313.8000
    138    139    164   1    110.7000    313.8000
    140    139    163   1    110.7000    313.8000
    140    139    164   1    110.7000    313.8000
    163    139    164   1    107.8000    276.1440
    139    140    141   1    112.7000    488.2728
    139    140    165   1    110.7000    313.8000
    139    140    166   1    110.7000    313.8000
    141    140    165   1    110.7000    313.8000
    141    140    166   1    110.7000    313.8000
    165    140    166   1    107.8000    276.1440
    140    141    167   1    110.7000    313.8000
    140    141    168   1    110.7000    313.8000
    140    141    169   1    110.7000    313.8000
    167    141    168   1    107.8000    276.1440
    167    141    169   1    107.8000    276.1440
    168    141    169   1    107.8000    276.1440
    129    170    171   1    112.7000    488.2728
    129    170    184   1    110.7000    313.8000
    129    170    185   1    110.7000    313.8000
    171    170    184   1    110.7000    313.8000
    171    170    185   1    110.7000    313.8000
    184    170    185   1    107.8000    276.1440
    170    171    172   1    112.7000    488.2728
    170    171    186   1    110.7000    313.8000
    170    171    212   1    112.7000    488.2728
    172    171    186   1    110.7000    313.8000
    172    171    212   1    112.7000    488.2728
    186    171    212   1    110.7000    313.8000
    171    172    173   1    112.7000    488.2728
    171    172    187   1    110.7000    313.8000
    171    172    188   1    110.7000    313.8000
    173    172    187   1    110.7000    313.8000
    173    172    188   1    110.7000    313.8000
    187    172    188   1    107.8000    276.1440
    172    173    174   1    112.7000    488.2728
    172    173    189   1    110.7000    313.8000
    172    173    190   1    110.7000    313.8000
    174    173    189   1    110.7000    313.8000
    174    173    190   1    110.7000    313.8000
    189    173    190   1    107.8000    276.1440
    173    174    175   1    112.7000    488.2728
    173    174    191   1    110.7000    313.8000
    173    174    192   1    110.7000    313.8000
    175    174    191   1    110.7000    313.8000
    175    174    192   1    110.7000    313.8000
    191    174    192   1    107.8000    276.1440
    174    175    176   1    112.7000    488.2728
    174    175    193   1    110.7000    313.8000
    174    175    194   1    110.7000    313.8000
    176    175    193   1    110.7000    313.8000
    176    175    194   1    110.7000    313.8000
    193    175    194   1    107.8000    276.1440
    175    176    177   1    112.7000    488.2728
    175    176    195   1    110.7000    313.8000
    175    176    196   1    110.7000    313.8000
    177    176    195   1    110.7000    313.8000
    177    176    196   1    110.7000    313.8000
    195    176    196   1    107.8000    276.1440
    176    177    178   1    112.7000    488.2728
    176    177    197   1    110.7000    313.8000
    176    177    198   1    110.7000    313.8000
    178    177    197   1    110.7000    313.8000
    178    177    198   1    110.7000    313.8000
    197    177    198   1    107.8000    276.1440
    177    178    179   1    112.7000    488.2728
    177    178    199   1    110.7000    313.8000
    177    178    200   1    110.7000    313.8000
    179    178    199   1    110.7000    313.8000
    179    178    200   1    110.7000    313.8000
    199    178    200   1    107.8000    276.1440
    178    179    180   1    112.7000    488.2728
    178    179    201   1    110.7000    313.8000
    178    179    202   1    110.7000    313.8000
    180    179    201   1    110.7000    313.8000
    180    179    202   1    110.7000    313.8000
    201    179    202   1    107.8000    276.1440
    179    180    181   1    112.7000    488.2728
    179    180    203   1    110.7000    313.8000
    179    180    204   1    110.7000    313.8000
    181    180    203   1    110.7000    313.8000
    181    180    204   1    110.7000    313.8000
    203    180    204   1    107.8000    276.1440
    180    181    182   1    112.7000    488.2728
    180    181    205   1    110.7000    313.8000
    180    181    206   1    110.7000    313.8000
    182    181    205   1    110.7000    313.8000
    182    181    206   1    110.7000    313.8000
    205    181    206   1    107.8000    276.1440
    181    182    183   1    112.7000    488.2728
    181    182    207   1    110.7000    313.8000
    181    182    208   1    110.7000    313.8000
    183    182    207   1    110.7000    313.8000
    183    182    208   1    110.7000    313.8000
    207    182    208   1    107.8000    276.1440
    182    183    209   1    110.7000    313.8000
    182    183    210   1    110.7000    313.8000
    182    183    211   1    110.7000    313.8000
    209    183    210   1    107.8000    276.1440
    209    183    211   1    107.8000    276.1440
    210    183    211   1    107.8000    276.1440
    171    212    213   1    112.7000    488.2728
    171    212    226   1    110.7000    313.8000
    171    212    227   1    110.7000    313.8000
    213    212    226   1    110.7000    313.8000
    213    212    227   1    110.7000    313.8000
    226    212    227   1    107.8000    276.1440
    212    213    214   1    112.7000    488.2728
    212    213    228   1    110.7000    313.8000
    212    213    254   1    112.7000    488.2728
    214    213    228   1    110.7000    313.8000
    214    213    254   1    112.7000    488.2728
    228    213    254   1    110.7000    313.8000
    213    214    215   1    112.7000    488.2728
    213    214    229   1    110.7000    313.8000
    213    214    230   1    110.7000    313.8000
    215    214    229   1    110.7000    313.8000
    215    214    230   1    110.7000    313.8000
    229    214    230   1    107.8000    276.1440
    214    215    216   1    112.7000    488.2728
    214    215    231   1    110.7000    313.8000
    214    215    232   1    110.7000    313.8000
    216    215    231   1    110.7000    313.8000
    216    215    232   1    110.7000    313.8000
    231    215    232   1    107.8000    276.1440
    215    216    217   1    112.7000    488.2728
    215    216    233   1    110.7000    313.8000
    215    216    234   1    110.7000    313.8000
    217    216    233   1    110.7000    313.8000
    217    216    234   1    110.7000    313.8000
    233    216    234   1    107.8000    276.1440
    216    217    218   1    112.7000    488.2728
    216    217    235   1    110.7000    313.8000
    216    217    236   1    110.7000    313.8000
    218    217    235   1    110.7000    313.8000
    218    217    236   1    110.7000    313.8000
    235    217    236   1    107.8000    276.1440
    217    218    219   1    112.7000    488.2728
    217    218    237   1    110.7000    313.8000
    217    218    238   1    110.7000    313.8000
    219    218    237   1    110.7000    313.8000
    219    218    238   1    110.7000    313.8000
    237    218    238   1    107.8000    276.1440
    218    219    220   1    112.7000    488.2728
    218    219    239   1    110.7000    313.8000
    218    219    240   1    110.7000    313.8000
    220    219    239   1    110.7000    313.8000
    220    219    240   1    110.7000    313.8000
    239    219    240   1    107.8000    276.1440
    219    220    221   1    112.7000    488.2728
    219    220    241   1    110.7000    313.8000
    219    220    242   1    110.7000    313.8000
    221    220    241   1    110.7000    313.8000
    221    220    242   1    110.7000    313.8000
    241    220    242   1    107.8000    276.1440
    220    221    222   1    112.7000    488.2728
    220    221    243   1    110.7000    313.8000
    220    221    244   1    110.7000    313.8000
    222    221    243   1    110.7000    313.8000
    222    221    244   1    110.7000    313.8000
    243    221    244   1    107.8000    276.1440
    221    222    223   1    112.7000    488.2728
    221    222    245   1    110.7000    313.8000
    221    222    246   1    110.7000    313.8000
    223    222    245   1    110.7000    313.8000
    223    222    246   1    110.7000    313.8000
    245    222    246   1    107.8000    276.1440
    222    223    224   1    112.7000    488.2728
    222    223    247   1    110.7000    313.8000
    222    223    248   1    110.7000    313.8000
    224    223    247   1    110.7000    313.8000
    224    223    248   1    110.7000    313.8000
    247    223    248   1    107.8000    276.1440
    223    224    225   1    112.7000    488.2728
    223    224    249   1    110.7000    313.8000
    223    224    250   1    110.7000    313.8000
    225    224    249   1    110.7000    313.8000
    225    224    250   1    110.7000    313.8000
    249    224    250   1    107.8000    276.1440
    224    225    251   1    110.7000    313.8000
    224    225    252   1    110.7000    313.8000
    224    225    253   1    110.7000    313.8000
    251    225    252   1    107.8000    276.1440
    251    225    253   1    107.8000    276.1440
    252    225    253   1    107.8000    276.1440
    213    254    255   1    112.7000    488.2728
    213    254    268   1    110.7000    313.8000
    213    254    269   1    110.7000    313.8000
    255    254    268   1    110.7000    313.8000
    255    254    269   1    110.7000    313.8000
    268    254    269   1    107.8000    276.1440
    254    255    256   1    112.7000    488.2728
    254    255    270   1    110.7000    313.8000
    254    255    296   1    112.7000    488.2728
    256    255    270   1    110.7000    313.8000
    256    255    296   1    112.7000    488.2728
    270    255    296   1    110.7000    313.8000
    255    256    257   1    112.7000    488.2728
    255    256    271   1    110.7000    313.8000
    255    256    272   1    110.7000    313.8000
    257    256    271   1    110.7000    313.8000
    257    256    272   1    110.7000    313.8000
    271    256    272   1    107.8000    276.1440
    256    257    258   1    112.7000    488.2728
    256    257    273   1    110.7000    313.8000
    256    257    274   1    110.7000    313.8000
    258    257    273   1    110.7000    313.8000
    258    257    274   1    110.7000    313.8000
    273    257    274   1    107.8000    276.1440
    257    258    259   1    112.7000    488.2728
    257    258    275   1    110.7000    313.8000
    257    258    276   1    110.7000    313.8000
    259    258    275   1    110.7000    313.8000
    259    258    276   1    110.7000    313.8000
    275    258    276   1    107.8000    276.1440
    258    259    260   1    112.7000    488.2728
    258    259    277   1    110.7000    313.8000
    258    259    278   1    110.7000    313.8000
    260    259    277   1    110.7000    313.8000
    260    259    278   1    110.7000    313.8000
    277    259    278   1    107.8000    276.1440
    259    260    261   1    112.7000    488.2728
    259    260    279   1    110.7000    313.8000
    259    260    280   1    110.7000    313.8000
    261    260    279   1    110.7000    313.8000
    261    260    280   1    110.7000    313.8000
    279    260    280   1    107.8000    276.1440
    260    261    262   1    112.7000    488.2728
    260    261    281   1    110.7000    313.8000
    260    261    282   1    110.7000    313.8000
    262    261    281   1    110.7000    313.8000
    262    261    282   1    110.7000    313.8000
    281    261    282   1    107.8000    276.1440
    261    262    263   1    112.7000    488.2728
    261    262    283   1    110.7000    313.8000
    261    262    284   1    110.7000    313.8000
    263    262    283   1    110.7000    313.8000
    263    262    284   1    110.7000    313.8000
    283    262    284   1    107.8000    276.1440
    262    263    264   1    112.7000    488.2728
    262    263    285   1    110.7000    313.8000
    262    263    286   1    110.7000    313.8000
    264    263    285   1    110.7000    313.8000
    264    263    286   1    110.7000    313.8000
    285    263    286   1    107.8000    276.1440
    263    264    265   1    112.7000    488.2728
    263    264    287   1    110.7000    313.8000
    263    264    288   1    110.7000    313.8000
    265    264    287   1    110.7000    313.8000
    265    264    288   1    110.7000    313.8000
    287    264    288   1    107.8000    276.1440
    264    265    266   1    112.7000    488.2728
    264    265    289   1    110.7000    313.8000
    264    265    290   1    110.7000    313.8000
    266    265    289   1    110.7000    313.8000
    266    265    290   1    110.7000    313.8000
    289    265    290   1    107.8000    276.1440
    265    266    267   1    112.7000    488.2728
    265    266    291   1    110.7000    313.8000
    265    266    292   1    110.7000    313.8000
    267    266    291   1    110.7000    313.8000
    267    266    292   1    110.7000    313.8000
    291    266    292   1    107.8000    276.1440
    266    267    293   1    110.7000    313.8000
    266    267    294   1    110.7000    313.8000
    266    267    295   1    110.7000    313.8000
    293    267    294   1    107.8000    276.1440
    293    267    295   1    107.8000    276.1440
    294    267    295   1    107.8000    276.1440
    255    296    297   1    112.7000    488.2728
    255    296    310   1    110.7000    313.8000
    255    296    311   1    110.7000    313.8000
    297    296    310   1    110.7000    313.8000
    297    296    311   1    110.7000    313.8000
    310    296    311   1    107.8000    276.1440
    296    297    298   1    112.7000    488.2728
    296    297    312   1    110.7000    313.8000
    296    297    338   1    112.7000    488.2728
    298    297    312   1    110.7000    313.8000
    298    297    338   1    112.7000    488.2728
    312    297    338   1    110.7000    313.8000
    297    298    299   1    112.7000    488.2728
    297    298    313   1    110.7000    313.8000
    297    298    314   1    110.7000    313.8000
    299    298    313   1    110.7000    313.8000
    299    298    314   1    110.7000    313.8000
    313    298    314   1    107.8000    276.1440
    298    299    300   1    112.7000    488.2728
    298    299    315   1    110.7000    313.8000
    298    299    316   1    110.7000    313.8000
    300    299    315   1    110.7000    313.8000
    300    299    316   1    110.7000    313.8000
    315    299    316   1    107.8000    276.1440
    299    300    301   1    112.7000    488.2728
    299    300    317   1    110.7000    313.8000
    299    300    318   1    110.7000    313.8000
    301    300    317   1    110.7000    313.8000
    301    300    318   1    110.7000    313.8000
    317    300    318   1    107.8000    276.1440
    300    301    302   1    112.7000    488.2728
    300    301    319   1    110.7000    313.8000
    300    301    320   1    110.7000    313.8000
    302    301    319   1    110.7000    313.8000
    302    301    320   1    110.7000    313.8000
    319    301    320   1    107.8000    276.1440
    301    302    303   1    112.7000    488.2728
    301    302    321   1    110.7000    313.8000
    301    302    322   1    110.7000    313.8000
    303    302    321   1    110.7000    313.8000
    303    302    322   1    110.7000    313.8000
    321    302    322   1    107.8000    276.1440
    302    303    304   1    112.7000    488.2728
    302    303    323   1    110.7000    313.8000
    302    303    324   1    110.7000    313.8000
    304    303    323   1    110.7000    313.8000
    304    303    324   1    110.7000    313.8000
    323    303    324   1    107.8000    276.1440
    303    304    305   1    112.7000    488.2728
    303    304    325   1    110.7000    313.8000
    303    304    326   1    110.7000    313.8000
    305    304    325   1    110.7000    313.8000
    305    304    326   1    110.7000    313.8000
    325    304    326   1    107.8000    276.1440
    304    305    306   1    112.7000    488.2728
    304    305    327   1    110.7000    313.8000
    304    305    328   1    110.7000    313.8000
    306    305    327   1    110.7000    313.8000
    306    305    328   1    110.7000    313.8000
    327    305    328   1    107.8000    276.1440
    305    306    307   1    112.7000    488.2728
    305    306    329   1    110.7000    313.8000
    305    306    330   1    110.7000    313.8000
    307    306    329   1    110.7000    313.8000
    307    306    330   1    110.7000    313.8000
    329    306    330   1    107.8000    276.1440
    306    307    308   1    112.7000    488.2728
    306    307    331   1    110.7000    313.8000
    306    307    332   1    110.7000    313.8000
    308    307    331   1    110.7000    313.8000
    308    307    332   1    110.7000    313.8000
    331    307    332   1    107.8000    276.1440
    307    308    309   1    112.7000    488.2728
    307    308    333   1    110.7000    313.8000
    307    308    334   1    110.7000    313.8000
    309    308    333   1    110.7000    313.8000
    309    308    334   1    110.7000    313.8000
    333    308    334   1    107.8000    276.1440
    308    309    335   1    110.7000    313.8000
    308    309    336   1    110.7000    313.8000
    308    309    337   1    110.7000    313.8000
    335    309    336   1    107.8000    276.1440
    335    309    337   1    107.8000    276.1440
    336    309    337   1    107.8000    276.1440
    297    338    339   1    112.7000    488.2728
    297    338    352   1    110.7000    313.8000
    297    338    353   1    110.7000    313.8000
    339    338    352   1    110.7000    313.8000
    339    338    353   1    110.7000    313.8000
    352    338    353   1    107.8000    276.1440
    338    339    340   1    112.7000    488.2728
    338    339    354   1    110.7000    313.8000
    338    339    380   1    112.7000    488.2728
    340    339    354   1    110.7000    313.8000
    340    339    380   1    112.7000    488.2728
    354    339    380   1    110.7000    313.8000
    339    340    341   1    112.7000    488.2728
    339    340    355   1    110.7000    313.8000
    339    340    356   1    110.7000    313.8000
    341    340    355   1    110.7000    313.8000
    341    340    356   1    110.7000    313.8000
    355    340    356   1    107.8000    276.1440
    340    341    342   1    112.7000    488.2728
    340    341    357   1    110.7000    313.8000
    340    341    358   1    110.7000    313.8000
    342    341    357   1    110.7000    313.8000
    342    341    358   1    110.7000    313.8000
    357    341    358   1    107.8000    276.1440
    341    342    343   1    112.7000    488.2728
    341    342    359   1    110.7000    313.8000
    341    342    360   1    110.7000    313.8000
    343    342    359   1    110.7000    313.8000
    343    342    360   1    110.7000    313.8000
    359    342    360   1    107.8000    276.1440
    342    343    344   1    112.7000    488.2728
    342    343    361   1    110.7000    313.8000
    342    343    362   1    110.7000    313.8000
    344    343    361   1    110.7000    313.8000
    344    343    362   1    110.7000    313.8000
    361    343    362   1    107.8000    276.1440
    343    344    345   1    112.7000    488.2728
    343    344    363   1    110.7000    313.8000
    343    344    364   1    110.7000    313.8000
    345    344    363   1    110.7000    313.8000
    345    344    364   1    110.7000    313.8000
    363    344    364   1    107.8000    276.1440
    344    345    346   1    112.7000    488.2728
    344    345    365   1    110.7000    313.8000
    344    345    366   1    110.7000    313.8000
    346    345    365   1    110.7000    313.8000
    346    345    366   1    110.7000    313.8000
    365    345    366   1    107.8000    276.1440
    345    346    347   1    112.7000    488.2728
    345    346    367   1    110.7000    313.8000
    345    346    368   1    110.7000    313.8000
    347    346    367   1    110.7000    313.8000
    347    346    368   1    110.7000    313.8000
    367    346    368   1    107.8000    276.1440
    346    347    348   1    112.7000    488.2728
    346    347    369   1    110.7000    313.8000
    346    347    370   1    110.7000    313.8000
    348    347    369   1    110.7000    313.8000
    348    347    370   1    110.7000    313.8000
    369    347    370   1    107.8000    276.1440
    347    348    349   1    112.7000    488.2728
    347    348    371   1    110.7000    313.8000
    347    348    372   1    110.7000    313.8000
    349    348    371   1    110.7000    313.8000
    349    348    372   1    110.7000    313.8000
    371    348    372   1    107.8000    276.1440
    348    349    350   1    112.7000    488.2728
    348    349    373   1    110.7000    313.8000
    348    349    374   1    110.7000    313.8000
    350    349    373   1    110.7000    313.8000
    350    349    374   1    110.7000    313.8000
    373    349    374   1    107.8000    276.1440
    349    350    351   1    112.7000    488.2728
    349    350    375   1    110.7000    313.8000
    349    350    376   1    110.7000    313.8000
    351    350    375   1    110.7000    313.8000
    351    350    376   1    110.7000    313.8000
    375    350    376   1    107.8000    276.1440
    350    351    377   1    110.7000    313.8000
    350    351    378   1    110.7000    313.8000
    350    351    379   1    110.7000    313.8000
    377    351    378   1    107.8000    276.1440
    377    351    379   1    107.8000    276.1440
    378    351    379   1    107.8000    276.1440
    339    380    381   1    112.7000    488.2728
    339    380    394   1    110.7000    313.8000
    339    380    395   1    110.7000    313.8000
    381    380    394   1    110.7000    313.8000
    381    380    395   1    110.7000    313.8000
    394    380    395   1    107.8000    276.1440
    380    381    382   1    112.7000    488.2728
    380    381    396   1    110.7000    313.8000
    380    381    422   1    112.7000    488.2728
    382    381    396   1    110.7000    313.8000
    382    381    422   1    112.7000    488.2728
    396    381    422   1    110.7000    313.8000
    381    382    383   1    112.7000    488.2728
    381    382    397   1    110.7000    313.8000
    381    382    398   1    110.7000    313.8000
    383    382    397   1    110.7000    313.8000
    383    382    398   1    110.7000    313.8000
    397    382    398   1    107.8000    276.1440
    382    383    384   1    112.7000    488.2728
    382    383    399   1    110.7000    313.8000
    382    383    400   1    110.7000    313.8000
    384    383    399   1    110.7000    313.8000
    384    383    400   1    110.7000    313.8000
    399    383    400   1    107.8000    276.1440
    383    384    385   1    112.7000    488.2728
    383    384    401   1    110.7000    313.8000
    383    384    402   1    110.7000    313.8000
    385    384    401   1    110.7000    313.8000
    385    384    402   1    110.7000    313.8000
    401    384    402   1    107.8000    276.1440
    384    385    386   1    112.7000    488.2728
    384    385    403   1    110.7000    313.8000
    384    385    404   1    110.7000    313.8000
    386    385    403   1    110.7000    313.8000
    386    385    404   1    110.7000    313.8000
    403    385    404   1    107.8000    276.1440
    385    386    387   1    112.7000    488.2728
    385    386    405   1    110.7000    313.8000
    385    386    406   1    110.7000    313.8000
    387    386    405   1    110.7000    313.8000
    387    386    406   1    110.7000    313.8000
    405    386    406   1    107.8000    276.1440
    386    387    388   1    112.7000    488.2728
    386    387    407   1    110.7000    313.8000
    386    387    408   1    110.7000    313.8000
    388    387    407   1    110.7000    313.8000
    388    387    408   1    110.7000    313.8000
    407    387    408   1    107.8000    276.1440
    387    388    389   1    112.7000    488.2728
    387    388    409   1    110.7000    313.8000
    387    388    410   1    110.7000    313.8000
    389    388    409   1    110.7000    313.8000
    389    388    410   1    110.7000    313.8000
    409    388    410   1    107.8000    276.1440
    388    389    390   1    112.7000    488.2728
    388    389    411   1    110.7000    313.8000
    388    389    412   1    110.7000    313.8000
    390    389    411   1    110.7000    313.8000
    390    389    412   1    110.7000    313.8000
    411    389    412   1    107.8000    276.1440
    389    390    391   1    112.7000    488.2728
    389    390    413   1    110.7000    313.8000
    389    390    414   1    110.7000    313.8000
    391    390    413   1    110.7000    313.8000
    391    390    414   1    110.7000    313.8000
    413    390    414   1    107.8000    276.1440
    390    391    392   1    112.7000    488.2728
    390    391    415   1    110.7000    313.8000
    390    391    416   1    110.7000    313.8000
    392    391    415   1    110.7000    313.8000
    392    391    416   1    110.7000    313.8000
    415    391    416   1    107.8000    276.1440
    391    392    393   1    112.7000    488.2728
    391    392    417   1    110.7000    313.8000
    391    392    418   1    110.7000    313.8000
    393    392    417   1    110.7000    313.8000
    393    392    418   1    110.7000    313.8000
    417    392    418   1    107.8000    276.1440
    392    393    419   1    110.7000    313.8000
    392    393    420   1    110.7000    313.8000
    392    393    421   1    110.7000    313.8000
    419    393    420   1    107.8000    276.1440
    419    393    421   1    107.8000    276.1440
    420    393    421   1    107.8000    276.1440
    381    422    423   1    112.7000    488.2728
    381    422    436   1    110.7000    313.8000
    381    422    437   1    110.7000    313.8000
    423    422    436   1    110.7000    313.8000
    423    422    437   1    110.7000    313.8000
    436    422    437   1    107.8000    276.1440
    422    423    424   1    112.7000    488.2728
    422    423    438   1    110.7000    313.8000
    422    423    464   1    112.7000    488.2728
    424    423    438   1    110.7000    313.8000
    424    423    464   1    112.7000    488.2728
    438    423    464   1    110.7000    313.8000
    423    424    425   1    112.7000    488.2728
    423    424    439   1    110.7000    313.8000
    423    424    440   1    110.7000    313.8000
    425    424    439   1    110.7000    313.8000
    425    424    440   1    110.7000    313.8000
    439    424    440   1    107.8000    276.1440
    424    425    426   1    112.7000    488.2728
    424    425    441   1    110.7000    313.8000
    424    425    442   1    110.7000    313.8000
    426    425    441   1    110.7000    313.8000
    426    425    442   1    110.7000    313.8000
    441    425    442   1    107.8000    276.1440
    425    426    427   1    112.7000    488.2728
    425    426    443   1    110.7000    313.8000
    425    426    444   1    110.7000    313.8000
    427    426    443   1    110.7000    313.8000
    427    426    444   1    110.7000    313.8000
    443    426    444   1    107.8000    276.1440
    426    427    428   1    112.7000    488.2728
    426    427    445   1    110.7000    313.8000
    426    427    446   1    110.7000    313.8000
    428    427    445   1    110.7000    313.8000
    428    427    446   1    110.7000    313.8000
    445    427    446   1    107.8000    276.1440
    427    428    429   1    112.7000    488.2728
    427    428    447   1    110.7000    313.8000
    427    428    448   1    110.7000    313.8000
    429    428    447   1    110.7000    313.8000
    429    428    448   1    110.7000    313.8000
    447    428    448   1    107.8000    276.1440
    428    429    430   1    112.7000    488.2728
    428    429    449   1    110.7000    313.8000
    428    429    450   1    110.7000    313.8000
    430    429    449   1    110.7000    313.8000
    430    429    450   1    110.7000    313.8000
    449    429    450   1    107.8000    276.1440
    429    430    431   1    112.7000    488.2728
    429    430    451   1    110.7000    313.8000
    429    430    452   1    110.7000    313.8000
    431    430    451   1    110.7000    313.8000
    431    430    452   1    110.7000    313.8000
    451    430    452   1    107.8000    276.1440
    430    431    432   1    112.7000    488.2728
    430    431    453   1    110.7000    313.8000
    430    431    454   1    110.7000    313.8000
    432    431    453   1    110.7000    313.8000
    432    431    454   1    110.7000    313.8000
    453    431    454   1    107.8000    276.1440
    431    432    433   1    112.7000    488.2728
    431    432    455   1    110.7000    313.8000
    431    432    456   1    110.7000    313.8000
    433    432    455   1    110.7000    313.8000
    433    432    456   1    110.7000    313.8000
    455    432    456   1    107.8000    276.1440
    432    433    434   1    112.7000    488.2728
    432    433    457   1    110.7000    313.8000
    432    433    458   1    110.7000    313.8000
    434    433    457   1    110.7000    313.8000
    434    433    458   1    110.7000    313.8000
    457    433    458   1    107.8000    276.1440
    433    434    435   1    112.7000    488.2728
    433    434    459   1    110.7000    313.8000
    433    434    460   1    110.7000    313.8000
    435    434    459   1    110.7000    313.8000
    435    434    460   1    110.7000    313.8000
    459    434    460   1    107.8000    276.1440
    434    435    461   1    110.7000    313.8000
    434    435    462   1    110.7000    313.8000
    434    435    463   1    110.7000    313.8000
    461    435    462   1    107.8000    276.1440
    461    435    463   1    107.8000    276.1440
    462    435    463   1    107.8000    276.1440
    423    464    465   1    112.7000    488.2728
    423    464    478   1    110.7000    313.8000
    423    464    479   1    110.7000    313.8000
    465    464    478   1    110.7000    313.8000
    465    464    479   1    110.7000    313.8000
    478    464    479   1    107.8000    276.1440
    464    465    466   1    112.7000    488.2728
    464    465    480   1    110.7000    313.8000
    464    465    506   1    112.7000    488.2728
    466    465    480   1    110.7000    313.8000
    466    465    506   1    112.7000    488.2728
    480    465    506   1    110.7000    313.8000
    465    466    467   1    112.7000    488.2728
    465    466    481   1    110.7000    313.8000
    465    466    482   1    110.7000    313.8000
    467    466    481   1    110.7000    313.8000
    467    466    482   1    110.7000    313.8000
    481    466    482   1    107.8000    276.1440
    466    467    468   1    112.7000    488.2728
    466    467    483   1    110.7000    313.8000
    466    467    484   1    110.7000    313.8000
    468    467    483   1    110.7000    313.8000
    468    467    484   1    110.7000    313.8000
    483    467    484   1    107.8000    276.1440
    467    468    469   1    112.7000    488.2728
    467    468    485   1    110.7000    313.8000
    467    468    486   1    110.7000    313.8000
    469    468    485   1    110.7000    313.8000
    469    468    486   1    110.7000    313.8000
    485    468    486   1    107.8000    276.1440
    468    469    470   1    112.7000    488.2728
    468    469    487   1    110.7000    313.8000
    468    469    488   1    110.7000    313.8000
    470    469    487   1    110.7000    313.8000
    470    469    488   1    110.7000    313.8000
    487    469    488   1    107.8000    276.1440
    469    470    471   1    112.7000    488.2728
    469    470    489   1    110.7000    313.8000
    469    470    490   1    110.7000    313.8000
    471    470    489   1    110.7000    313.8000
    471    470    490   1    110.7000    313.8000
    489    470    490   1    107.8000    276.1440
    470    471    472   1    112.7000    488.2728
    470    471    491   1    110.7000    313.8000
    470    471    492   1    110.7000    313.8000
    472    471    491   1    110.7000    313.8000
    472    471    492   1    110.7000    313.8000
    491    471    492   1    107.8000    276.1440
    471    472    473   1    112.7000    488.2728
    471    472    493   1    110.7000    313.8000
    471    472    494   1    110.7000    313.8000
    473    472    493   1    110.7000    313.8000
    473    472    494   1    110.7000    313.8000
    493    472    494   1    107.8000    276.1440
    472    473    474   1    112.7000    488.2728
    472    473    495   1    110.7000    313.8000
    472    473    496   1    110.7000    313.8000
    474    473    495   1    110.7000    313.8000
    474    473    496   1    110.7000    313.8000
    495    473    496   1    107.8000    276.1440
    473    474    475   1    112.7000    488.2728
    473    474    497   1    110.7000    313.8000
    473    474    498   1    110.7000    313.8000
    475    474    497   1    110.7000    313.8000
    475    474    498   1    110.7000    313.8000
    497    474    498   1    107.8000    276.1440
    474    475    476   1    112.7000    488.2728
    474    475    499   1    110.7000    313.8000
    474    475    500   1    110.7000    313.8000
    476    475    499   1    110.7000    313.8000
    476    475    500   1    110.7000    313.8000
    499    475    500   1    107.8000    276.1440
    475    476    477   1    112.7000    488.2728
    475    476    501   1    110.7000    313.8000
    475    476    502   1    110.7000    313.8000
    477    476    501   1    110.7000    313.8000
    477    476    502   1    110.7000    313.8000
    501    476    502   1    107.8000    276.1440
    476    477    503   1    110.7000    313.8000
    476    477    504   1    110.7000    313.8000
    476    477    505   1    110.7000    313.8000
    503    477    504   1    107.8000    276.1440
    503    477    505   1    107.8000    276.1440
    504    477    505   1    107.8000    276.1440
    465    506    507   1    112.7000    488.2728
    465    506    520   1    110.7000    313.8000
    465    506    521   1    110.7000    313.8000
    507    506    520   1    110.7000    313.8000
    507    506    521   1    110.7000    313.8000
    520    506    521   1    107.8000    276.1440
    506    507    508   1    112.7000    488.2728
    506    507    522   1    110.7000    313.8000
    506    507    548   1    112.7000    488.2728
    508    507    522   1    110.7000    313.8000
    508    507    548   1    112.7000    488.2728
    522    507    548   1    110.7000    313.8000
    507    508    509   1    112.7000    488.2728
    507    508    523   1    110.7000    313.8000
    507    508    524   1    110.7000    313.8000
    509    508    523   1    110.7000    313.8000
    509    508    524   1    110.7000    313.8000
    523    508    524   1    107.8000    276.1440
    508    509    510   1    112.7000    488.2728
    508    509    525   1    110.7000    313.8000
    508    509    526   1    110.7000    313.8000
    510    509    525   1    110.7000    313.8000
    510    509    526   1    110.7000    313.8000
    525    509    526   1    107.8000    276.1440
    509    510    511   1    112.7000    488.2728
    509    510    527   1    110.7000    313.8000
    509    510    528   1    110.7000    313.8000
    511    510    527   1    110.7000    313.8000
    511    510    528   1    110.7000    313.8000
    527    510    528   1    107.8000    276.1440
    510    511    512   1    112.7000    488.2728
    510    511    529   1    110.7000    313.8000
    510    511    530   1    110.7000    313.8000
    512    511    529   1    110.7000    313.8000
    512    511    530   1    110.7000    313.8000
    529    511    530   1    107.8000    276.1440
    511    512    513   1    112.7000    488.2728
    511    512    531   1    110.7000    313.8000
    511    512    532   1    110.7000    313.8000
    513    512    531   1    110.7000    313.8000
    513    512    532   1    110.7000    313.8000
    531    512    532   1    107.8000    276.1440
    512    513    514   1    112.7000    488.2728
    512    513    533   1    110.7000    313.8000
    512    513    534   1    110.7000    313.8000
    514    513    533   1    110.7000    313.8000
    514    513    534   1    110.7000    313.8000
    533    513    534   1    107.8000    276.1440
    513    514    515   1    112.7000    488.2728
    513    514    535   1    110.7000    313.8000
    513    514    536   1    110.7000    313.8000
    515    514    535   1    110.7000    313.8000
    515    514    536   1    110.7000    313.8000
    535    514    536   1    107.8000    276.1440
    514    515    516   1    112.7000    488.2728
    514    515    537   1    110.7000    313.8000
    514    515    538   1    110.7000    313.8000
    516    515    537   1    110.7000    313.8000
    516    515    538   1    110.7000    313.8000
    537    515    538   1    107.8000    276.1440
    515    516    517   1    112.7000    488.2728
    515    516    539   1    110.7000    313.8000
    515    516    540   1    110.7000    313.8000
    517    516    539   1    110.7000    313.8000
    517    516    540   1    110.7000    313.8000
    539    516    540   1    107.8000    276.1440
    516    517    518   1    112.7000    488.2728
    516    517    541   1    110.7000    313.8000
    516    517    542   1    110.7000    313.8000
    518    517    541   1    110.7000    313.8000
    518    517    542   1    110.7000    313.8000
    541    517    542   1    107.8000    276.1440
    517    518    519   1    112.7000    488.2728
    517    518    543   1    110.7000    313.8000
    517    518    544   1    110.7000    313.8000
    519    518    543   1    110.7000    313.8000
    519    518    544   1    110.7000    313.8000
    543    518    544   1    107.8000    276.1440
    518    519    545   1    110.7000    313.8000
    518    519    546   1    110.7000    313.8000
    518    519    547   1    110.7000    313.8000
    545    519    546   1    107.8000    276.1440
    545    519    547   1    107.8000    276.1440
    546    519    547   1    107.8000    276.1440
    507    548    549   1    112.7000    488.2728
    507    548    562   1    110.7000    313.8000
    507    548    563   1    110.7000    313.8000
    549    548    562   1    110.7000    313.8000
    549    548    563   1    110.7000    313.8000
    562    548    563   1    107.8000    276.1440
    548    549    550   1    112.7000    488.2728
    548    549    564   1    110.7000    313.8000
    548    549    590   1    112.7000    488.2728
    550    549    564   1    110.7000    313.8000
    550    549    590   1    112.7000    488.2728
    564    549    590   1    110.7000    313.8000
    549    550    551   1    112.7000    488.2728
    549    550    565   1    110.7000    313.8000
    549    550    566   1    110.7000    313.8000
    551    550    565   1    110.7000    313.8000
    551    550    566   1    110.7000    313.8000
    565    550    566   1    107.8000    276.1440
    550    551    552   1    112.7000    488.2728
    550    551    567   1    110.7000    313.8000
    550    551    568   1    110.7000    313.8000
    552    551    567   1    110.7000    313.8000
    552    551    568   1    110.7000    313.8000
    567    551    568   1    107.8000    276.1440
    551    552    553   1    112.7000    488.2728
    551    552    569   1    110.7000    313.8000
    551    552    570   1    110.7000    313.8000
    553    552    569   1    110.7000    313.8000
    553    552    570   1    110.7000    313.8000
    569    552    570   1    107.8000    276.1440
    552    553    554   1    112.7000    488.2728
    552    553    571   1    110.7000    313.8000
    552    553    572   1    110.7000    313.8000
    554    553    571   1    110.7000    313.8000
    554    553    572   1    110.7000    313.8000
    571    553    572   1    107.8000    276.1440
    553    554    555   1    112.7000    488.2728
    553    554    573   1    110.7000    313.8000
    553    554    574   1    110.7000    313.8000
    555    554    573   1    110.7000    313.8000
    555    554    574   1    110.7000    313.8000
    573    554    574   1    107.8000    276.1440
    554    555    556   1    112.7000    488.2728
    554    555    575   1    110.7000    313.8000
    554    555    576   1    110.7000    313.8000
    556    555    575   1    110.7000    313.8000
    556    555    576   1    110.7000    313.8000
    575    555    576   1    107.8000    276.1440
    555    556    557   1    112.7000    488.2728
    555    556    577   1    110.7000    313.8000
    555    556    578   1    110.7000    313.8000
    557    556    577   1    110.7000    313.8000
    557    556    578   1    110.7000    313.8000
    577    556    578   1    107.8000    276.1440
    556    557    558   1    112.7000    488.2728
    556    557    579   1    110.7000    313.8000
    556    557    580   1    110.7000    313.8000
    558    557    579   1    110.7000    313.8000
    558    557    580   1    110.7000    313.8000
    579    557    580   1    107.8000    276.1440
    557    558    559   1    112.7000    488.2728
    557    558    581   1    110.7000    313.8000
    557    558    582   1    110.7000    313.8000
    559    558    581   1    110.7000    313.8000
    559    558    582   1    110.7000    313.8000
    581    558    582   1    107.8000    276.1440
    558    559    560   1    112.7000    488.2728
    558    559    583   1    110.7000    313.8000
    558    559    584   1    110.7000    313.8000
    560    559    583   1    110.7000    313.8000
    560    559    584   1    110.7000    313.8000
    583    559    584   1    107.8000    276.1440
    559    560    561   1    112.7000    488.2728
    559    560    585   1    110.7000    313.8000
    559    560    586   1    110.7000    313.8000
    561    560    585   1    110.7000    313.8000
    561    560    586   1    110.7000    313.8000
    585    560    586   1    107.8000    276.1440
    560    561    587   1    110.7000    313.8000
    560    561    588   1    110.7000    313.8000
    560    561    589   1    110.7000    313.8000
    587    561    588   1    107.8000    276.1440
    587    561    589   1    107.8000    276.1440
    588    561    589   1    107.8000    276.1440
    549    590    591   1    112.7000    488.2728
    549    590    604   1    110.7000    313.8000
    549    590    605   1    110.7000    313.8000
    591    590    604   1    110.7000    313.8000
    591    590    605   1    110.7000    313.8000
    604    590    605   1    107.8000    276.1440
    590    591    592   1    112.7000    488.2728
    590    591    606   1    110.7000    313.8000
    590    591    632   1    112.7000    488.2728
    592    591    606   1    110.7000    313.8000
    592    591    632   1    112.7000    488.2728
    606    591    632   1    110.7000    313.8000
    591    592    593   1    112.7000    488.2728
    591    592    607   1    110.7000    313.8000
    591    592    608   1    110.7000    313.8000
    593    592    607   1    110.7000    313.8000
    593    592    608   1    110.7000    313.8000
    607    592    608   1    107.8000    276.1440
    592    593    594   1    112.7000    488.2728
    592    593    609   1    110.7000    313.8000
    592    593    610   1    110.7000    313.8000
    594    593    609   1    110.7000    313.8000
    594    593    610   1    110.7000    313.8000
    609    593    610   1    107.8000    276.1440
    593    594    595   1    112.7000    488.2728
    593    594    611   1    110.7000    313.8000
    593    594    612   1    110.7000    313.8000
    595    594    611   1    110.7000    313.8000
    595    594    612   1    110.7000    313.8000
    611    594    612   1    107.8000    276.1440
    594    595    596   1    112.7000    488.2728
    594    595    613   1    110.7000    313.8000
    594    595    614   1    110.7000    313.8000
    596    595    613   1    110.7000    313.8000
    596    595    614   1    110.7000    313.8000
    613    595    614   1    107.8000    276.1440
    595    596    597   1    112.7000    488.2728
    595    596    615   1    110.7000    313.8000
    595    596    616   1    110.7000    313.8000
    597    596    615   1    110.7000    313.8000
    597    596    616   1    110.7000    313.8000
    615    596    616   1    107.8000    276.1440
    596    597    598   1    112.7000    488.2728
    596    597    617   1    110.7000    313.8000
    596    597    618   1    110.7000    313.8000
    598    597    617   1    110.7000    313.8000
    598    597    618   1    110.7000    313.8000
    617    597    618   1    107.8000    276.1440
    597    598    599   1    112.7000    488.2728
    597    598    619   1    110.7000    313.8000
    597    598    620   1    110.7000    313.8000
    599    598    619   1    110.7000    313.8000
    599    598    620   1    110.7000    313.8000
    619    598    620   1    107.8000    276.1440
    598    599    600   1    112.7000    488.2728
    598    599    621   1    110.7000    313.8000
    598    599    622   1    110.7000    313.8000
    600    599    621   1    110.7000    313.8000
    600    599    622   1    110.7000    313.8000
    621    599    622   1    107.8000    276.1440
    599    600    601   1    112.7000    488.2728
    599    600    623   1    110.7000    313.8000
    599    600    624   1    110.7000    313.8000
    601    600    623   1    110.7000    313.8000
    601    600    624   1    110.7000    313.8000
    623    600    624   1    107.8000    276.1440
    600    601    602   1    112.7000    488.2728
    600    601    625   1    110.7000    313.8000
    600    601    626   1    110.7000    313.8000
    602    601    625   1    110.7000    313.8000
    602    601    626   1    110.7000    313.8000
    625    601    626   1    107.8000    276.1440
    601    602    603   1    112.7000    488.2728
    601    602    627   1    110.7000    313.8000
    601    602    628   1    110.7000    313.8000
    603    602    627   1    110.7000    313.8000
    603    602    628   1    110.7000    313.8000
    627    602    628   1    107.8000    276.1440
    602    603    629   1    110.7000    313.8000
    602    603    630   1    110.7000    313.8000
    602    603    631   1    110.7000    313.8000
    629    603    630   1    107.8000    276.1440
    629    603    631   1    107.8000    276.1440
    630    603    631   1    107.8000    276.1440
    591    632    633   1    112.7000    488.2728
    591    632    646   1    110.7000    313.8000
    591    632    647   1    110.7000    313.8000
    633    632    646   1    110.7000    313.8000
    633    632    647   1    110.7000    313.8000
    646    632    647   1    107.8000    276.1440
    632    633    634   1    112.7000    488.2728
    632    633    648   1    110.7000    313.8000
    632    633    674   1    112.7000    488.2728
    634    633    648   1    110.7000    313.8000
    634    633    674   1    112.7000    488.2728
    648    633    674   1    110.7000    313.8000
    633    634    635   1    112.7000    488.2728
    633    634    649   1    110.7000    313.8000
    633    634    650   1    110.7000    313.8000
    635    634    649   1    110.7000    313.8000
    635    634    650   1    110.7000    313.8000
    649    634    650   1    107.8000    276.1440
    634    635    636   1    112.7000    488.2728
    634    635    651   1    110.7000    313.8000
    634    635    652   1    110.7000    313.8000
    636    635    651   1    110.7000    313.8000
    636    635    652   1    110.7000    313.8000
    651    635    652   1    107.8000    276.1440
    635    636    637   1    112.7000    488.2728
    635    636    653   1    110.7000    313.8000
    635    636    654   1    110.7000    313.8000
    637    636    653   1    110.7000    313.8000
    637    636    654   1    110.7000    313.8000
    653    636    654   1    107.8000    276.1440
    636    637    638   1    112.7000    488.2728
    636    637    655   1    110.7000    313.8000
    636    637    656   1    110.7000    313.8000
    638    637    655   1    110.7000    313.8000
    638    637    656   1    110.7000    313.8000
    655    637    656   1    107.8000    276.1440
    637    638    639   1    112.7000    488.2728
    637    638    657   1    110.7000    313.8000
    637    638    658   1    110.7000    313.8000
    639    638    657   1    110.7000    313.8000
    639    638    658   1    110.7000    313.8000
    657    638    658   1    107.8000    276.1440
    638    639    640   1    112.7000    488.2728
    638    639    659   1    110.7000    313.8000
    638    639    660   1    110.7000    313.8000
    640    639    659   1    110.7000    313.8000
    640    639    660   1    110.7000    313.8000
    659    639    660   1    107.8000    276.1440
    639    640    641   1    112.7000    488.2728
    639    640    661   1    110.7000    313.8000
    639    640    662   1    110.7000    313.8000
    641    640    661   1    110.7000    313.8000
    641    640    662   1    110.7000    313.8000
    661    640    662   1    107.8000    276.1440
    640    641    642   1    112.7000    488.2728
    640    641    663   1    110.7000    313.8000
    640    641    664   1    110.7000    313.8000
    642    641    663   1    110.7000    313.8000
    642    641    664   1    110.7000    313.8000
    663    641    664   1    107.8000    276.1440
    641    642    643   1    112.7000    488.2728
    641    642    665   1    110.7000    313.8000
    641    642    666   1    110.7000    313.8000
    643    642    665   1    110.7000    313.8000
    643    642    666   1    110.7000    313.8000
    665    642    666   1    107.8000    276.1440
    642    643    644   1    112.7000    488.2728
    642    643    667   1    110.7000    313.8000
    642    643    668   1    110.7000    313.8000
    644    643    667   1    110.7000    313.8000
    644    643    668   1    110.7000    313.8000
    667    643    668   1    107.8000    276.1440
    643    644    645   1    112.7000    488.2728
    643    644    669   1    110.7000    313.8000
    643    644    670   1    110.7000    313.8000
    645    644    669   1    110.7000    313.8000
    645    644    670   1    110.7000    313.8000
    669    644    670   1    107.8000    276.1440
    644    645    671   1    110.7000    313.8000
    644    645    672   1    110.7000    313.8000
    644    645    673   1    110.7000    313.8000
    671    645    672   1    107.8000    276.1440
    671    645    673   1    107.8000    276.1440
    672    645    673   1    107.8000    276.1440
    633    674    675   1    112.7000    488.2728
    633    674    688   1    110.7000    313.8000
    633    674    689   1    110.7000    313.8000
    675    674    688   1    110.7000    313.8000
    675    674    689   1    110.7000    313.8000
    688    674    689   1    107.8000    276.1440
    674    675    676   1    112.7000    488.2728
    674    675    690   1    110.7000    313.8000
    674    675    716   1    112.7000    488.2728
    676    675    690   1    110.7000    313.8000
    676    675    716   1    112.7000    488.2728
    690    675    716   1    110.7000    313.8000
    675    676    677   1    112.7000    488.2728
    675    676    691   1    110.7000    313.8000
    675    676    692   1    110.7000    313.8000
    677    676    691   1    110.7000    313.8000
    677    676    692   1    110.7000    313.8000
    691    676    692   1    107.8000    276.1440
    676    677    678   1    112.7000    488.2728
    676    677    693   1    110.7000    313.8000
    676    677    694   1    110.7000    313.8000
    678    677    693   1    110.7000    313.8000
    678    677    694   1    110.7000    313.8000
    693    677    694   1    107.8000    276.1440
    677    678    679   1    112.7000    488.2728
    677    678    695   1    110.7000    313.8000
    677    678    696   1    110.7000    313.8000
    679    678    695   1    110.7000    313.8000
    679    678    696   1    110.7000    313.8000
    695    678    696   1    107.8000    276.1440
    678    679    680   1    112.7000    488.2728
    678    679    697   1    110.7000    313.8000
    678    679    698   1    110.7000    313.8000
    680    679    697   1    110.7000    313.8000
    680    679    698   1    110.7000    313.8000
    697    679    698   1    107.8000    276.1440
    679    680    681   1    112.7000    488.2728
    679    680    699   1    110.7000    313.8000
    679    680    700   1    110.7000    313.8000
    681    680    699   1    110.7000    313.8000
    681    680    700   1    110.7000    313.8000
    699    680    700   1    107.8000    276.1440
    680    681    682   1    112.7000    488.2728
    680    681    701   1    110.7000    313.8000
    680    681    702   1    110.7000    313.8000
    682    681    701   1    110.7000    313.8000
    682    681    702   1    110.7000    313.8000
    701    681    702   1    107.8000    276.1440
    681    682    683   1    112.7000    488.2728
    681    682    703   1    110.7000    313.8000
    681    682    704   1    110.7000    313.8000
    683    682    703   1    110.7000    313.8000
    683    682    704   1    110.7000    313.8000
    703    682    704   1    107.8000    276.1440
    682    683    684   1    112.7000    488.2728
    682    683    705   1    110.7000    313.8000
    682    683    706   1    110.7000    313.8000
    684    683    705   1    110.7000    313.8000
    684    683    706   1    110.7000    313.8000
    705    683    706   1    107.8000    276.1440
    683    684    685   1    112.7000    488.2728
    683    684    707   1    110.7000    313.8000
    683    684    708   1    110.7000    313.8000
    685    684    707   1    110.7000    313.8000
    685    684    708   1    110.7000    313.8000
    707    684    708   1    107.8000    276.1440
    684    685    686   1    112.7000    488.2728
    684    685    709   1    110.7000    313.8000
    684    685    710   1    110.7000    313.8000
    686    685    709   1    110.7000    313.8000
    686    685    710   1    110.7000    313.8000
    709    685    710   1    107.8000    276.1440
    685    686    687   1    112.7000    488.2728
    685    686    711   1    110.7000    313.8000
    685    686    712   1    110.7000    313.8000
    687    686    711   1    110.7000    313.8000
    687    686    712   1    110.7000    313.8000
    711    686    712   1    107.8000    276.1440
    686    687    713   1    110.7000    313.8000
    686    687    714   1    110.7000    313.8000
    686    687    715   1    110.7000    313.8000
    713    687    714   1    107.8000    276.1440
    713    687    715   1    107.8000    276.1440
    714    687    715   1    107.8000    276.1440
    675    716    717   1    112.7000    488.2728
    675    716    730   1    110.7000    313.8000
    675    716    731   1    110.7000    313.8000
    717    716    730   1    110.7000    313.8000
    717    716    731   1    110.7000    313.8000
    730    716    731   1    107.8000    276.1440
    716    717    718   1    112.7000    488.2728
    716    717    732   1    110.7000    313.8000
    716    717    758   1    112.7000    488.2728
    718    717    732   1    110.7000    313.8000
    718    717    758   1    112.7000    488.2728
    732    717    758   1    110.7000    313.8000
    717    718    719   1    112.7000    488.2728
    717    718    733   1    110.7000    313.8000
    717    718    734   1    110.7000    313.8000
    719    718    733   1    110.7000    313.8000
    719    718    734   1    110.7000    313.8000
    733    718    734   1    107.8000    276.1440
    718    719    720   1    112.7000    488.2728
    718    719    735   1    110.7000    313.8000
    718    719    736   1    110.7000    313.8000
    720    719    735   1    110.7000    313.8000
    720    719    736   1    110.7000    313.8000
    735    719    736   1    107.8000    276.1440
    719    720    721   1    112.7000    488.2728
    719    720    737   1    110.7000    313.8000
    719    720    738   1    110.7000    313.8000
    721    720    737   1    110.7000    313.8000
    721    720    738   1    110.7000    313.8000
    737    720    738   1    107.8000    276.1440
    720    721    722   1    112.7000    488.2728
    720    721    739   1    110.7000    313.8000
    720    721    740   1    110.7000    313.8000
    722    721    739   1    110.7000    313.8000
    722    721    740   1    110.7000    313.8000
    739    721    740   1    107.8000    276.1440
    721    722    723   1    112.7000    488.2728
    721    722    741   1    110.7000    313.8000
    721    722    742   1    110.7000    313.8000
    723    722    741   1    110.7000    313.8000
    723    722    742   1    110.7000    313.8000
    741    722    742   1    107.8000    276.1440
    722    723    724   1    112.7000    488.2728
    722    723    743   1    110.7000    313.8000
    722    723    744   1    110.7000    313.8000
    724    723    743   1    110.7000    313.8000
    724    723    744   1    110.7000    313.8000
    743    723    744   1    107.8000    276.1440
    723    724    725   1    112.7000    488.2728
    723    724    745   1    110.7000    313.8000
    723    724    746   1    110.7000    313.8000
    725    724    745   1    110.7000    313.8000
    725    724    746   1    110.7000    313.8000
    745    724    746   1    107.8000    276.1440
    724    725    726   1    112.7000    488.2728
    724    725    747   1    110.7000    313.8000
    724    725    748   1    110.7000    313.8000
    726    725    747   1    110.7000    313.8000
    726    725    748   1    110.7000    313.8000
    747    725    748   1    107.8000    276.1440
    725    726    727   1    112.7000    488.2728
    725    726    749   1    110.7000    313.8000
    725    726    750   1    110.7000    313.8000
    727    726    749   1    110.7000    313.8000
    727    726    750   1    110.7000    313.8000
    749    726    750   1    107.8000    276.1440
    726    727    728   1    112.7000    488.2728
    726    727    751   1    110.7000    313.8000
    726    727    752   1    110.7000    313.8000
    728    727    751   1    110.7000    313.8000
    728    727    752   1    110.7000    313.8000
    751    727    752   1    107.8000    276.1440
    727    728    729   1    112.7000    488.2728
    727    728    753   1    110.7000    313.8000
    727    728    754   1    110.7000    313.8000
    729    728    753   1    110.7000    313.8000
    729    728    754   1    110.7000    313.8000
    753    728    754   1    107.8000    276.1440
    728    729    755   1    110.7000    313.8000
    728    729    756   1    110.7000    313.8000
    728    729    757   1    110.7000    313.8000
    755    729    756   1    107.8000    276.1440
    755    729    757   1    107.8000    276.1440
    756    729    757   1    107.8000    276.1440
    717    758    759   1    112.7000    488.2728
    717    758    772   1    110.7000    313.8000
    717    758    773   1    110.7000    313.8000
    759    758    772   1    110.7000    313.8000
    759    758    773   1    110.7000    313.8000
    772    758    773   1    107.8000    276.1440
    758    759    760   1    112.7000    488.2728
    758    759    774   1    110.7000    313.8000
    758    759    800   1    112.7000    488.2728
    760    759    774   1    110.7000    313.8000
    760    759    800   1    112.7000    488.2728
    774    759    800   1    110.7000    313.8000
    759    760    761   1    112.7000    488.2728
    759    760    775   1    110.7000    313.8000
    759    760    776   1    110.7000    313.8000
    761    760    775   1    110.7000    313.8000
    761    760    776   1    110.7000    313.8000
    775    760    776   1    107.8000    276.1440
    760    761    762   1    112.7000    488.2728
    760    761    777   1    110.7000    313.8000
    760    761    778   1    110.7000    313.8000
    762    761    777   1    110.7000    313.8000
    762    761    778   1    110.7000    313.8000
    777    761    778   1    107.8000    276.1440
    761    762    763   1    112.7000    488.2728
    761    762    779   1    110.7000    313.8000
    761    762    780   1    110.7000    313.8000
    763    762    779   1    110.7000    313.8000
    763    762    780   1    110.7000    313.8000
    779    762    780   1    107.8000    276.1440
    762    763    764   1    112.7000    488.2728
    762    763    781   1    110.7000    313.8000
    762    763    782   1    110.7000    313.8000
    764    763    781   1    110.7000    313.8000
    764    763    782   1    110.7000    313.8000
    781    763    782   1    107.8000    276.1440
    763    764    765   1    112.7000    488.2728
    763    764    783   1    110.7000    313.8000
    763    764    784   1    110.7000    313.8000
    765    764    783   1    110.7000    313.8000
    765    764    784   1    110.7000    313.8000
    783    764    784   1    107.8000    276.1440
    764    765    766   1    112.7000    488.2728
    764    765    785   1    110.7000    313.8000
    764    765    786   1    110.7000    313.8000
    766    765    785   1    110.7000    313.8000
    766    765    786   1    110.7000    313.8000
    785    765    786   1    107.8000    276.1440
    765    766    767   1    112.7000    488.2728
    765    766    787   1    110.7000    313.8000
    765    766    788   1    110.7000    313.8000
    767    766    787   1    110.7000    313.8000
    767    766    788   1    110.7000    313.8000
    787    766    788   1    107.8000    276.1440
    766    767    768   1    112.7000    488.2728
    766    767    789   1    110.7000    313.8000
    766    767    790   1    110.7000    313.8000
    768    767    789   1    110.7000    313.8000
    768    767    790   1    110.7000    313.8000
    789    767    790   1    107.8000    276.1440
    767    768    769   1    112.7000    488.2728
    767    768    791   1    110.7000    313.8000
    767    768    792   1    110.7000    313.8000
    769    768    791   1    110.7000    313.8000
    769    768    792   1    110.7000    313.8000
    791    768    792   1    107.8000    276.1440
    768    769    770   1    112.7000    488.2728
    768    769    793   1    110.7000    313.8000
    768    769    794   1    110.7000    313.8000
    770    769    793   1    110.7000    313.8000
    770    769    794   1    110.7000    313.8000
    793    769    794   1    107.8000    276.1440
    769    770    771   1    112.7000    488.2728
    769    770    795   1    110.7000    313.8000
    769    770    796   1    110.7000    313.8000
    771    770    795   1    110.7000    313.8000
    771    770    796   1    110.7000    313.8000
    795    770    796   1    107.8000    276.1440
    770    771    797   1    110.7000    313.8000
    770    771    798   1    110.7000    313.8000
    770    771    799   1    110.7000    313.8000
    797    771    798   1    107.8000    276.1440
    797    771    799   1    107.8000    276.1440
    798    771    799   1    107.8000    276.1440
    759    800    801   1    112.7000    488.2728
    759    800    814   1    110.7000    313.8000
    759    800    815   1    110.7000    313.8000
    801    800    814   1    110.7000    313.8000
    801    800    815   1    110.7000    313.8000
    814    800    815   1    107.8000    276.1440
    800    801    802   1    112.7000    488.2728
    800    801    816   1    110.7000    313.8000
    800    801    842   1    110.7000    313.8000
    802    801    816   1    110.7000    313.8000
    802    801    842   1    110.7000    313.8000
    816    801    842   1    107.8000    276.1440
    801    802    803   1    112.7000    488.2728
    801    802    817   1    110.7000    313.8000
    801    802    818   1    110.7000    313.8000
    803    802    817   1    110.7000    313.8000
    803    802    818   1    110.7000    313.8000
    817    802    818   1    107.8000    276.1440
    802    803    804   1    112.7000    488.2728
    802    803    819   1    110.7000    313.8000
    802    803    820   1    110.7000    313.8000
    804    803    819   1    110.7000    313.8000
    804    803    820   1    110.7000    313.8000
    819    803    820   1    107.8000    276.1440
    803    804    805   1    112.7000    488.2728
    803    804    821   1    110.7000    313.8000
    803    804    822   1    110.7000    313.8000
    805    804    821   1    110.7000    313.8000
    805    804    822   1    110.7000    313.8000
    821    804    822   1    107.8000    276.1440
    804    805    806   1    112.7000    488.2728
    804    805    823   1    110.7000    313.8000
    804    805    824   1    110.7000    313.8000
    806    805    823   1    110.7000    313.8000
    806    805    824   1    110.7000    313.8000
    823    805    824   1    107.8000    276.1440
    805    806    807   1    112.7000    488.2728
    805    806    825   1    110.7000    313.8000
    805    806    826   1    110.7000    313.8000
    807    806    825   1    110.7000    313.8000
    807    806    826   1    110.7000    313.8000
    825    806    826   1    107.8000    276.1440
    806    807    808   1    112.7000    488.2728
    806    807    827   1    110.7000    313.8000
    806    807    828   1    110.7000    313.8000
    808    807    827   1    110.7000    313.8000
    808    807    828   1    110.7000    313.8000
    827    807    828   1    107.8000    276.1440
    807    808    809   1    112.7000    488.2728
    807    808    829   1    110.7000    313.8000
    807    808    830   1    110.7000    313.8000
    809    808    829   1    110.7000    313.8000
    809    808    830   1    110.7000    313.8000
    829    808    830   1    107.8000    276.1440
    808    809    810   1    112.7000    488.2728
    808    809    831   1    110.7000    313.8000
    808    809    832   1    110.7000    313.8000
    810    809    831   1    110.7000    313.8000
    810    809    832   1    110.7000    313.8000
    831    809    832   1    107.8000    276.1440
    809    810    811   1    112.7000    488.2728
    809    810    833   1    110.7000    313.8000
    809    810    834   1    110.7000    313.8000
    811    810    833   1    110.7000    313.8000
    811    810    834   1    110.7000    313.8000
    833    810    834   1    107.8000    276.1440
    810    811    812   1    112.7000    488.2728
    810    811    835   1    110.7000    313.8000
    810    811    836   1    110.7000    313.8000
    812    811    835   1    110.7000    313.8000
    812    811    836   1    110.7000    313.8000
    835    811    836   1    107.8000    276.1440
    811    812    813   1    112.7000    488.2728
    811    812    837   1    110.7000    313.8000
    811    812    838   1    110.7000    313.8000
    813    812    837   1    110.7000    313.8000
    813    812    838   1    110.7000    313.8000
    837    812    838   1    107.8000    276.1440
    812    813    839   1    110.7000    313.8000
    812    813    840   1    110.7000    313.8000
    812    813    841   1    110.7000    313.8000
    839    813    840   1    107.8000    276.1440
    839    813    841   1    107.8000    276.1440
    840    813    841   1    107.8000    276.1440

[ dihedrals ]
; Proper dihedrals
     15      1      2      3   5     0.00000     0.00000     1.25520  0.0
     15      1      2     17   5     0.00000     0.00000     1.25520  0.0
     15      1      2     44   5     0.00000     0.00000     1.25520  0.0
     16      1      2      3   5     0.00000     0.00000     1.25520  0.0
     16      1      2     17   5     0.00000     0.00000     1.25520  0.0
     16      1      2     44   5     0.00000     0.00000     1.25520  0.0
     43      1      2      3   5     0.00000     0.00000     1.25520  0.0
     43      1      2     17   5     0.00000     0.00000     1.25520  0.0
     43      1      2     44   5     0.00000     0.00000     1.25520  0.0
      1      2      3      4   5     4.74884    -0.63178     1.67360  0.0
      1      2      3     18   5     0.00000     0.00000     1.25520  0.0
      1      2      3     19   5     0.00000     0.00000     1.25520  0.0
     17      2      3      4   5     0.00000     0.00000     1.25520  0.0
     17      2      3     18   5     0.00000     0.00000     1.25520  0.0
     17      2      3     19   5     0.00000     0.00000     1.25520  0.0
     44      2      3      4   5     4.74884    -0.63178     1.67360  0.0
     44      2      3     18   5     0.00000     0.00000     1.25520  0.0
     44      2      3     19   5     0.00000     0.00000     1.25520  0.0
      1      2     44     45   5     4.74884    -0.63178     1.67360  0.0
      1      2     44     58   5     0.00000     0.00000     1.25520  0.0
      1      2     44     59   5     0.00000     0.00000     1.25520  0.0
      3      2     44     45   5     4.74884    -0.63178     1.67360  0.0
      3      2     44     58   5     0.00000     0.00000     1.25520  0.0
      3      2     44     59   5     0.00000     0.00000     1.25520  0.0
     17      2     44     45   5     0.00000     0.00000     1.25520  0.0
     17      2     44     58   5     0.00000     0.00000     1.25520  0.0
     17      2     44     59   5     0.00000     0.00000     1.25520  0.0
      2      3      4      5   5     4.74884    -0.63178     1.67360  0.0
      2      3      4     20   5     0.00000     0.00000     1.25520  0.0
      2      3      4     21   5     0.00000     0.00000     1.25520  0.0
     18      3      4      5   5     0.00000     0.00000     1.25520  0.0
     18      3      4     20   5     0.00000     0.00000     1.25520  0.0
     18      3      4     21   5     0.00000     0.00000     1.25520  0.0
     19      3      4      5   5     0.00000     0.00000     1.25520  0.0
     19      3      4     20   5     0.00000     0.00000     1.25520  0.0
     19      3      4     21   5     0.00000     0.00000     1.25520  0.0
      3      4      5      6   5     4.74884    -0.63178     1.67360  0.0
      3      4      5     22   5     0.00000     0.00000     1.25520  0.0
      3      4      5     23   5     0.00000     0.00000     1.25520  0.0
     20      4      5      6   5     0.00000     0.00000     1.25520  0.0
     20      4      5     22   5     0.00000     0.00000     1.25520  0.0
     20      4      5     23   5     0.00000     0.00000     1.25520  0.0
     21      4      5      6   5     0.00000     0.00000     1.25520  0.0
     21      4      5     22   5     0.00000     0.00000     1.25520  0.0
     21      4      5     23   5     0.00000     0.00000     1.25520  0.0
      4      5      6      7   5     4.74884    -0.63178     1.67360  0.0
      4      5      6     24   5     0.00000     0.00000     1.25520  0.0
      4      5      6     25   5     0.00000     0.00000     1.25520  0.0
     22      5      6      7   5     0.00000     0.00000     1.25520  0.0
     22      5      6     24   5     0.00000     0.00000     1.25520  0.0
     22      5      6     25   5     0.00000     0.00000     1.25520  0.0
     23      5      6      7   5     0.00000     0.00000     1.25520  0.0
     23      5      6     24   5     0.00000     0.00000     1.25520  0.0
     23      5      6     25   5     0.00000     0.00000     1.25520  0.0
      5      6      7      8   5     4.74884    -0.63178     1.67360  0.0
      5      6      7     26   5     0.00000     0.00000     1.25520  0.0
      5      6      7     27   5     0.00000     0.00000     1.25520  0.0
     24      6      7      8   5     0.00000     0.00000     1.25520  0.0
     24      6      7     26   5     0.00000     0.00000     1.25520  0.0
     24      6      7     27   5     0.00000     0.00000     1.25520  0.0
     25      6      7      8   5     0.00000     0.00000     1.25520  0.0
     25      6      7     26   5     0.00000     0.00000     1.25520  0.0
     25      6      7     27   5     0.00000     0.00000     1.25520  0.0
      6      7      8      9   5     4.74884    -0.63178     1.67360  0.0
      6      7      8     28   5     0.00000     0.00000     1.25520  0.0
      6      7      8     29   5     0.00000     0.00000     1.25520  0.0
     26      7      8      9   5     0.00000     0.00000     1.25520  0.0
     26      7      8     28   5     0.00000     0.00000     1.25520  0.0
     26      7      8     29   5     0.00000     0.00000     1.25520  0.0
     27      7      8      9   5     0.00000     0.00000     1.25520  0.0
     27      7      8     28   5     0.00000     0.00000     1.25520  0.0
     27      7      8     29   5     0.00000     0.00000     1.25520  0.0
      7      8      9     10   5     4.74884    -0.63178     1.67360  0.0
      7      8      9     30   5     0.00000     0.00000     1.25520  0.0
      7      8      9     31   5     0.00000     0.00000     1.25520  0.0
     28      8      9     10   5     0.00000     0.00000     1.25520  0.0
     28      8      9     30   5     0.00000     0.00000     1.25520  0.0
     28      8      9     31   5     0.00000     0.00000     1.25520  0.0
     29      8      9     10   5     0.00000     0.00000     1.25520  0.0
     29      8      9     30   5     0.00000     0.00000     1.25520  0.0
     29      8      9     31   5     0.00000     0.00000     1.25520  0.0
      8      9     10     11   5     4.74884    -0.63178     1.67360  0.0
      8      9     10     32   5     0.00000     0.00000     1.25520  0.0
      8      9     10     33   5     0.00000     0.00000     1.25520  0.0
     30      9     10     11   5     0.00000     0.00000     1.25520  0.0
     30      9     10     32   5     0.00000     0.00000     1.25520  0.0
     30      9     10     33   5     0.00000     0.00000     1.25520  0.0
     31      9     10     11   5     0.00000     0.00000     1.25520  0.0
     31      9     10     32   5     0.00000     0.00000     1.25520  0.0
     31      9     10     33   5     0.00000     0.00000     1.25520  0.0
      9     10     11     12   5     4.74884    -0.63178     1.67360  0.0
      9     10     11     34   5     0.00000     0.00000     1.25520  0.0
      9     10     11     35   5     0.00000     0.00000     1.25520  0.0
     32     10     11     12   5     0.00000     0.00000     1.25520  0.0
     32     10     11     34   5     0.00000     0.00000     1.25520  0.0
     32     10     11     35   5     0.00000     0.00000     1.25520  0.0
     33     10     11     12   5     0.00000     0.00000     1.25520  0.0
     33     10     11     34   5     0.00000     0.00000     1.25520  0.0
     33     10     11     35   5     0.00000     0.00000     1.25520  0.0
     10     11     12     13   5     4.74884    -0.63178     1.67360  0.0
     10     11     12     36   5     0.00000     0.00000     1.25520  0.0
     10     11     12     37   5     0.00000     0.00000     1.25520  0.0
     34     11     12     13   5     0.00000     0.00000     1.25520  0.0
     34     11     12     36   5     0.00000     0.00000     1.25520  0.0
     34     11     12     37   5     0.00000     0.00000     1.25520  0.0
     35     11     12     13   5     0.00000     0.00000     1.25520  0.0
     35     11     12     36   5     0.00000     0.00000     1.25520  0.0
     35     11     12     37   5     0.00000     0.00000     1.25520  0.0
     11     12     13     14   5     4.74884    -0.63178     1.67360  0.0
     11     12     13     38   5     0.00000     0.00000     1.25520  0.0
     11     12     13     39   5     0.00000     0.00000     1.25520  0.0
     36     12     13     14   5     0.00000     0.00000     1.25520  0.0
     36     12     13     38   5     0.00000     0.00000     1.25520  0.0
     36     12     13     39   5     0.00000     0.00000     1.25520  0.0
     37     12     13     14   5     0.00000     0.00000     1.25520  0.0
     37     12     13     38   5     0.00000     0.00000     1.25520  0.0
     37     12     13     39   5     0.00000     0.00000     1.25520  0.0
     12     13     14     40   5     0.00000     0.00000     1.25520  0.0
     12     13     14     41   5     0.00000     0.00000     1.25520  0.0
     12     13     14     42   5     0.00000     0.00000     1.25520  0.0
     38     13     14     40   5     0.00000     0.00000     1.25520  0.0
     38     13     14     41   5     0.00000     0.00000     1.25520  0.0
     38     13     14     42   5     0.00000     0.00000     1.25520  0.0
     39     13     14     40   5     0.00000     0.00000     1.25520  0.0
     39     13     14     41   5     0.00000     0.00000     1.25520  0.0
     39     13     14     42   5     0.00000     0.00000     1.25520  0.0
      2     44     45     46   5     4.74884    -0.63178     1.67360  0.0
      2     44     45     60   5     0.00000     0.00000     1.25520  0.0
      2     44     45     86   5     4.74884    -0.63178     1.67360  0.0
     58     44     45     46   5     0.00000     0.00000     1.25520  0.0
     58     44     45     60   5     0.00000     0.00000     1.25520  0.0
     58     44     45     86   5     0.00000     0.00000     1.25520  0.0
     59     44     45     46   5     0.00000     0.00000     1.25520  0.0
     59     44     45     60   5     0.00000     0.00000     1.25520  0.0
     59     44     45     86   5     0.00000     0.00000     1.25520  0.0
     44     45     46     47   5     4.74884    -0.63178     1.67360  0.0
     44     45     46     61   5     0.00000     0.00000     1.25520  0.0
     44     45     46     62   5     0.00000     0.00000     1.25520  0.0
     60     45     46     47   5     0.00000     0.00000     1.25520  0.0
     60     45     46     61   5     0.00000     0.00000     1.25520  0.0
     60     45     46     62   5     0.00000     0.00000     1.25520  0.0
     86     45     46     47   5     4.74884    -0.63178     1.67360  0.0
     86     45     46     61   5     0.00000     0.00000     1.25520  0.0
     86     45     46     62   5     0.00000     0.00000     1.25520  0.0
     44     45     86     87   5     4.74884    -0.63178     1.67360  0.0
     44     45     86    100   5     0.00000     0.00000     1.25520  0.0
     44     45     86    101   5     0.00000     0.00000     1.25520  0.0
     46     45     86     87   5     4.74884    -0.63178     1.67360  0.0
     46     45     86    100   5     0.00000     0.00000     1.25520  0.0
     46     45     86    101   5     0.00000     0.00000     1.25520  0.0
     60     45     86     87   5     0.00000     0.00000     1.25520  0.0
     60     45     86    100   5     0.00000     0.00000     1.25520  0.0
     60     45     86    101   5     0.00000     0.00000     1.25520  0.0
     45     46     47     48   5     4.74884    -0.63178     1.67360  0.0
     45     46     47     63   5     0.00000     0.00000     1.25520  0.0
     45     46     47     64   5     0.00000     0.00000     1.25520  0.0
     61     46     47     48   5     0.00000     0.00000     1.25520  0.0
     61     46     47     63   5     0.00000     0.00000     1.25520  0.0
     61     46     47     64   5     0.00000     0.00000     1.25520  0.0
     62     46     47     48   5     0.00000     0.00000     1.25520  0.0
     62     46     47     63   5     0.00000     0.00000     1.25520  0.0
     62     46     47     64   5     0.00000     0.00000     1.25520  0.0
     46     47     48     49   5     4.74884    -0.63178     1.67360  0.0
     46     47     48     65   5     0.00000     0.00000     1.25520  0.0
     46     47     48     66   5     0.00000     0.00000     1.25520  0.0
     63     47     48     49   5     0.00000     0.00000     1.25520  0.0
     63     47     48     65   5     0.00000     0.00000     1.25520  0.0
     63     47     48     66   5     0.00000     0.00000     1.25520  0.0
     64     47     48     49   5     0.00000     0.00000     1.25520  0.0
     64     47     48     65   5     0.00000     0.00000     1.25520  0.0
     64     47     48     66   5     0.00000     0.00000     1.25520  0.0
     47     48     49     50   5     4.74884    -0.63178     1.67360  0.0
     47     48     49     67   5     0.00000     0.00000     1.25520  0.0
     47     48     49     68   5     0.00000     0.00000     1.25520  0.0
     65     48     49     50   5     0.00000     0.00000     1.25520  0.0
     65     48     49     67   5     0.00000     0.00000     1.25520  0.0
     65     48     49     68   5     0.00000     0.00000     1.25520  0.0
     66     48     49     50   5     0.00000     0.00000     1.25520  0.0
     66     48     49     67   5     0.00000     0.00000     1.25520  0.0
     66     48     49     68   5     0.00000     0.00000     1.25520  0.0
     48     49     50     51   5     4.74884    -0.63178     1.67360  0.0
     48     49     50     69   5     0.00000     0.00000     1.25520  0.0
     48     49     50     70   5     0.00000     0.00000     1.25520  0.0
     67     49     50     51   5     0.00000     0.00000     1.25520  0.0
     67     49     50     69   5     0.00000     0.00000     1.25520  0.0
     67     49     50     70   5     0.00000     0.00000     1.25520  0.0
     68     49     50     51   5     0.00000     0.00000     1.25520  0.0
     68     49     50     69   5     0.00000     0.00000     1.25520  0.0
     68     49     50     70   5     0.00000     0.00000     1.25520  0.0
     49     50     51     52   5     4.74884    -0.63178     1.67360  0.0
     49     50     51     71   5     0.00000     0.00000     1.25520  0.0
     49     50     51     72   5     0.00000     0.00000     1.25520  0.0
     69     50     51     52   5     0.00000     0.00000     1.25520  0.0
     69     50     51     71   5     0.00000     0.00000     1.25520  0.0
     69     50     51     72   5     0.00000     0.00000     1.25520  0.0
     70     50     51     52   5     0.00000     0.00000     1.25520  0.0
     70     50     51     71   5     0.00000     0.00000     1.25520  0.0
     70     50     51     72   5     0.00000     0.00000     1.25520  0.0
     50     51     52     53   5     4.74884    -0.63178     1.67360  0.0
     50     51     52     73   5     0.00000     0.00000     1.25520  0.0
     50     51     52     74   5     0.00000     0.00000     1.25520  0.0
     71     51     52     53   5     0.00000     0.00000     1.25520  0.0
     71     51     52     73   5     0.00000     0.00000     1.25520  0.0
     71     51     52     74   5     0.00000     0.00000     1.25520  0.0
     72     51     52     53   5     0.00000     0.00000     1.25520  0.0
     72     51     52     73   5     0.00000     0.00000     1.25520  0.0
     72     51     52     74   5     0.00000     0.00000     1.25520  0.0
     51     52     53     54   5     4.74884    -0.63178     1.67360  0.0
     51     52     53     75   5     0.00000     0.00000     1.25520  0.0
     51     52     53     76   5     0.00000     0.00000     1.25520  0.0
     73     52     53     54   5     0.00000     0.00000     1.25520  0.0
     73     52     53     75   5     0.00000     0.00000     1.25520  0.0
     73     52     53     76   5     0.00000     0.00000     1.25520  0.0
     74     52     53     54   5     0.00000     0.00000     1.25520  0.0
     74     52     53     75   5     0.00000     0.00000     1.25520  0.0
     74     52     53     76   5     0.00000     0.00000     1.25520  0.0
     52     53     54     55   5     4.74884    -0.63178     1.67360  0.0
     52     53     54     77   5     0.00000     0.00000     1.25520  0.0
     52     53     54     78   5     0.00000     0.00000     1.25520  0.0
     75     53     54     55   5     0.00000     0.00000     1.25520  0.0
     75     53     54     77   5     0.00000     0.00000     1.25520  0.0
     75     53     54     78   5     0.00000     0.00000     1.25520  0.0
     76     53     54     55   5     0.00000     0.00000     1.25520  0.0
     76     53     54     77   5     0.00000     0.00000     1.25520  0.0
     76     53     54     78   5     0.00000     0.00000     1.25520  0.0
     53     54     55     56   5     4.74884    -0.63178     1.67360  0.0
     53     54     55     79   5     0.00000     0.00000     1.25520  0.0
     53     54     55     80   5     0.00000     0.00000     1.25520  0.0
     77     54     55     56   5     0.00000     0.00000     1.25520  0.0
     77     54     55     79   5     0.00000     0.00000     1.25520  0.0
     77     54     55     80   5     0.00000     0.00000     1.25520  0.0
     78     54     55     56   5     0.00000     0.00000     1.25520  0.0
     78     54     55     79   5     0.00000     0.00000     1.25520  0.0
     78     54     55     80   5     0.00000     0.00000     1.25520  0.0
     54     55     56     57   5     4.74884    -0.63178     1.67360  0.0
     54     55     56     81   5     0.00000     0.00000     1.25520  0.0
     54     55     56     82   5     0.00000     0.00000     1.25520  0.0
     79     55     56     57   5     0.00000     0.00000     1.25520  0.0
     79     55     56     81   5     0.00000     0.00000     1.25520  0.0
     79     55     56     82   5     0.00000     0.00000     1.25520  0.0
     80     55     56     57   5     0.00000     0.00000     1.25520  0.0
     80     55     56     81   5     0.00000     0.00000     1.25520  0.0
     80     55     56     82   5     0.00000     0.00000     1.25520  0.0
     55     56     57     83   5     0.00000     0.00000     1.25520  0.0
     55     56     57     84   5     0.00000     0.00000     1.25520  0.0
     55     56     57     85   5     0.00000     0.00000     1.25520  0.0
     81     56     57     83   5     0.00000     0.00000     1.25520  0.0
     81     56     57     84   5     0.00000     0.00000     1.25520  0.0
     81     56     57     85   5     0.00000     0.00000     1.25520  0.0
     82     56     57     83   5     0.00000     0.00000     1.25520  0.0
     82     56     57     84   5     0.00000     0.00000     1.25520  0.0
     82     56     57     85   5     0.00000     0.00000     1.25520  0.0
     45     86     87     88   5     4.74884    -0.63178     1.67360  0.0
     45     86     87    102   5     0.00000     0.00000     1.25520  0.0
     45     86     87    128   5     4.74884    -0.63178     1.67360  0.0
    100     86     87     88   5     0.00000     0.00000     1.25520  0.0
    100     86     87    102   5     0.00000     0.00000     1.25520  0.0
    100     86     87    128   5     0.00000     0.00000     1.25520  0.0
    101     86     87     88   5     0.00000     0.00000     1.25520  0.0
    101     86     87    102   5     0.00000     0.00000     1.25520  0.0
    101     86     87    128   5     0.00000     0.00000     1.25520  0.0
     86     87     88     89   5     4.74884    -0.63178     1.67360  0.0
     86     87     88    103   5     0.00000     0.00000     1.25520  0.0
     86     87     88    104   5     0.00000     0.00000     1.25520  0.0
    102     87     88     89   5     0.00000     0.00000     1.25520  0.0
    102     87     88    103   5     0.00000     0.00000     1.25520  0.0
    102     87     88    104   5     0.00000     0.00000     1.25520  0.0
    128     87     88     89   5     4.74884    -0.63178     1.67360  0.0
    128     87     88    103   5     0.00000     0.00000     1.25520  0.0
    128     87     88    104   5     0.00000     0.00000     1.25520  0.0
     86     87    128    129   5     4.74884    -0.63178     1.67360  0.0
     86     87    128    142   5     0.00000     0.00000     1.25520  0.0
     86     87    128    143   5     0.00000     0.00000     1.25520  0.0
     88     87    128    129   5     4.74884    -0.63178     1.67360  0.0
     88     87    128    142   5     0.00000     0.00000     1.25520  0.0
     88     87    128    143   5     0.00000     0.00000     1.25520  0.0
    102     87    128    129   5     0.00000     0.00000     1.25520  0.0
    102     87    128    142   5     0.00000     0.00000     1.25520  0.0
    102     87    128    143   5     0.00000     0.00000     1.25520  0.0
     87     88     89     90   5     4.74884    -0.63178     1.67360  0.0
     87     88     89    105   5     0.00000     0.00000     1.25520  0.0
     87     88     89    106   5     0.00000     0.00000     1.25520  0.0
    103     88     89     90   5     0.00000     0.00000     1.25520  0.0
    103     88     89    105   5     0.00000     0.00000     1.25520  0.0
    103     88     89    106   5     0.00000     0.00000     1.25520  0.0
    104     88     89     90   5     0.00000     0.00000     1.25520  0.0
    104     88     89    105   5     0.00000     0.00000     1.25520  0.0
    104     88     89    106   5     0.00000     0.00000     1.25520  0.0
     88     89     90     91   5     4.74884    -0.63178     1.67360  0.0
     88     89     90    107   5     0.00000     0.00000     1.25520  0.0
     88     89     90    108   5     0.00000     0.00000     1.25520  0.0
    105     89     90     91   5     0.00000     0.00000     1.25520  0.0
    105     89     90    107   5     0.00000     0.00000     1.25520  0.0
    105     89     90    108   5     0.00000     0.00000     1.25520  0.0
    106     89     90     91   5     0.00000     0.00000     1.25520  0.0
    106     89     90    107   5     0.00000     0.00000     1.25520  0.0
    106     89     90    108   5     0.00000     0.00000     1.25520  0.0
     89     90     91     92   5     4.74884    -0.63178     1.67360  0.0
     89     90     91    109   5     0.00000     0.00000     1.25520  0.0
     89     90     91    110   5     0.00000     0.00000     1.25520  0.0
    107     90     91     92   5     0.00000     0.00000     1.25520  0.0
    107     90     91    109   5     0.00000     0.00000     1.25520  0.0
    107     90     91    110   5     0.00000     0.00000     1.25520  0.0
    108     90     91     92   5     0.00000     0.00000     1.25520  0.0
    108     90     91    109   5     0.00000     0.00000     1.25520  0.0
    108     90     91    110   5     0.00000     0.00000     1.25520  0.0
     90     91     92     93   5     4.74884    -0.63178     1.67360  0.0
     90     91     92    111   5     0.00000     0.00000     1.25520  0.0
     90     91     92    112   5     0.00000     0.00000     1.25520  0.0
    109     91     92     93   5     0.00000     0.00000     1.25520  0.0
    109     91     92    111   5     0.00000     0.00000     1.25520  0.0
    109     91     92    112   5     0.00000     0.00000     1.25520  0.0
    110     91     92     93   5     0.00000     0.00000     1.25520  0.0
    110     91     92    111   5     0.00000     0.00000     1.25520  0.0
    110     91     92    112   5     0.00000     0.00000     1.25520  0.0
     91     92     93     94   5     4.74884    -0.63178     1.67360  0.0
     91     92     93    113   5     0.00000     0.00000     1.25520  0.0
     91     92     93    114   5     0.00000     0.00000     1.25520  0.0
    111     92     93     94   5     0.00000     0.00000     1.25520  0.0
    111     92     93    113   5     0.00000     0.00000     1.25520  0.0
    111     92     93    114   5     0.00000     0.00000     1.25520  0.0
    112     92     93     94   5     0.00000     0.00000     1.25520  0.0
    112     92     93    113   5     0.00000     0.00000     1.25520  0.0
    112     92     93    114   5     0.00000     0.00000     1.25520  0.0
     92     93     94     95   5     4.74884    -0.63178     1.67360  0.0
     92     93     94    115   5     0.00000     0.00000     1.25520  0.0
     92     93     94    116   5     0.00000     0.00000     1.25520  0.0
    113     93     94     95   5     0.00000     0.00000     1.25520  0.0
    113     93     94    115   5     0.00000     0.00000     1.25520  0.0
    113     93     94    116   5     0.00000     0.00000     1.25520  0.0
    114     93     94     95   5     0.00000     0.00000     1.25520  0.0
    114     93     94    115   5     0.00000     0.00000     1.25520  0.0
    114     93     94    116   5     0.00000     0.00000     1.25520  0.0
     93     94     95     96   5     4.74884    -0.63178     1.67360  0.0
     93     94     95    117   5     0.00000     0.00000     1.25520  0.0
     93     94     95    118   5     0.00000     0.00000     1.25520  0.0
    115     94     95     96   5     0.00000     0.00000     1.25520  0.0
    115     94     95    117   5     0.00000     0.00000     1.25520  0.0
    115     94     95    118   5     0.00000     0.00000     1.25520  0.0
    116     94     95     96   5     0.00000     0.00000     1.25520  0.0
    116     94     95    117   5     0.00000     0.00000     1.25520  0.0
    116     94     95    118   5     0.00000     0.00000     1.25520  0.0
     94     95     96     97   5     4.74884    -0.63178     1.67360  0.0
     94     95     96    119   5     0.00000     0.00000     1.25520  0.0
     94     95     96    120   5     0.00000     0.00000     1.25520  0.0
    117     95     96     97   5     0.00000     0.00000     1.25520  0.0
    117     95     96    119   5     0.00000     0.00000     1.25520  0.0
    117     95     96    120   5     0.00000     0.00000     1.25520  0.0
    118     95     96     97   5     0.00000     0.00000     1.25520  0.0
    118     95     96    119   5     0.00000     0.00000     1.25520  0.0
    118     95     96    120   5     0.00000     0.00000     1.25520  0.0
     95     96     97     98   5     4.74884    -0.63178     1.67360  0.0
     95     96     97    121   5     0.00000     0.00000     1.25520  0.0
     95     96     97    122   5     0.00000     0.00000     1.25520  0.0
    119     96     97     98   5     0.00000     0.00000     1.25520  0.0
    119     96     97    121   5     0.00000     0.00000     1.25520  0.0
    119     96     97    122   5     0.00000     0.00000     1.25520  0.0
    120     96     97     98   5     0.00000     0.00000     1.25520  0.0
    120     96     97    121   5     0.00000     0.00000     1.25520  0.0
    120     96     97    122   5     0.00000     0.00000     1.25520  0.0
     96     97     98     99   5     4.74884    -0.63178     1.67360  0.0
     96     97     98    123   5     0.00000     0.00000     1.25520  0.0
     96     97     98    124   5     0.00000     0.00000     1.25520  0.0
    121     97     98     99   5     0.00000     0.00000     1.25520  0.0
    121     97     98    123   5     0.00000     0.00000     1.25520  0.0
    121     97     98    124   5     0.00000     0.00000     1.25520  0.0
    122     97     98     99   5     0.00000     0.00000     1.25520  0.0
    122     97     98    123   5     0.00000     0.00000     1.25520  0.0
    122     97     98    124   5     0.00000     0.00000     1.25520  0.0
     97     98     99    125   5     0.00000     0.00000     1.25520  0.0
     97     98     99    126   5     0.00000     0.00000     1.25520  0.0
     97     98     99    127   5     0.00000     0.00000     1.25520  0.0
    123     98     99    125   5     0.00000     0.00000     1.25520  0.0
    123     98     99    126   5     0.00000     0.00000     1.25520  0.0
    123     98     99    127   5     0.00000     0.00000     1.25520  0.0
    124     98     99    125   5     0.00000     0.00000     1.25520  0.0
    124     98     99    126   5     0.00000     0.00000     1.25520  0.0
    124     98     99    127   5     0.00000     0.00000     1.25520  0.0
     87    128    129    130   5     4.74884    -0.63178     1.67360  0.0
     87    128    129    144   5     0.00000     0.00000     1.25520  0.0
     87    128    129    170   5     4.74884    -0.63178     1.67360  0.0
    142    128    129    130   5     0.00000     0.00000     1.25520  0.0
    142    128    129    144   5     0.00000     0.00000     1.25520  0.0
    142    128    129    170   5     0.00000     0.00000     1.25520  0.0
    143    128    129    130   5     0.00000     0.00000     1.25520  0.0
    143    128    129    144   5     0.00000     0.00000     1.25520  0.0
    143    128    129    170   5     0.00000     0.00000     1.25520  0.0
    128    129    130    131   5     4.74884    -0.63178     1.67360  0.0
    128    129    130    145   5     0.00000     0.00000     1.25520  0.0
    128    129    130    146   5     0.00000     0.00000     1.25520  0.0
    144    129    130    131   5     0.00000     0.00000     1.25520  0.0
    144    129    130    145   5     0.00000     0.00000     1.25520  0.0
    144    129    130    146   5     0.00000     0.00000     1.25520  0.0
    170    129    130    131   5     4.74884    -0.63178     1.67360  0.0
    170    129    130    145   5     0.00000     0.00000     1.25520  0.0
    170    129    130    146   5     0.00000     0.00000     1.25520  0.0
    128    129    170    171   5     4.74884    -0.63178     1.67360  0.0
    128    129    170    184   5     0.00000     0.00000     1.25520  0.0
    128    129    170    185   5     0.00000     0.00000     1.25520  0.0
    130    129    170    171   5     4.74884    -0.63178     1.67360  0.0
    130    129    170    184   5     0.00000     0.00000     1.25520  0.0
    130    129    170    185   5     0.00000     0.00000     1.25520  0.0
    144    129    170    171   5     0.00000     0.00000     1.25520  0.0
    144    129    170    184   5     0.00000     0.00000     1.25520  0.0
    144    129    170    185   5     0.00000     0.00000     1.25520  0.0
    129    130    131    132   5     4.74884    -0.63178     1.67360  0.0
    129    130    131    147   5     0.00000     0.00000     1.25520  0.0
    129    130    131    148   5     0.00000     0.00000     1.25520  0.0
    145    130    131    132   5     0.00000     0.00000     1.25520  0.0
    145    130    131    147   5     0.00000     0.00000     1.25520  0.0
    145    130    131    148   5     0.00000     0.00000     1.25520  0.0
    146    130    131    132   5     0.00000     0.00000     1.25520  0.0
    146    130    131    147   5     0.00000     0.00000     1.25520  0.0
    146    130    131    148   5     0.00000     0.00000     1.25520  0.0
    130    131    132    133   5     4.74884    -0.63178     1.67360  0.0
    130    131    132    149   5     0.00000     0.00000     1.25520  0.0
    130    131    132    150   5     0.00000     0.00000     1.25520  0.0
    147    131    132    133   5     0.00000     0.00000     1.25520  0.0
    147    131    132    149   5     0.00000     0.00000     1.25520  0.0
    147    131    132    150   5     0.00000     0.00000     1.25520  0.0
    148    131    132    133   5     0.00000     0.00000     1.25520  0.0
    148    131    132    149   5     0.00000     0.00000     1.25520  0.0
    148    131    132    150   5     0.00000     0.00000     1.25520  0.0
    131    132    133    134   5     4.74884    -0.63178     1.67360  0.0
    131    132    133    151   5     0.00000     0.00000     1.25520  0.0
    131    132    133    152   5     0.00000     0.00000     1.25520  0.0
    149    132    133    134   5     0.00000     0.00000     1.25520  0.0
    149    132    133    151   5     0.00000     0.00000     1.25520  0.0
    149    132    133    152   5     0.00000     0.00000     1.25520  0.0
    150    132    133    134   5     0.00000     0.00000     1.25520  0.0
    150    132    133    151   5     0.00000     0.00000     1.25520  0.0
    150    132    133    152   5     0.00000     0.00000     1.25520  0.0
    132    133    134    135   5     4.74884    -0.63178     1.67360  0.0
    132    133    134    153   5     0.00000     0.00000     1.25520  0.0
    132    133    134    154   5     0.00000     0.00000     1.25520  0.0
    151    133    134    135   5     0.00000     0.00000     1.25520  0.0
    151    133    134    153   5     0.00000     0.00000     1.25520  0.0
    151    133    134    154   5     0.00000     0.00000     1.25520  0.0
    152    133    134    135   5     0.00000     0.00000     1.25520  0.0
    152    133    134    153   5     0.00000     0.00000     1.25520  0.0
    152    133    134    154   5     0.00000     0.00000     1.25520  0.0
    133    134    135    136   5     4.74884    -0.63178     1.67360  0.0
    133    134    135    155   5     0.00000     0.00000     1.25520  0.0
    133    134    135    156   5     0.00000     0.00000     1.25520  0.0
    153    134    135    136   5     0.00000     0.00000     1.25520  0.0
    153    134    135    155   5     0.00000     0.00000     1.25520  0.0
    153    134    135    156   5     0.00000     0.00000     1.25520  0.0
    154    134    135    136   5     0.00000     0.00000     1.25520  0.0
    154    134    135    155   5     0.00000     0.00000     1.25520  0.0
    154    134    135    156   5     0.00000     0.00000     1.25520  0.0
    134    135    136    137   5     4.74884    -0.63178     1.67360  0.0
    134    135    136    157   5     0.00000     0.00000     1.25520  0.0
    134    135    136    158   5     0.00000     0.00000     1.25520  0.0
    155    135    136    137   5     0.00000     0.00000     1.25520  0.0
    155    135    136    157   5     0.00000     0.00000     1.25520  0.0
    155    135    136    158   5     0.00000     0.00000     1.25520  0.0
    156    135    136    137   5     0.00000     0.00000     1.25520  0.0
    156    135    136    157   5     0.00000     0.00000     1.25520  0.0
    156    135    136    158   5     0.00000     0.00000     1.25520  0.0
    135    136    137    138   5     4.74884    -0.63178     1.67360  0.0
    135    136    137    159   5     0.00000     0.00000     1.25520  0.0
    135    136    137    160   5     0.00000     0.00000     1.25520  0.0
    157    136    137    138   5     0.00000     0.00000     1.25520  0.0
    157    136    137    159   5     0.00000     0.00000     1.25520  0.0
    157    136    137    160   5     0.00000     0.00000     1.25520  0.0
    158    136    137    138   5     0.00000     0.00000     1.25520  0.0
    158    136    137    159   5     0.00000     0.00000     1.25520  0.0
    158    136    137    160   5     0.00000     0.00000     1.25520  0.0
    136    137    138    139   5     4.74884    -0.63178     1.67360  0.0
    136    137    138    161   5     0.00000     0.00000     1.25520  0.0
    136    137    138    162   5     0.00000     0.00000     1.25520  0.0
    159    137    138    139   5     0.00000     0.00000     1.25520  0.0
    159    137    138    161   5     0.00000     0.00000     1.25520  0.0
    159    137    138    162   5     0.00000     0.00000     1.25520  0.0
    160    137    138    139   5     0.00000     0.00000     1.25520  0.0
    160    137    138    161   5     0.00000     0.00000     1.25520  0.0
    160    137    138    162   5     0.00000     0.00000     1.25520  0.0
    137    138    139    140   5     4.74884    -0.63178     1.67360  0.0
    137    138    139    163   5     0.00000     0.00000     1.25520  0.0
    137    138    139    164   5     0.00000     0.00000     1.25520  0.0
    161    138    139    140   5     0.00000     0.00000     1.25520  0.0
    161    138    139    163   5     0.00000     0.00000     1.25520  0.0
    161    138    139    164   5     0.00000     0.00000     1.25520  0.0
    162    138    139    140   5     0.00000     0.00000     1.25520  0.0
    162    138    139    163   5     0.00000     0.00000     1.25520  0.0
    162    138    139    164   5     0.00000     0.00000     1.25520  0.0
    138    139    140    141   5     4.74884    -0.63178     1.67360  0.0
    138    139    140    165   5     0.00000     0.00000     1.25520  0.0
    138    139    140    166   5     0.00000     0.00000     1.25520  0.0
    163    139    140    141   5     0.00000     0.00000     1.25520  0.0
    163    139    140    165   5     0.00000     0.00000     1.25520  0.0
    163    139    140    166   5     0.00000     0.00000     1.25520  0.0
    164    139    140    141   5     0.00000     0.00000     1.25520  0.0
    164    139    140    165   5     0.00000     0.00000     1.25520  0.0
    164    139    140    166   5     0.00000     0.00000     1.25520  0.0
    139    140    141    167   5     0.00000     0.00000     1.25520  0.0
    139    140    141    168   5     0.00000     0.00000     1.25520  0.0
    139    140    141    169   5     0.00000     0.00000     1.25520  0.0
    165    140    141    167   5     0.00000     0.00000     1.25520  0.0
    165    140    141    168   5     0.00000     0.00000     1.25520  0.0
    165    140    141    169   5     0.00000     0.00000     1.25520  0.0
    166    140    141    167   5     0.00000     0.00000     1.25520  0.0
    166    140    141    168   5     0.00000     0.00000     1.25520  0.0
    166    140    141    169   5     0.00000     0.00000     1.25520  0.0
    129    170    171    172   5     4.74884    -0.63178     1.67360  0.0
    129    170    171    186   5     0.00000     0.00000     1.25520  0.0
    129    170    171    212   5     4.74884    -0.63178     1.67360  0.0
    184    170    171    172   5     0.00000     0.00000     1.25520  0.0
    184    170    171    186   5     0.00000     0.00000     1.25520  0.0
    184    170    171    212   5     0.00000     0.00000     1.25520  0.0
    185    170    171    172   5     0.00000     0.00000     1.25520  0.0
    185    170    171    186   5     0.00000     0.00000     1.25520  0.0
    185    170    171    212   5     0.00000     0.00000     1.25520  0.0
    170    171    172    173   5     4.74884    -0.63178     1.67360  0.0
    170    171    172    187   5     0.00000     0.00000     1.25520  0.0
    170    171    172    188   5     0.00000     0.00000     1.25520  0.0
    186    171    172    173   5     0.00000     0.00000     1.25520  0.0
    186    171    172    187   5     0.00000     0.00000     1.25520  0.0
    186    171    172    188   5     0.00000     0.00000     1.25520  0.0
    212    171    172    173   5     4.74884    -0.63178     1.67360  0.0
    212    171    172    187   5     0.00000     0.00000     1.25520  0.0
    212    171    172    188   5     0.00000     0.00000     1.25520  0.0
    170    171    212    213   5     4.74884    -0.63178     1.67360  0.0
    170    171    212    226   5     0.00000     0.00000     1.25520  0.0
    170    171    212    227   5     0.00000     0.00000     1.25520  0.0
    172    171    212    213   5     4.74884    -0.63178     1.67360  0.0
    172    171    212    226   5     0.00000     0.00000     1.25520  0.0
    172    171    212    227   5     0.00000     0.00000     1.25520  0.0
    186    171    212    213   5     0.00000     0.00000     1.25520  0.0
    186    171    212    226   5     0.00000     0.00000     1.25520  0.0
    186    171    212    227   5     0.00000     0.00000     1.25520  0.0
    171    172    173    174   5     4.74884    -0.63178     1.67360  0.0
    171    172    173    189   5     0.00000     0.00000     1.25520  0.0
    171    172    173    190   5     0.00000     0.00000     1.25520  0.0
    187    172    173    174   5     0.00000     0.00000     1.25520  0.0
    187    172    173    189   5     0.00000     0.00000     1.25520  0.0
    187    172    173    190   5     0.00000     0.00000     1.25520  0.0
    188    172    173    174   5     0.00000     0.00000     1.25520  0.0
    188    172    173    189   5     0.00000     0.00000     1.25520  0.0
    188    172    173    190   5     0.00000     0.00000     1.25520  0.0
    172    173    174    175   5     4.74884    -0.63178     1.67360  0.0
    172    173    174    191   5     0.00000     0.00000     1.25520  0.0
    172    173    174    192   5     0.00000     0.00000     1.25520  0.0
    189    173    174    175   5     0.00000     0.00000     1.25520  0.0
    189    173    174    191   5     0.00000     0.00000     1.25520  0.0
    189    173    174    192   5     0.00000     0.00000     1.25520  0.0
    190    173    174    175   5     0.00000     0.00000     1.25520  0.0
    190    173    174    191   5     0.00000     0.00000     1.25520  0.0
    190    173    174    192   5     0.00000     0.00000     1.25520  0.0
    173    174    175    176   5     4.74884    -0.63178     1.67360  0.0
    173    174    175    193   5     0.00000     0.00000     1.25520  0.0
    173    174    175    194   5     0.00000     0.00000     1.25520  0.0
    191    174    175    176   5     0.00000     0.00000     1.25520  0.0
    191    174    175    193   5     0.00000     0.00000     1.25520  0.0
    191    174    175    194   5     0.00000     0.00000     1.25520  0.0
    192    174    175    176   5     0.00000     0.00000     1.25520  0.0
    192    174    175    193   5     0.00000     0.00000     1.25520  0.0
    192    174    175    194   5     0.00000     0.00000     1.25520  0.0
    174    175    176    177   5     4.74884    -0.63178     1.67360  0.0
    174    175    176    195   5     0.00000     0.00000     1.25520  0.0
    174    175    176    196   5     0.00000     0.00000     1.25520  0.0
    193    175    176    177   5     0.00000     0.00000     1.25520  0.0
    193    175    176    195   5     0.00000     0.00000     1.25520  0.0
    193    175    176    196   5     0.00000     0.00000     1.25520  0.0
    194    175    176    177   5     0.00000     0.00000     1.25520  0.0
    194    175    176    195   5     0.00000     0.00000     1.25520  0.0
    194    175    176    196   5     0.00000     0.00000     1.25520  0.0
    175    176    177    178   5     4.74884    -0.63178     1.67360  0.0
    175    176    177    197   5     0.00000     0.00000     1.25520  0.0
    175    176    177    198   5     0.00000     0.00000     1.25520  0.0
    195    176    177    178   5     0.00000     0.00000     1.25520  0.0
    195    176    177    197   5     0.00000     0.00000     1.25520  0.0
    195    176    177    198   5     0.00000     0.00000     1.25520  0.0
    196    176    177    178   5     0.00000     0.00000     1.25520  0.0
    196    176    177    197   5     0.00000     0.00000     1.25520  0.0
    196    176    177    198   5     0.00000     0.00000     1.25520  0.0
    176    177    178    179   5     4.74884    -0.63178     1.67360  0.0
    176    177    178    199   5     0.00000     0.00000     1.25520  0.0
    176    177    178    200   5     0.00000     0.00000     1.25520  0.0
    197    177    178    179   5     0.00000     0.00000     1.25520  0.0
    197    177    178    199   5     0.00000     0.00000     1.25520  0.0
    197    177    178    200   5     0.00000     0.00000     1.25520  0.0
    198    177    178    179   5     0.00000     0.00000     1.25520  0.0
    198    177    178    199   5     0.00000     0.00000     1.25520  0.0
    198    177    178    200   5     0.00000     0.00000     1.25520  0.0
    177    178    179    180   5     4.74884    -0.63178     1.67360  0.0
    177    178    179    201   5     0.00000     0.00000     1.25520  0.0
    177    178    179    202   5     0.00000     0.00000     1.25520  0.0
    199    178    179    180   5     0.00000     0.00000     1.25520  0.0
    199    178    179    201   5     0.00000     0.00000     1.25520  0.0
    199    178    179    202   5     0.00000     0.00000     1.25520  0.0
    200    178    179    180   5     0.00000     0.00000     1.25520  0.0
    200    178    179    201   5     0.00000     0.00000     1.25520  0.0
    200    178    179    202   5     0.00000     0.00000     1.25520  0.0
    178    179    180    181   5     4.74884    -0.63178     1.67360  0.0
    178    179    180    203   5     0.00000     0.00000     1.25520  0.0
    178    179    180    204   5     0.00000     0.00000     1.25520  0.0
    201    179    180    181   5     0.00000     0.00000     1.25520  0.0
    201    179    180    203   5     0.00000     0.00000     1.25520  0.0
    201    179    180    204   5     0.00000     0.00000     1.25520  0.0
    202    179    180    181   5     0.00000     0.00000     1.25520  0.0
    202    179    180    203   5     0.00000     0.00000     1.25520  0.0
    202    179    180    204   5     0.00000     0.00000     1.25520  0.0
    179    180    181    182   5     4.74884    -0.63178     1.67360  0.0
    179    180    181    205   5     0.00000     0.00000     1.25520  0.0
    179    180    181    206   5     0.00000     0.00000     1.25520  0.0
    203    180    181    182   5     0.00000     0.00000     1.25520  0.0
    203    180    181    205   5     0.00000     0.00000     1.25520  0.0
    203    180    181    206   5     0.00000     0.00000     1.25520  0.0
    204    180    181    182   5     0.00000     0.00000     1.25520  0.0
    204    180    181    205   5     0.00000     0.00000     1.25520  0.0
    204    180    181    206   5     0.00000     0.00000     1.25520  0.0
    180    181    182    183   5     4.74884    -0.63178     1.67360  0.0
    180    181    182    207   5     0.00000     0.00000     1.25520  0.0
    180    181    182    208   5     0.00000     0.00000     1.25520  0.0
    205    181    182    183   5     0.00000     0.00000     1.25520  0.0
    205    181    182    207   5     0.00000     0.00000     1.25520  0.0
    205    181    182    208   5     0.00000     0.00000     1.25520  0.0
    206    181    182    183   5     0.00000     0.00000     1.25520  0.0
    206    181    182    207   5     0.00000     0.00000     1.25520  0.0
    206    181    182    208   5     0.00000     0.00000     1.25520  0.0
    181    182    183    209   5     0.00000     0.00000     1.25520  0.0
    181    182    183    210   5     0.00000     0.00000     1.25520  0.0
    181    182    183    211   5     0.00000     0.00000     1.25520  0.0
    207    182    183    209   5     0.00000     0.00000     1.25520  0.0
    207    182    183    210   5     0.00000     0.00000     1.25520  0.0
    207    182    183    211   5     0.00000     0.00000     1.25520  0.0
    208    182    183    209   5     0.00000     0.00000     1.25520  0.0
    208    182    183    210   5     0.00000     0.00000     1.25520  0.0
    208    182    183    211   5     0.00000     0.00000     1.25520  0.0
    171    212    213    214   5     4.74884    -0.63178     1.67360  0.0
    171    212    213    228   5     0.00000     0.00000     1.25520  0.0
    171    212    213    254   5     4.74884    -0.63178     1.67360  0.0
    226    212    213    214   5     0.00000     0.00000     1.25520  0.0
    226    212    213    228   5     0.00000     0.00000     1.25520  0.0
    226    212    213    254   5     0.00000     0.00000     1.25520  0.0
    227    212    213    214   5     0.00000     0.00000     1.25520  0.0
    227    212    213    228   5     0.00000     0.00000     1.25520  0.0
    227    212    213    254   5     0.00000     0.00000     1.25520  0.0
    212    213    214    215   5     4.74884    -0.63178     1.67360  0.0
    212    213    214    229   5     0.00000     0.00000     1.25520  0.0
    212    213    214    230   5     0.00000     0.00000     1.25520  0.0
    228    213    214    215   5     0.00000     0.00000     1.25520  0.0
    228    213    214    229   5     0.00000     0.00000     1.25520  0.0
    228    213    214    230   5     0.00000     0.00000     1.25520  0.0
    254    213    214    215   5     4.74884    -0.63178     1.67360  0.0
    254    213    214    229   5     0.00000     0.00000     1.25520  0.0
    254    213    214    230   5     0.00000     0.00000     1.25520  0.0
    212    213    254    255   5     4.74884    -0.63178     1.67360  0.0
    212    213    254    268   5     0.00000     0.00000     1.25520  0.0
    212    213    254    269   5     0.00000     0.00000     1.25520  0.0
    214    213    254    255   5     4.74884    -0.63178     1.67360  0.0
    214    213    254    268   5     0.00000     0.00000     1.25520  0.0
    214    213    254    269   5     0.00000     0.00000     1.25520  0.0
    228    213    254    255   5     0.00000     0.00000     1.25520  0.0
    228    213    254    268   5     0.00000     0.00000     1.25520  0.0
    228    213    254    269   5     0.00000     0.00000     1.25520  0.0
    213    214    215    216   5     4.74884    -0.63178     1.67360  0.0
    213    214    215    231   5     0.00000     0.00000     1.25520  0.0
    213    214    215    232   5     0.00000     0.00000     1.25520  0.0
    229    214    215    216   5     0.00000     0.00000     1.25520  0.0
    229    214    215    231   5     0.00000     0.00000     1.25520  0.0
    229    214    215    232   5     0.00000     0.00000     1.25520  0.0
    230    214    215    216   5     0.00000     0.00000     1.25520  0.0
    230    214    215    231   5     0.00000     0.00000     1.25520  0.0
    230    214    215    232   5     0.00000     0.00000     1.25520  0.0
    214    215    216    217   5     4.74884    -0.63178     1.67360  0.0
    214    215    216    233   5     0.00000     0.00000     1.25520  0.0
    214    215    216    234   5     0.00000     0.00000     1.25520  0.0
    231    215    216    217   5     0.00000     0.00000     1.25520  0.0
    231    215    216    233   5     0.00000     0.00000     1.25520  0.0
    231    215    216    234   5     0.00000     0.00000     1.25520  0.0
    232    215    216    217   5     0.00000     0.00000     1.25520  0.0
    232    215    216    233   5     0.00000     0.00000     1.25520  0.0
    232    215    216    234   5     0.00000     0.00000     1.25520  0.0
    215    216    217    218   5     4.74884    -0.63178     1.67360  0.0
    215    216    217    235   5     0.00000     0.00000     1.25520  0.0
    215    216    217    236   5     0.00000     0.00000     1.25520  0.0
    233    216    217    218   5     0.00000     0.00000     1.25520  0.0
    233    216    217    235   5     0.00000     0.00000     1.25520  0.0
    233    216    217    236   5     0.00000     0.00000     1.25520  0.0
    234    216    217    218   5     0.00000     0.00000     1.25520  0.0
    234    216    217    235   5     0.00000     0.00000     1.25520  0.0
    234    216    217    236   5     0.00000     0.00000     1.25520  0.0
    216    217    218    219   5     4.74884    -0.63178     1.67360  0.0
    216    217    218    237   5     0.00000     0.00000     1.25520  0.0
    216    217    218    238   5     0.00000     0.00000     1.25520  0.0
    235    217    218    219   5     0.00000     0.00000     1.25520  0.0
    235    217    218    237   5     0.00000     0.00000     1.25520  0.0
    235    217    218    238   5     0.00000     0.00000     1.25520  0.0
    236    217    218    219   5     0.00000     0.00000     1.25520  0.0
    236    217    218    237   5     0.00000     0.00000     1.25520  0.0
    236    217    218    238   5     0.00000     0.00000     1.25520  0.0
    217    218    219    220   5     4.74884    -0.63178     1.67360  0.0
    217    218    219    239   5     0.00000     0.00000     1.25520  0.0
    217    218    219    240   5     0.00000     0.00000     1.25520  0.0
    237    218    219    220   5     0.00000     0.00000     1.25520  0.0
    237    218    219    239   5     0.00000     0.00000     1.25520  0.0
    237    218    219    240   5     0.00000     0.00000     1.25520  0.0
    238    218    219    220   5     0.00000     0.00000     1.25520  0.0
    238    218    219    239   5     0.00000     0.00000     1.25520  0.0
    238    218    219    240   5     0.00000     0.00000     1.25520  0.0
    218    219    220    221   5     4.74884    -0.63178     1.67360  0.0
    218    219    220    241   5     0.00000     0.00000     1.25520  0.0
    218    219    220    242   5     0.00000     0.00000     1.25520  0.0
    239    219    220    221   5     0.00000     0.00000     1.25520  0.0
    239    219    220    241   5     0.00000     0.00000     1.25520  0.0
    239    219    220    242   5     0.00000     0.00000     1.25520  0.0
    240    219    220    221   5     0.00000     0.00000     1.25520  0.0
    240    219    220    241   5     0.00000     0.00000     1.25520  0.0
    240    219    220    242   5     0.00000     0.00000     1.25520  0.0
    219    220    221    222   5     4.74884    -0.63178     1.67360  0.0
    219    220    221    243   5     0.00000     0.00000     1.25520  0.0
    219    220    221    244   5     0.00000     0.00000     1.25520  0.0
    241    220    221    222   5     0.00000     0.00000     1.25520  0.0
    241    220    221    243   5     0.00000     0.00000     1.25520  0.0
    241    220    221    244   5     0.00000     0.00000     1.25520  0.0
    242    220    221    222   5     0.00000     0.00000     1.25520  0.0
    242    220    221    243   5     0.00000     0.00000     1.25520  0.0
    242    220    221    244   5     0.00000     0.00000     1.25520  0.0
    220    221    222    223   5     4.74884    -0.63178     1.67360  0.0
    220    221    222    245   5     0.00000     0.00000     1.25520  0.0
    220    221    222    246   5     0.00000     0.00000     1.25520  0.0
    243    221    222    223   5     0.00000     0.00000     1.25520  0.0
    243    221    222    245   5     0.00000     0.00000     1.25520  0.0
    243    221    222    246   5     0.00000     0.00000     1.25520  0.0
    244    221    222    223   5     0.00000     0.00000     1.25520  0.0
    244    221    222    245   5     0.00000     0.00000     1.25520  0.0
    244    221    222    246   5     0.00000     0.00000     1.25520  0.0
    221    222    223    224   5     4.74884    -0.63178     1.67360  0.0
    221    222    223    247   5     0.00000     0.00000     1.25520  0.0
    221    222    223    248   5     0.00000     0.00000     1.25520  0.0
    245    222    223    224   5     0.00000     0.00000     1.25520  0.0
    245    222    223    247   5     0.00000     0.00000     1.25520  0.0
    245    222    223    248   5     0.00000     0.00000     1.25520  0.0
    246    222    223    224   5     0.00000     0.00000     1.25520  0.0
    246    222    223    247   5     0.00000     0.00000     1.25520  0.0
    246    222    223    248   5     0.00000     0.00000     1.25520  0.0
    222    223    224    225   5     4.74884    -0.63178     1.67360  0.0
    222    223    224    249   5     0.00000     0.00000     1.25520  0.0
    222    223    224    250   5     0.00000     0.00000     1.25520  0.0
    247    223    224    225   5     0.00000     0.00000     1.25520  0.0
    247    223    224    249   5     0.00000     0.00000     1.25520  0.0
    247    223    224    250   5     0.00000     0.00000     1.25520  0.0
    248    223    224    225   5     0.00000     0.00000     1.25520  0.0
    248    223    224    249   5     0.00000     0.00000     1.25520  0.0
    248    223    224    250   5     0.00000     0.00000     1.25520  0.0
    223    224    225    251   5     0.00000     0.00000     1.25520  0.0
    223    224    225    252   5     0.00000     0.00000     1.25520  0.0
    223    224    225    253   5     0.00000     0.00000     1.25520  0.0
    249    224    225    251   5     0.00000     0.00000     1.25520  0.0
    249    224    225    252   5     0.00000     0.00000     1.25520  0.0
    249    224    225    253   5     0.00000     0.00000     1.25520  0.0
    250    224    225    251   5     0.00000     0.00000     1.25520  0.0
    250    224    225    252   5     0.00000     0.00000     1.25520  0.0
    250    224    225    253   5     0.00000     0.00000     1.25520  0.0
    213    254    255    256   5     4.74884    -0.63178     1.67360  0.0
    213    254    255    270   5     0.00000     0.00000     1.25520  0.0
    213    254    255    296   5     4.74884    -0.63178     1.67360  0.0
    268    254    255    256   5     0.00000     0.00000     1.25520  0.0
    268    254    255    270   5     0.00000     0.00000     1.25520  0.0
    268    254    255    296   5     0.00000     0.00000     1.25520  0.0
    269    254    255    256   5     0.00000     0.00000     1.25520  0.0
    269    254    255    270   5     0.00000     0.00000     1.25520  0.0
    269    254    255    296   5     0.00000     0.00000     1.25520  0.0
    254    255    256    257   5     4.74884    -0.63178     1.67360  0.0
    254    255    256    271   5     0.00000     0.00000     1.25520  0.0
    254    255    256    272   5     0.00000     0.00000     1.25520  0.0
    270    255    256    257   5     0.00000     0.00000     1.25520  0.0
    270    255    256    271   5     0.00000     0.00000     1.25520  0.0
    270    255    256    272   5     0.00000     0.00000     1.25520  0.0
    296    255    256    257   5     4.74884    -0.63178     1.67360  0.0
    296    255    256    271   5     0.00000     0.00000     1.25520  0.0
    296    255    256    272   5     0.00000     0.00000     1.25520  0.0
    254    255    296    297   5     4.74884    -0.63178     1.67360  0.0
    254    255    296    310   5     0.00000     0.00000     1.25520  0.0
    254    255    296    311   5     0.00000     0.00000     1.25520  0.0
    256    255    296    297   5     4.74884    -0.63178     1.67360  0.0
    256    255    296    310   5     0.00000     0.00000     1.25520  0.0
    256    255    296    311   5     0.00000     0.00000     1.25520  0.0
    270    255    296    297   5     0.00000     0.00000     1.25520  0.0
    270    255    296    310   5     0.00000     0.00000     1.25520  0.0
    270    255    296    311   5     0.00000     0.00000     1.25520  0.0
    255    256    257    258   5     4.74884    -0.63178     1.67360  0.0
    255    256    257    273   5     0.00000     0.00000     1.25520  0.0
    255    256    257    274   5     0.00000     0.00000     1.25520  0.0
    271    256    257    258   5     0.00000     0.00000     1.25520  0.0
    271    256    257    273   5     0.00000     0.00000     1.25520  0.0
    271    256    257    274   5     0.00000     0.00000     1.25520  0.0
    272    256    257    258   5     0.00000     0.00000     1.25520  0.0
    272    256    257    273   5     0.00000     0.00000     1.25520  0.0
    272    256    257    274   5     0.00000     0.00000     1.25520  0.0
    256    257    258    259   5     4.74884    -0.63178     1.67360  0.0
    256    257    258    275   5     0.00000     0.00000     1.25520  0.0
    256    257    258    276   5     0.00000     0.00000     1.25520  0.0
    273    257    258    259   5     0.00000     0.00000     1.25520  0.0
    273    257    258    275   5     0.00000     0.00000     1.25520  0.0
    273    257    258    276   5     0.00000     0.00000     1.25520  0.0
    274    257    258    259   5     0.00000     0.00000     1.25520  0.0
    274    257    258    275   5     0.00000     0.00000     1.25520  0.0
    274    257    258    276   5     0.00000     0.00000     1.25520  0.0
    257    258    259    260   5     4.74884    -0.63178     1.67360  0.0
    257    258    259    277   5     0.00000     0.00000     1.25520  0.0
    257    258    259    278   5     0.00000     0.00000     1.25520  0.0
    275    258    259    260   5     0.00000     0.00000     1.25520  0.0
    275    258    259    277   5     0.00000     0.00000     1.25520  0.0
    275    258    259    278   5     0.00000     0.00000     1.25520  0.0
    276    258    259    260   5     0.00000     0.00000     1.25520  0.0
    276    258    259    277   5     0.00000     0.00000     1.25520  0.0
    276    258    259    278   5     0.00000     0.00000     1.25520  0.0
    258    259    260    261   5     4.74884    -0.63178     1.67360  0.0
    258    259    260    279   5     0.00000     0.00000     1.25520  0.0
    258    259    260    280   5     0.00000     0.00000     1.25520  0.0
    277    259    260    261   5     0.00000     0.00000     1.25520  0.0
    277    259    260    279   5     0.00000     0.00000     1.25520  0.0
    277    259    260    280   5     0.00000     0.00000     1.25520  0.0
    278    259    260    261   5     0.00000     0.00000     1.25520  0.0
    278    259    260    279   5     0.00000     0.00000     1.25520  0.0
    278    259    260    280   5     0.00000     0.00000     1.25520  0.0
    259    260    261    262   5     4.74884    -0.63178     1.67360  0.0
    259    260    261    281   5     0.00000     0.00000     1.25520  0.0
    259    260    261    282   5     0.00000     0.00000     1.25520  0.0
    279    260    261    262   5     0.00000     0.00000     1.25520  0.0
    279    260    261    281   5     0.00000     0.00000     1.25520  0.0
    279    260    261    282   5     0.00000     0.00000     1.25520  0.0
    280    260    261    262   5     0.00000     0.00000     1.25520  0.0
    280    260    261    281   5     0.00000     0.00000     1.25520  0.0
    280    260    261    282   5     0.00000     0.00000     1.25520  0.0
    260    261    262    263   5     4.74884    -0.63178     1.67360  0.0
    260    261    262    283   5     0.00000     0.00000     1.25520  0.0
    260    261    262    284   5     0.00000     0.00000     1.25520  0.0
    281    261    262    263   5     0.00000     0.00000     1.25520  0.0
    281    261    262    283   5     0.00000     0.00000     1.25520  0.0
    281    261    262    284   5     0.00000     0.00000     1.25520  0.0
    282    261    262    263   5     0.00000     0.00000     1.25520  0.0
    282    261    262    283   5     0.00000     0.00000     1.25520  0.0
    282    261    262    284   5     0.00000     0.00000     1.25520  0.0
    261    262    263    264   5     4.74884    -0.63178     1.67360  0.0
    261    262    263    285   5     0.00000     0.00000     1.25520  0.0
    261    262    263    286   5     0.00000     0.00000     1.25520  0.0
    283    262    263    264   5     0.00000     0.00000     1.25520  0.0
    283    262    263    285   5     0.00000     0.00000     1.25520  0.0
    283    262    263    286   5     0.00000     0.00000     1.25520  0.0
    284    262    263    264   5     0.00000     0.00000     1.25520  0.0
    284    262    263    285   5     0.00000     0.00000     1.25520  0.0
    284    262    263    286   5     0.00000     0.00000     1.25520  0.0
    262    263    264    265   5     4.74884    -0.63178     1.67360  0.0
    262    263    264    287   5     0.00000     0.00000     1.25520  0.0
    262    263    264    288   5     0.00000     0.00000     1.25520  0.0
    285    263    264    265   5     0.00000     0.00000     1.25520  0.0
    285    263    264    287   5     0.00000     0.00000     1.25520  0.0
    285    263    264    288   5     0.00000     0.00000     1.25520  0.0
    286    263    264    265   5     0.00000     0.00000     1.25520  0.0
    286    263    264    287   5     0.00000     0.00000     1.25520  0.0
    286    263    264    288   5     0.00000     0.00000     1.25520  0.0
    263    264    265    266   5     4.74884    -0.63178     1.67360  0.0
    263    264    265    289   5     0.00000     0.00000     1.25520  0.0
    263    264    265    290   5     0.00000     0.00000     1.25520  0.0
    287    264    265    266   5     0.00000     0.00000     1.25520  0.0
    287    264    265    289   5     0.00000     0.00000     1.25520  0.0
    287    264    265    290   5     0.00000     0.00000     1.25520  0.0
    288    264    265    266   5     0.00000     0.00000     1.25520  0.0
    288    264    265    289   5     0.00000     0.00000     1.25520  0.0
    288    264    265    290   5     0.00000     0.00000     1.25520  0.0
    264    265    266    267   5     4.74884    -0.63178     1.67360  0.0
    264    265    266    291   5     0.00000     0.00000     1.25520  0.0
    264    265    266    292   5     0.00000     0.00000     1.25520  0.0
    289    265    266    267   5     0.00000     0.00000     1.25520  0.0
    289    265    266    291   5     0.00000     0.00000     1.25520  0.0
    289    265    266    292   5     0.00000     0.00000     1.25520  0.0
    290    265    266    267   5     0.00000     0.00000     1.25520  0.0
    290    265    266    291   5     0.00000     0.00000     1.25520  0.0
    290    265    266    292   5     0.00000     0.00000     1.25520  0.0
    265    266    267    293   5     0.00000     0.00000     1.25520  0.0
    265    266    267    294   5     0.00000     0.00000     1.25520  0.0
    265    266    267    295   5     0.00000     0.00000     1.25520  0.0
    291    266    267    293   5     0.00000     0.00000     1.25520  0.0
    291    266    267    294   5     0.00000     0.00000     1.25520  0.0
    291    266    267    295   5     0.00000     0.00000     1.25520  0.0
    292    266    267    293   5     0.00000     0.00000     1.25520  0.0
    292    266    267    294   5     0.00000     0.00000     1.25520  0.0
    292    266    267    295   5     0.00000     0.00000     1.25520  0.0
    255    296    297    298   5     4.74884    -0.63178     1.67360  0.0
    255    296    297    312   5     0.00000     0.00000     1.25520  0.0
    255    296    297    338   5     4.74884    -0.63178     1.67360  0.0
    310    296    297    298   5     0.00000     0.00000     1.25520  0.0
    310    296    297    312   5     0.00000     0.00000     1.25520  0.0
    310    296    297    338   5     0.00000     0.00000     1.25520  0.0
    311    296    297    298   5     0.00000     0.00000     1.25520  0.0
    311    296    297    312   5     0.00000     0.00000     1.25520  0.0
    311    296    297    338   5     0.00000     0.00000     1.25520  0.0
    296    297    298    299   5     4.74884    -0.63178     1.67360  0.0
    296    297    298    313   5     0.00000     0.00000     1.25520  0.0
    296    297    298    314   5     0.00000     0.00000     1.25520  0.0
    312    297    298    299   5     0.00000     0.00000     1.25520  0.0
    312    297    298    313   5     0.00000     0.00000     1.25520  0.0
    312    297    298    314   5     0.00000     0.00000     1.25520  0.0
    338    297    298    299   5     4.74884    -0.63178     1.67360  0.0
    338    297    298    313   5     0.00000     0.00000     1.25520  0.0
    338    297    298    314   5     0.00000     0.00000     1.25520  0.0
    296    297    338    339   5     4.74884    -0.63178     1.67360  0.0
    296    297    338    352   5     0.00000     0.00000     1.25520  0.0
    296    297    338    353   5     0.00000     0.00000     1.25520  0.0
    298    297    338    339   5     4.74884    -0.63178     1.67360  0.0
    298    297    338    352   5     0.00000     0.00000     1.25520  0.0
    298    297    338    353   5     0.00000     0.00000     1.25520  0.0
    312    297    338    339   5     0.00000     0.00000     1.25520  0.0
    312    297    338    352   5     0.00000     0.00000     1.25520  0.0
    312    297    338    353   5     0.00000     0.00000     1.25520  0.0
    297    298    299    300   5     4.74884    -0.63178     1.67360  0.0
    297    298    299    315   5     0.00000     0.00000     1.25520  0.0
    297    298    299    316   5     0.00000     0.00000     1.25520  0.0
    313    298    299    300   5     0.00000     0.00000     1.25520  0.0
    313    298    299    315   5     0.00000     0.00000     1.25520  0.0
    313    298    299    316   5     0.00000     0.00000     1.25520  0.0
    314    298    299    300   5     0.00000     0.00000     1.25520  0.0
    314    298    299    315   5     0.00000     0.00000     1.25520  0.0
    314    298    299    316   5     0.00000     0.00000     1.25520  0.0
    298    299    300    301   5     4.74884    -0.63178     1.67360  0.0
    298    299    300    317   5     0.00000     0.00000     1.25520  0.0
    298    299    300    318   5     0.00000     0.00000     1.25520  0.0
    315    299    300    301   5     0.00000     0.00000     1.25520  0.0
    315    299    300    317   5     0.00000     0.00000     1.25520  0.0
    315    299    300    318   5     0.00000     0.00000     1.25520  0.0
    316    299    300    301   5     0.00000     0.00000     1.25520  0.0
    316    299    300    317   5     0.00000     0.00000     1.25520  0.0
    316    299    300    318   5     0.00000     0.00000     1.25520  0.0
    299    300    301    302   5     4.74884    -0.63178     1.67360  0.0
    299    300    301    319   5     0.00000     0.00000     1.25520  0.0
    299    300    301    320   5     0.00000     0.00000     1.25520  0.0
    317    300    301    302   5     0.00000     0.00000     1.25520  0.0
    317    300    301    319   5     0.00000     0.00000     1.25520  0.0
    317    300    301    320   5     0.00000     0.00000     1.25520  0.0
    318    300    301    302   5     0.00000     0.00000     1.25520  0.0
    318    300    301    319   5     0.00000     0.00000     1.25520  0.0
    318    300    301    320   5     0.00000     0.00000     1.25520  0.0
    300    301    302    303   5     4.74884    -0.63178     1.67360  0.0
    300    301    302    321   5     0.00000     0.00000     1.25520  0.0
    300    301    302    322   5     0.00000     0.00000     1.25520  0.0
    319    301    302    303   5     0.00000     0.00000     1.25520  0.0
    319    301    302    321   5     0.00000     0.00000     1.25520  0.0
    319    301    302    322   5     0.00000     0.00000     1.25520  0.0
    320    301    302    303   5     0.00000     0.00000     1.25520  0.0
    320    301    302    321   5     0.00000     0.00000     1.25520  0.0
    320    301    302    322   5     0.00000     0.00000     1.25520  0.0
    301    302    303    304   5     4.74884    -0.63178     1.67360  0.0
    301    302    303    323   5     0.00000     0.00000     1.25520  0.0
    301    302    303    324   5     0.00000     0.00000     1.25520  0.0
    321    302    303    304   5     0.00000     0.00000     1.25520  0.0
    321    302    303    323   5     0.00000     0.00000     1.25520  0.0
    321    302    303    324   5     0.00000     0.00000     1.25520  0.0
    322    302    303    304   5     0.00000     0.00000     1.25520  0.0
    322    302    303    323   5     0.00000     0.00000     1.25520  0.0
    322    302    303    324   5     0.00000     0.00000     1.25520  0.0
    302    303    304    305   5     4.74884    -0.63178     1.67360  0.0
    302    303    304    325   5     0.00000     0.00000     1.25520  0.0
    302    303    304    326   5     0.00000     0.00000     1.25520  0.0
    323    303    304    305   5     0.00000     0.00000     1.25520  0.0
    323    303    304    325   5     0.00000     0.00000     1.25520  0.0
    323    303    304    326   5     0.00000     0.00000     1.25520  0.0
    324    303    304    305   5     0.00000     0.00000     1.25520  0.0
    324    303    304    325   5     0.00000     0.00000     1.25520  0.0
    324    303    304    326   5     0.00000     0.00000     1.25520  0.0
    303    304    305    306   5     4.74884    -0.63178     1.67360  0.0
    303    304    305    327   5     0.00000     0.00000     1.25520  0.0
    303    304    305    328   5     0.00000     0.00000     1.25520  0.0
    325    304    305    306   5     0.00000     0.00000     1.25520  0.0
    325    304    305    327   5     0.00000     0.00000     1.25520  0.0
    325    304    305    328   5     0.00000     0.00000     1.25520  0.0
    326    304    305    306   5     0.00000     0.00000     1.25520  0.0
    326    304    305    327   5     0.00000     0.00000     1.25520  0.0
    326    304    305    328   5     0.00000     0.00000     1.25520  0.0
    304    305    306    307   5     4.74884    -0.63178     1.67360  0.0
    304    305    306    329   5     0.00000     0.00000     1.25520  0.0
    304    305    306    330   5     0.00000     0.00000     1.25520  0.0
    327    305    306    307   5     0.00000     0.00000     1.25520  0.0
    327    305    306    329   5     0.00000     0.00000     1.25520  0.0
    327    305    306    330   5     0.00000     0.00000     1.25520  0.0
    328    305    306    307   5     0.00000     0.00000     1.25520  0.0
    328    305    306    329   5     0.00000     0.00000     1.25520  0.0
    328    305    306    330   5     0.00000     0.00000     1.25520  0.0
    305    306    307    308   5     4.74884    -0.63178     1.67360  0.0
    305    306    307    331   5     0.00000     0.00000     1.25520  0.0
    305    306    307    332   5     0.00000     0.00000     1.25520  0.0
    329    306    307    308   5     0.00000     0.00000     1.25520  0.0
    329    306    307    331   5     0.00000     0.00000     1.25520  0.0
    329    306    307    332   5     0.00000     0.00000     1.25520  0.0
    330    306    307    308   5     0.00000     0.00000     1.25520  0.0
    330    306    307    331   5     0.00000     0.00000     1.25520  0.0
    330    306    307    332   5     0.00000     0.00000     1.25520  0.0
    306    307    308    309   5     4.74884    -0.63178     1.67360  0.0
    306    307    308    333   5     0.00000     0.00000     1.25520  0.0
    306    307    308    334   5     0.00000     0.00000     1.25520  0.0
    331    307    308    309   5     0.00000     0.00000     1.25520  0.0
    331    307    308    333   5     0.00000     0.00000     1.25520  0.0
    331    307    308    334   5     0.00000     0.00000     1.25520  0.0
    332    307    308    309   5     0.00000     0.00000     1.25520  0.0
    332    307    308    333   5     0.00000     0.00000     1.25520  0.0
    332    307    308    334   5     0.00000     0.00000     1.25520  0.0
    307    308    309    335   5     0.00000     0.00000     1.25520  0.0
    307    308    309    336   5     0.00000     0.00000     1.25520  0.0
    307    308    309    337   5     0.00000     0.00000     1.25520  0.0
    333    308    309    335   5     0.00000     0.00000     1.25520  0.0
    333    308    309    336   5     0.00000     0.00000     1.25520  0.0
    333    308    309    337   5     0.00000     0.00000     1.25520  0.0
    334    308    309    335   5     0.00000     0.00000     1.25520  0.0
    334    308    309    336   5     0.00000     0.00000     1.25520  0.0
    334    308    309    337   5     0.00000     0.00000     1.25520  0.0
    297    338    339    340   5     4.74884    -0.63178     1.67360  0.0
    297    338    339    354   5     0.00000     0.00000     1.25520  0.0
    297    338    339    380   5     4.74884    -0.63178     1.67360  0.0
    352    338    339    340   5     0.00000     0.00000     1.25520  0.0
    352    338    339    354   5     0.00000     0.00000     1.25520  0.0
    352    338    339    380   5     0.00000     0.00000     1.25520  0.0
    353    338    339    340   5     0.00000     0.00000     1.25520  0.0
    353    338    339    354   5     0.00000     0.00000     1.25520  0.0
    353    338    339    380   5     0.00000     0.00000     1.25520  0.0
    338    339    340    341   5     4.74884    -0.63178     1.67360  0.0
    338    339    340    355   5     0.00000     0.00000     1.25520  0.0
    338    339    340    356   5     0.00000     0.00000     1.25520  0.0
    354    339    340    341   5     0.00000     0.00000     1.25520  0.0
    354    339    340    355   5     0.00000     0.00000     1.25520  0.0
    354    339    340    356   5     0.00000     0.00000     1.25520  0.0
    380    339    340    341   5     4.74884    -0.63178     1.67360  0.0
    380    339    340    355   5     0.00000     0.00000     1.25520  0.0
    380    339    340    356   5     0.00000     0.00000     1.25520  0.0
    338    339    380    381   5     4.74884    -0.63178     1.67360  0.0
    338    339    380    394   5     0.00000     0.00000     1.25520  0.0
    338    339    380    395   5     0.00000     0.00000     1.25520  0.0
    340    339    380    381   5     4.74884    -0.63178     1.67360  0.0
    340    339    380    394   5     0.00000     0.00000     1.25520  0.0
    340    339    380    395   5     0.00000     0.00000     1.25520  0.0
    354    339    380    381   5     0.00000     0.00000     1.25520  0.0
    354    339    380    394   5     0.00000     0.00000     1.25520  0.0
    354    339    380    395   5     0.00000     0.00000     1.25520  0.0
    339    340    341    342   5     4.74884    -0.63178     1.67360  0.0
    339    340    341    357   5     0.00000     0.00000     1.25520  0.0
    339    340    341    358   5     0.00000     0.00000     1.25520  0.0
    355    340    341    342   5     0.00000     0.00000     1.25520  0.0
    355    340    341    357   5     0.00000     0.00000     1.25520  0.0
    355    340    341    358   5     0.00000     0.00000     1.25520  0.0
    356    340    341    342   5     0.00000     0.00000     1.25520  0.0
    356    340    341    357   5     0.00000     0.00000     1.25520  0.0
    356    340    341    358   5     0.00000     0.00000     1.25520  0.0
    340    341    342    343   5     4.74884    -0.63178     1.67360  0.0
    340    341    342    359   5     0.00000     0.00000     1.25520  0.0
    340    341    342    360   5     0.00000     0.00000     1.25520  0.0
    357    341    342    343   5     0.00000     0.00000     1.25520  0.0
    357    341    342    359   5     0.00000     0.00000     1.25520  0.0
    357    341    342    360   5     0.00000     0.00000     1.25520  0.0
    358    341    342    343   5     0.00000     0.00000     1.25520  0.0
    358    341    342    359   5     0.00000     0.00000     1.25520  0.0
    358    341    342    360   5     0.00000     0.00000     1.25520  0.0
    341    342    343    344   5     4.74884    -0.63178     1.67360  0.0
    341    342    343    361   5     0.00000     0.00000     1.25520  0.0
    341    342    343    362   5     0.00000     0.00000     1.25520  0.0
    359    342    343    344   5     0.00000     0.00000     1.25520  0.0
    359    342    343    361   5     0.00000     0.00000     1.25520  0.0
    359    342    343    362   5     0.00000     0.00000     1.25520  0.0
    360    342    343    344   5     0.00000     0.00000     1.25520  0.0
    360    342    343    361   5     0.00000     0.00000     1.25520  0.0
    360    342    343    362   5     0.00000     0.00000     1.25520  0.0
    342    343    344    345   5     4.74884    -0.63178     1.67360  0.0
    342    343    344    363   5     0.00000     0.00000     1.25520  0.0
    342    343    344    364   5     0.00000     0.00000     1.25520  0.0
    361    343    344    345   5     0.00000     0.00000     1.25520  0.0
    361    343    344    363   5     0.00000     0.00000     1.25520  0.0
    361    343    344    364   5     0.00000     0.00000     1.25520  0.0
    362    343    344    345   5     0.00000     0.00000     1.25520  0.0
    362    343    344    363   5     0.00000     0.00000     1.25520  0.0
    362    343    344    364   5     0.00000     0.00000     1.25520  0.0
    343    344    345    346   5     4.74884    -0.63178     1.67360  0.0
    343    344    345    365   5     0.00000     0.00000     1.25520  0.0
    343    344    345    366   5     0.00000     0.00000     1.25520  0.0
    363    344    345    346   5     0.00000     0.00000     1.25520  0.0
    363    344    345    365   5     0.00000     0.00000     1.25520  0.0
    363    344    345    366   5     0.00000     0.00000     1.25520  0.0
    364    344    345    346   5     0.00000     0.00000     1.25520  0.0
    364    344    345    365   5     0.00000     0.00000     1.25520  0.0
    364    344    345    366   5     0.00000     0.00000     1.25520  0.0
    344    345    346    347   5     4.74884    -0.63178     1.67360  0.0
    344    345    346    367   5     0.00000     0.00000     1.25520  0.0
    344    345    346    368   5     0.00000     0.00000     1.25520  0.0
    365    345    346    347   5     0.00000     0.00000     1.25520  0.0
    365    345    346    367   5     0.00000     0.00000     1.25520  0.0
    365    345    346    368   5     0.00000     0.00000     1.25520  0.0
    366    345    346    347   5     0.00000     0.00000     1.25520  0.0
    366    345    346    367   5     0.00000     0.00000     1.25520  0.0
    366    345    346    368   5     0.00000     0.00000     1.25520  0.0
    345    346    347    348   5     4.74884    -0.63178     1.67360  0.0
    345    346    347    369   5     0.00000     0.00000     1.25520  0.0
    345    346    347    370   5     0.00000     0.00000     1.25520  0.0
    367    346    347    348   5     0.00000     0.00000     1.25520  0.0
    367    346    347    369   5     0.00000     0.00000     1.25520  0.0
    367    346    347    370   5     0.00000     0.00000     1.25520  0.0
    368    346    347    348   5     0.00000     0.00000     1.25520  0.0
    368    346    347    369   5     0.00000     0.00000     1.25520  0.0
    368    346    347    370   5     0.00000     0.00000     1.25520  0.0
    346    347    348    349   5     4.74884    -0.63178     1.67360  0.0
    346    347    348    371   5     0.00000     0.00000     1.25520  0.0
    346    347    348    372   5     0.00000     0.00000     1.25520  0.0
    369    347    348    349   5     0.00000     0.00000     1.25520  0.0
    369    347    348    371   5     0.00000     0.00000     1.25520  0.0
    369    347    348    372   5     0.00000     0.00000     1.25520  0.0
    370    347    348    349   5     0.00000     0.00000     1.25520  0.0
    370    347    348    371   5     0.00000     0.00000     1.25520  0.0
    370    347    348    372   5     0.00000     0.00000     1.25520  0.0
    347    348    349    350   5     4.74884    -0.63178     1.67360  0.0
    347    348    349    373   5     0.00000     0.00000     1.25520  0.0
    347    348    349    374   5     0.00000     0.00000     1.25520  0.0
    371    348    349    350   5     0.00000     0.00000     1.25520  0.0
    371    348    349    373   5     0.00000     0.00000     1.25520  0.0
    371    348    349    374   5     0.00000     0.00000     1.25520  0.0
    372    348    349    350   5     0.00000     0.00000     1.25520  0.0
    372    348    349    373   5     0.00000     0.00000     1.25520  0.0
    372    348    349    374   5     0.00000     0.00000     1.25520  0.0
    348    349    350    351   5     4.74884    -0.63178     1.67360  0.0
    348    349    350    375   5     0.00000     0.00000     1.25520  0.0
    348    349    350    376   5     0.00000     0.00000     1.25520  0.0
    373    349    350    351   5     0.00000     0.00000     1.25520  0.0
    373    349    350    375   5     0.00000     0.00000     1.25520  0.0
    373    349    350    376   5     0.00000     0.00000     1.25520  0.0
    374    349    350    351   5     0.00000     0.00000     1.25520  0.0
    374    349    350    375   5     0.00000     0.00000     1.25520  0.0
    374    349    350    376   5     0.00000     0.00000     1.25520  0.0
    349    350    351    377   5     0.00000     0.00000     1.25520  0.0
    349    350    351    378   5     0.00000     0.00000     1.25520  0.0
    349    350    351    379   5     0.00000     0.00000     1.25520  0.0
    375    350    351    377   5     0.00000     0.00000     1.25520  0.0
    375    350    351    378   5     0.00000     0.00000     1.25520  0.0
    375    350    351    379   5     0.00000     0.00000     1.25520  0.0
    376    350    351    377   5     0.00000     0.00000     1.25520  0.0
    376    350    351    378   5     0.00000     0.00000     1.25520  0.0
    376    350    351    379   5     0.00000     0.00000     1.25520  0.0
    339    380    381    382   5     4.74884    -0.63178     1.67360  0.0
    339    380    381    396   5     0.00000     0.00000     1.25520  0.0
    339    380    381    422   5     4.74884    -0.63178     1.67360  0.0
    394    380    381    382   5     0.00000     0.00000     1.25520  0.0
    394    380    381    396   5     0.00000     0.00000     1.25520  0.0
    394    380    381    422   5     0.00000     0.00000     1.25520  0.0
    395    380    381    382   5     0.00000     0.00000     1.25520  0.0
    395    380    381    396   5     0.00000     0.00000     1.25520  0.0
    395    380    381    422   5     0.00000     0.00000     1.25520  0.0
    380    381    382    383   5     4.74884    -0.63178     1.67360  0.0
    380    381    382    397   5     0.00000     0.00000     1.25520  0.0
    380    381    382    398   5     0.00000     0.00000     1.25520  0.0
    396    381    382    383   5     0.00000     0.00000     1.25520  0.0
    396    381    382    397   5     0.00000     0.00000     1.25520  0.0
    396    381    382    398   5     0.00000     0.00000     1.25520  0.0
    422    381    382    383   5     4.74884    -0.63178     1.67360  0.0
    422    381    382    397   5     0.00000     0.00000     1.25520  0.0
    422    381    382    398   5     0.00000     0.00000     1.25520  0.0
    380    381    422    423   5     4.74884    -0.63178     1.67360  0.0
    380    381    422    436   5     0.00000     0.00000     1.25520  0.0
    380    381    422    437   5     0.00000     0.00000     1.25520  0.0
    382    381    422    423   5     4.74884    -0.63178     1.67360  0.0
    382    381    422    436   5     0.00000     0.00000     1.25520  0.0
    382    381    422    437   5     0.00000     0.00000     1.25520  0.0
    396    381    422    423   5     0.00000     0.00000     1.25520  0.0
    396    381    422    436   5     0.00000     0.00000     1.25520  0.0
    396    381    422    437   5     0.00000     0.00000     1.25520  0.0
    381    382    383    384   5     4.74884    -0.63178     1.67360  0.0
    381    382    383    399   5     0.00000     0.00000     1.25520  0.0
    381    382    383    400   5     0.00000     0.00000     1.25520  0.0
    397    382    383    384   5     0.00000     0.00000     1.25520  0.0
    397    382    383    399   5     0.00000     0.00000     1.25520  0.0
    397    382    383    400   5     0.00000     0.00000     1.25520  0.0
    398    382    383    384   5     0.00000     0.00000     1.25520  0.0
    398    382    383    399   5     0.00000     0.00000     1.25520  0.0
    398    382    383    400   5     0.00000     0.00000     1.25520  0.0
    382    383    384    385   5     4.74884    -0.63178     1.67360  0.0
    382    383    384    401   5     0.00000     0.00000     1.25520  0.0
    382    383    384    402   5     0.00000     0.00000     1.25520  0.0
    399    383    384    385   5     0.00000     0.00000     1.25520  0.0
    399    383    384    401   5     0.00000     0.00000     1.25520  0.0
    399    383    384    402   5     0.00000     0.00000     1.25520  0.0
    400    383    384    385   5     0.00000     0.00000     1.25520  0.0
    400    383    384    401   5     0.00000     0.00000     1.25520  0.0
    400    383    384    402   5     0.00000     0.00000     1.25520  0.0
    383    384    385    386   5     4.74884    -0.63178     1.67360  0.0
    383    384    385    403   5     0.00000     0.00000     1.25520  0.0
    383    384    385    404   5     0.00000     0.00000     1.25520  0.0
    401    384    385    386   5     0.00000     0.00000     1.25520  0.0
    401    384    385    403   5     0.00000     0.00000     1.25520  0.0
    401    384    385    404   5     0.00000     0.00000     1.25520  0.0
    402    384    385    386   5     0.00000     0.00000     1.25520  0.0
    402    384    385    403   5     0.00000     0.00000     1.25520  0.0
    402    384    385    404   5     0.00000     0.00000     1.25520  0.0
    384    385    386    387   5     4.74884    -0.63178     1.67360  0.0
    384    385    386    405   5     0.00000     0.00000     1.25520  0.0
    384    385    386    406   5     0.00000     0.00000     1.25520  0.0
    403    385    386    387   5     0.00000     0.00000     1.25520  0.0
    403    385    386    405   5     0.00000     0.00000     1.25520  0.0
    403    385    386    406   5     0.00000     0.00000     1.25520  0.0
    404    385    386    387   5     0.00000     0.00000     1.25520  0.0
    404    385    386    405   5     0.00000     0.00000     1.25520  0.0
    404    385    386    406   5     0.00000     0.00000     1.25520  0.0
    385    386    387    388   5     4.74884    -0.63178     1.67360  0.0
    385    386    387    407   5     0.00000     0.00000     1.25520  0.0
    385    386    387    408   5     0.00000     0.00000     1.25520  0.0
    405    386    387    388   5     0.00000     0.00000     1.25520  0.0
    405    386    387    407   5     0.00000     0.00000     1.25520  0.0
    405    386    387    408   5     0.00000     0.00000     1.25520  0.0
    406    386    387    388   5     0.00000     0.00000     1.25520  0.0
    406    386    387    407   5     0.00000     0.00000     1.25520  0.0
    406    386    387    408   5     0.00000     0.00000     1.25520  0.0
    386    387    388    389   5     4.74884    -0.63178     1.67360  0.0
    386    387    388    409   5     0.00000     0.00000     1.25520  0.0
    386    387    388    410   5     0.00000     0.00000     1.25520  0.0
    407    387    388    389   5     0.00000     0.00000     1.25520  0.0
    407    387    388    409   5     0.00000     0.00000     1.25520  0.0
    407    387    388    410   5     0.00000     0.00000     1.25520  0.0
    408    387    388    389   5     0.00000     0.00000     1.25520  0.0
    408    387    388    409   5     0.00000     0.00000     1.25520  0.0
    408    387    388    410   5     0.00000     0.00000     1.25520  0.0
    387    388    389    390   5     4.74884    -0.63178     1.67360  0.0
    387    388    389    411   5     0.00000     0.00000     1.25520  0.0
    387    388    389    412   5     0.00000     0.00000     1.25520  0.0
    409    388    389    390   5     0.00000     0.00000     1.25520  0.0
    409    388    389    411   5     0.00000     0.00000     1.25520  0.0
    409    388    389    412   5     0.00000     0.00000     1.25520  0.0
    410    388    389    390   5     0.00000     0.00000     1.25520  0.0
    410    388    389    411   5     0.00000     0.00000     1.25520  0.0
    410    388    389    412   5     0.00000     0.00000     1.25520  0.0
    388    389    390    391   5     4.74884    -0.63178     1.67360  0.0
    388    389    390    413   5     0.00000     0.00000     1.25520  0.0
    388    389    390    414   5     0.00000     0.00000     1.25520  0.0
    411    389    390    391   5     0.00000     0.00000     1.25520  0.0
    411    389    390    413   5     0.00000     0.00000     1.25520  0.0
    411    389    390    414   5     0.00000     0.00000     1.25520  0.0
    412    389    390    391   5     0.00000     0.00000     1.25520  0.0
    412    389    390    413   5     0.00000     0.00000     1.25520  0.0
    412    389    390    414   5     0.00000     0.00000     1.25520  0.0
    389    390    391    392   5     4.74884    -0.63178     1.67360  0.0
    389    390    391    415   5     0.00000     0.00000     1.25520  0.0
    389    390    391    416   5     0.00000     0.00000     1.25520  0.0
    413    390    391    392   5     0.00000     0.00000     1.25520  0.0
    413    390    391    415   5     0.00000     0.00000     1.25520  0.0
    413    390    391    416   5     0.00000     0.00000     1.25520  0.0
    414    390    391    392   5     0.00000     0.00000     1.25520  0.0
    414    390    391    415   5     0.00000     0.00000     1.25520  0.0
    414    390    391    416   5     0.00000     0.00000     1.25520  0.0
    390    391    392    393   5     4.74884    -0.63178     1.67360  0.0
    390    391    392    417   5     0.00000     0.00000     1.25520  0.0
    390    391    392    418   5     0.00000     0.00000     1.25520  0.0
    415    391    392    393   5     0.00000     0.00000     1.25520  0.0
    415    391    392    417   5     0.00000     0.00000     1.25520  0.0
    415    391    392    418   5     0.00000     0.00000     1.25520  0.0
    416    391    392    393   5     0.00000     0.00000     1.25520  0.0
    416    391    392    417   5     0.00000     0.00000     1.25520  0.0
    416    391    392    418   5     0.00000     0.00000     1.25520  0.0
    391    392    393    419   5     0.00000     0.00000     1.25520  0.0
    391    392    393    420   5     0.00000     0.00000     1.25520  0.0
    391    392    393    421   5     0.00000     0.00000     1.25520  0.0
    417    392    393    419   5     0.00000     0.00000     1.25520  0.0
    417    392    393    420   5     0.00000     0.00000     1.25520  0.0
    417    392    393    421   5     0.00000     0.00000     1.25520  0.0
    418    392    393    419   5     0.00000     0.00000     1.25520  0.0
    418    392    393    420   5     0.00000     0.00000     1.25520  0.0
    418    392    393    421   5     0.00000     0.00000     1.25520  0.0
    381    422    423    424   5     4.74884    -0.63178     1.67360  0.0
    381    422    423    438   5     0.00000     0.00000     1.25520  0.0
    381    422    423    464   5     4.74884    -0.63178     1.67360  0.0
    436    422    423    424   5     0.00000     0.00000     1.25520  0.0
    436    422    423    438   5     0.00000     0.00000     1.25520  0.0
    436    422    423    464   5     0.00000     0.00000     1.25520  0.0
    437    422    423    424   5     0.00000     0.00000     1.25520  0.0
    437    422    423    438   5     0.00000     0.00000     1.25520  0.0
    437    422    423    464   5     0.00000     0.00000     1.25520  0.0
    422    423    424    425   5     4.74884    -0.63178     1.67360  0.0
    422    423    424    439   5     0.00000     0.00000     1.25520  0.0
    422    423    424    440   5     0.00000     0.00000     1.25520  0.0
    438    423    424    425   5     0.00000     0.00000     1.25520  0.0
    438    423    424    439   5     0.00000     0.00000     1.25520  0.0
    438    423    424    440   5     0.00000     0.00000     1.25520  0.0
    464    423    424    425   5     4.74884    -0.63178     1.67360  0.0
    464    423    424    439   5     0.00000     0.00000     1.25520  0.0
    464    423    424    440   5     0.00000     0.00000     1.25520  0.0
    422    423    464    465   5     4.74884    -0.63178     1.67360  0.0
    422    423    464    478   5     0.00000     0.00000     1.25520  0.0
    422    423    464    479   5     0.00000     0.00000     1.25520  0.0
    424    423    464    465   5     4.74884    -0.63178     1.67360  0.0
    424    423    464    478   5     0.00000     0.00000     1.25520  0.0
    424    423    464    479   5     0.00000     0.00000     1.25520  0.0
    438    423    464    465   5     0.00000     0.00000     1.25520  0.0
    438    423    464    478   5     0.00000     0.00000     1.25520  0.0
    438    423    464    479   5     0.00000     0.00000     1.25520  0.0
    423    424    425    426   5     4.74884    -0.63178     1.67360  0.0
    423    424    425    441   5     0.00000     0.00000     1.25520  0.0
    423    424    425    442   5     0.00000     0.00000     1.25520  0.0
    439    424    425    426   5     0.00000     0.00000     1.25520  0.0
    439    424    425    441   5     0.00000     0.00000     1.25520  0.0
    439    424    425    442   5     0.00000     0.00000     1.25520  0.0
    440    424    425    426   5     0.00000     0.00000     1.25520  0.0
    440    424    425    441   5     0.00000     0.00000     1.25520  0.0
    440    424    425    442   5     0.00000     0.00000     1.25520  0.0
    424    425    426    427   5     4.74884    -0.63178     1.67360  0.0
    424    425    426    443   5     0.00000     0.00000     1.25520  0.0
    424    425    426    444   5     0.00000     0.00000     1.25520  0.0
    441    425    426    427   5     0.00000     0.00000     1.25520  0.0
    441    425    426    443   5     0.00000     0.00000     1.25520  0.0
    441    425    426    444   5     0.00000     0.00000     1.25520  0.0
    442    425    426    427   5     0.00000     0.00000     1.25520  0.0
    442    425    426    443   5     0.00000     0.00000     1.25520  0.0
    442    425    426    444   5     0.00000     0.00000     1.25520  0.0
    425    426    427    428   5     4.74884    -0.63178     1.67360  0.0
    425    426    427    445   5     0.00000     0.00000     1.25520  0.0
    425    426    427    446   5     0.00000     0.00000     1.25520  0.0
    443    426    427    428   5     0.00000     0.00000     1.25520  0.0
    443    426    427    445   5     0.00000     0.00000     1.25520  0.0
    443    426    427    446   5     0.00000     0.00000     1.25520  0.0
    444    426    427    428   5     0.00000     0.00000     1.25520  0.0
    444    426    427    445   5     0.00000     0.00000     1.25520  0.0
    444    426    427    446   5     0.00000     0.00000     1.25520  0.0
    426    427    428    429   5     4.74884    -0.63178     1.67360  0.0
    426    427    428    447   5     0.00000     0.00000     1.25520  0.0
    426    427    428    448   5     0.00000     0.00000     1.25520  0.0
    445    427    428    429   5     0.00000     0.00000     1.25520  0.0
    445    427    428    447   5     0.00000     0.00000     1.25520  0.0
    445    427    428    448   5     0.00000     0.00000     1.25520  0.0
    446    427    428    429   5     0.00000     0.00000     1.25520  0.0
    446    427    428    447   5     0.00000     0.00000     1.25520  0.0
    446    427    428    448   5     0.00000     0.00000     1.25520  0.0
    427    428    429    430   5     4.74884    -0.63178     1.67360  0.0
    427    428    429    449   5     0.00000     0.00000     1.25520  0.0
    427    428    429    450   5     0.00000     0.00000     1.25520  0.0
    447    428    429    430   5     0.00000     0.00000     1.25520  0.0
    447    428    429    449   5     0.00000     0.00000     1.25520  0.0
    447    428    429    450   5     0.00000     0.00000     1.25520  0.0
    448    428    429    430   5     0.00000     0.00000     1.25520  0.0
    448    428    429    449   5     0.00000     0.00000     1.25520  0.0
    448    428    429    450   5     0.00000     0.00000     1.25520  0.0
    428    429    430    431   5     4.74884    -0.63178     1.67360  0.0
    428    429    430    451   5     0.00000     0.00000     1.25520  0.0
    428    429    430    452   5     0.00000     0.00000     1.25520  0.0
    449    429    430    431   5     0.00000     0.00000     1.25520  0.0
    449    429    430    451   5     0.00000     0.00000     1.25520  0.0
    449    429    430    452   5     0.00000     0.00000     1.25520  0.0
    450    429    430    431   5     0.00000     0.00000     1.25520  0.0
    450    429    430    451   5     0.00000     0.00000     1.25520  0.0
    450    429    430    452   5     0.00000     0.00000     1.25520  0.0
    429    430    431    432   5     4.74884    -0.63178     1.67360  0.0
    429    430    431    453   5     0.00000     0.00000     1.25520  0.0
    429    430    431    454   5     0.00000     0.00000     1.25520  0.0
    451    430    431    432   5     0.00000     0.00000     1.25520  0.0
    451    430    431    453   5     0.00000     0.00000     1.25520  0.0
    451    430    431    454   5     0.00000     0.00000     1.25520  0.0
    452    430    431    432   5     0.00000     0.00000     1.25520  0.0
    452    430    431    453   5     0.00000     0.00000     1.25520  0.0
    452    430    431    454   5     0.00000     0.00000     1.25520  0.0
    430    431    432    433   5     4.74884    -0.63178     1.67360  0.0
    430    431    432    455   5     0.00000     0.00000     1.25520  0.0
    430    431    432    456   5     0.00000     0.00000     1.25520  0.0
    453    431    432    433   5     0.00000     0.00000     1.25520  0.0
    453    431    432    455   5     0.00000     0.00000     1.25520  0.0
    453    431    432    456   5     0.00000     0.00000     1.25520  0.0
    454    431    432    433   5     0.00000     0.00000     1.25520  0.0
    454    431    432    455   5     0.00000     0.00000     1.25520  0.0
    454    431    432    456   5     0.00000     0.00000     1.25520  0.0
    431    432    433    434   5     4.74884    -0.63178     1.67360  0.0
    431    432    433    457   5     0.00000     0.00000     1.25520  0.0
    431    432    433    458   5     0.00000     0.00000     1.25520  0.0
    455    432    433    434   5     0.00000     0.00000     1.25520  0.0
    455    432    433    457   5     0.00000     0.00000     1.25520  0.0
    455    432    433    458   5     0.00000     0.00000     1.25520  0.0
    456    432    433    434   5     0.00000     0.00000     1.25520  0.0
    456    432    433    457   5     0.00000     0.00000     1.25520  0.0
    456    432    433    458   5     0.00000     0.00000     1.25520  0.0
    432    433    434    435   5     4.74884    -0.63178     1.67360  0.0
    432    433    434    459   5     0.00000     0.00000     1.25520  0.0
    432    433    434    460   5     0.00000     0.00000     1.25520  0.0
    457    433    434    435   5     0.00000     0.00000     1.25520  0.0
    457    433    434    459   5     0.00000     0.00000     1.25520  0.0
    457    433    434    460   5     0.00000     0.00000     1.25520  0.0
    458    433    434    435   5     0.00000     0.00000     1.25520  0.0
    458    433    434    459   5     0.00000     0.00000     1.25520  0.0
    458    433    434    460   5     0.00000     0.00000     1.25520  0.0
    433    434    435    461   5     0.00000     0.00000     1.25520  0.0
    433    434    435    462   5     0.00000     0.00000     1.25520  0.0
    433    434    435    463   5     0.00000     0.00000     1.25520  0.0
    459    434    435    461   5     0.00000     0.00000     1.25520  0.0
    459    434    435    462   5     0.00000     0.00000     1.25520  0.0
    459    434    435    463   5     0.00000     0.00000     1.25520  0.0
    460    434    435    461   5     0.00000     0.00000     1.25520  0.0
    460    434    435    462   5     0.00000     0.00000     1.25520  0.0
    460    434    435    463   5     0.00000     0.00000     1.25520  0.0
    423    464    465    466   5     4.74884    -0.63178     1.67360  0.0
    423    464    465    480   5     0.00000     0.00000     1.25520  0.0
    423    464    465    506   5     4.74884    -0.63178     1.67360  0.0
    478    464    465    466   5     0.00000     0.00000     1.25520  0.0
    478    464    465    480   5     0.00000     0.00000     1.25520  0.0
    478    464    465    506   5     0.00000     0.00000     1.25520  0.0
    479    464    465    466   5     0.00000     0.00000     1.25520  0.0
    479    464    465    480   5     0.00000     0.00000     1.25520  0.0
    479    464    465    506   5     0.00000     0.00000     1.25520  0.0
    464    465    466    467   5     4.74884    -0.63178     1.67360  0.0
    464    465    466    481   5     0.00000     0.00000     1.25520  0.0
    464    465    466    482   5     0.00000     0.00000     1.25520  0.0
    480    465    466    467   5     0.00000     0.00000     1.25520  0.0
    480    465    466    481   5     0.00000     0.00000     1.25520  0.0
    480    465    466    482   5     0.00000     0.00000     1.25520  0.0
    506    465    466    467   5     4.74884    -0.63178     1.67360  0.0
    506    465    466    481   5     0.00000     0.00000     1.25520  0.0
    506    465    466    482   5     0.00000     0.00000     1.25520  0.0
    464    465    506    507   5     4.74884    -0.63178     1.67360  0.0
    464    465    506    520   5     0.00000     0.00000     1.25520  0.0
    464    465    506    521   5     0.00000     0.00000     1.25520  0.0
    466    465    506    507   5     4.74884    -0.63178     1.67360  0.0
    466    465    506    520   5     0.00000     0.00000     1.25520  0.0
    466    465    506    521   5     0.00000     0.00000     1.25520  0.0
    480    465    506    507   5     0.00000     0.00000     1.25520  0.0
    480    465    506    520   5     0.00000     0.00000     1.25520  0.0
    480    465    506    521   5     0.00000     0.00000     1.25520  0.0
    465    466    467    468   5     4.74884    -0.63178     1.67360  0.0
    465    466    467    483   5     0.00000     0.00000     1.25520  0.0
    465    466    467    484   5     0.00000     0.00000     1.25520  0.0
    481    466    467    468   5     0.00000     0.00000     1.25520  0.0
    481    466    467    483   5     0.00000     0.00000     1.25520  0.0
    481    466    467    484   5     0.00000     0.00000     1.25520  0.0
    482    466    467    468   5     0.00000     0.00000     1.25520  0.0
    482    466    467    483   5     0.00000     0.00000     1.25520  0.0
    482    466    467    484   5     0.00000     0.00000     1.25520  0.0
    466    467    468    469   5     4.74884    -0.63178     1.67360  0.0
    466    467    468    485   5     0.00000     0.00000     1.25520  0.0
    466    467    468    486   5     0.00000     0.00000     1.25520  0.0
    483    467    468    469   5     0.00000     0.00000     1.25520  0.0
    483    467    468    485   5     0.00000     0.00000     1.25520  0.0
    483    467    468    486   5     0.00000     0.00000     1.25520  0.0
    484    467    468    469   5     0.00000     0.00000     1.25520  0.0
    484    467    468    485   5     0.00000     0.00000     1.25520  0.0
    484    467    468    486   5     0.00000     0.00000     1.25520  0.0
    467    468    469    470   5     4.74884    -0.63178     1.67360  0.0
    467    468    469    487   5     0.00000     0.00000     1.25520  0.0
    467    468    469    488   5     0.00000     0.00000     1.25520  0.0
    485    468    469    470   5     0.00000     0.00000     1.25520  0.0
    485    468    469    487   5     0.00000     0.00000     1.25520  0.0
    485    468    469    488   5     0.00000     0.00000     1.25520  0.0
    486    468    469    470   5     0.00000     0.00000     1.25520  0.0
    486    468    469    487   5     0.00000     0.00000     1.25520  0.0
    486    468    469    488   5     0.00000     0.00000     1.25520  0.0
    468    469    470    471   5     4.74884    -0.63178     1.67360  0.0
    468    469    470    489   5     0.00000     0.00000     1.25520  0.0
    468    469    470    490   5     0.00000     0.00000     1.25520  0.0
    487    469    470    471   5     0.00000     0.00000     1.25520  0.0
    487    469    470    489   5     0.00000     0.00000     1.25520  0.0
    487    469    470    490   5     0.00000     0.00000     1.25520  0.0
    488    469    470    471   5     0.00000     0.00000     1.25520  0.0
    488    469    470    489   5     0.00000     0.00000     1.25520  0.0
    488    469    470    490   5     0.00000     0.00000     1.25520  0.0
    469    470    471    472   5     4.74884    -0.63178     1.67360  0.0
    469    470    471    491   5     0.00000     0.00000     1.25520  0.0
    469    470    471    492   5     0.00000     0.00000     1.25520  0.0
    489    470    471    472   5     0.00000     0.00000     1.25520  0.0
    489    470    471    491   5     0.00000     0.00000     1.25520  0.0
    489    470    471    492   5     0.00000     0.00000     1.25520  0.0
    490    470    471    472   5     0.00000     0.00000     1.25520  0.0
    490    470    471    491   5     0.00000     0.00000     1.25520  0.0
    490    470    471    492   5     0.00000     0.00000     1.25520  0.0
    470    471    472    473   5     4.74884    -0.63178     1.67360  0.0
    470    471    472    493   5     0.00000     0.00000     1.25520  0.0
    470    471    472    494   5     0.00000     0.00000     1.25520  0.0
    491    471    472    473   5     0.00000     0.00000     1.25520  0.0
    491    471    472    493   5     0.00000     0.00000     1.25520  0.0
    491    471    472    494   5     0.00000     0.00000     1.25520  0.0
    492    471    472    473   5     0.00000     0.00000     1.25520  0.0
    492    471    472    493   5     0.00000     0.00000     1.25520  0.0
    492    471    472    494   5     0.00000     0.00000     1.25520  0.0
    471    472    473    474   5     4.74884    -0.63178     1.67360  0.0
    471    472    473    495   5     0.00000     0.00000     1.25520  0.0
    471    472    473    496   5     0.00000     0.00000     1.25520  0.0
    493    472    473    474   5     0.00000     0.00000     1.25520  0.0
    493    472    473    495   5     0.00000     0.00000     1.25520  0.0
    493    472    473    496   5     0.00000     0.00000     1.25520  0.0
    494    472    473    474   5     0.00000     0.00000     1.25520  0.0
    494    472    473    495   5     0.00000     0.00000     1.25520  0.0
    494    472    473    496   5     0.00000     0.00000     1.25520  0.0
    472    473    474    475   5     4.74884    -0.63178     1.67360  0.0
    472    473    474    497   5     0.00000     0.00000     1.25520  0.0
    472    473    474    498   5     0.00000     0.00000     1.25520  0.0
    495    473    474    475   5     0.00000     0.00000     1.25520  0.0
    495    473    474    497   5     0.00000     0.00000     1.25520  0.0
    495    473    474    498   5     0.00000     0.00000     1.25520  0.0
    496    473    474    475   5     0.00000     0.00000     1.25520  0.0
    496    473    474    497   5     0.00000     0.00000     1.25520  0.0
    496    473    474    498   5     0.00000     0.00000     1.25520  0.0
    473    474    475    476   5     4.74884    -0.63178     1.67360  0.0
    473    474    475    499   5     0.00000     0.00000     1.25520  0.0
    473    474    475    500   5     0.00000     0.00000     1.25520  0.0
    497    474    475    476   5     0.00000     0.00000     1.25520  0.0
    497    474    475    499   5     0.00000     0.00000     1.25520  0.0
    497    474    475    500   5     0.00000     0.00000     1.25520  0.0
    498    474    475    476   5     0.00000     0.00000     1.25520  0.0
    498    474    475    499   5     0.00000     0.00000     1.25520  0.0
    498    474    475    500   5     0.00000     0.00000     1.25520  0.0
    474    475    476    477   5     4.74884    -0.63178     1.67360  0.0
    474    475    476    501   5     0.00000     0.00000     1.25520  0.0
    474    475    476    502   5     0.00000     0.00000     1.25520  0.0
    499    475    476    477   5     0.00000     0.00000     1.25520  0.0
    499    475    476    501   5     0.00000     0.00000     1.25520  0.0
    499    475    476    502   5     0.00000     0.00000     1.25520  0.0
    500    475    476    477   5     0.00000     0.00000     1.25520  0.0
    500    475    476    501   5     0.00000     0.00000     1.25520  0.0
    500    475    476    502   5     0.00000     0.00000     1.25520  0.0
    475    476    477    503   5     0.00000     0.00000     1.25520  0.0
    475    476    477    504   5     0.00000     0.00000     1.25520  0.0
    475    476    477    505   5     0.00000     0.00000     1.25520  0.0
    501    476    477    503   5     0.00000     0.00000     1.25520  0.0
    501    476    477    504   5     0.00000     0.00000     1.25520  0.0
    501    476    477    505   5     0.00000     0.00000     1.25520  0.0
    502    476    477    503   5     0.00000     0.00000     1.25520  0.0
    502    476    477    504   5     0.00000     0.00000     1.25520  0.0
    502    476    477    505   5     0.00000     0.00000     1.25520  0.0
    465    506    507    508   5     4.74884    -0.63178     1.67360  0.0
    465    506    507    522   5     0.00000     0.00000     1.25520  0.0
    465    506    507    548   5     4.74884    -0.63178     1.67360  0.0
    520    506    507    508   5     0.00000     0.00000     1.25520  0.0
    520    506    507    522   5     0.00000     0.00000     1.25520  0.0
    520    506    507    548   5     0.00000     0.00000     1.25520  0.0
    521    506    507    508   5     0.00000     0.00000     1.25520  0.0
    521    506    507    522   5     0.00000     0.00000     1.25520  0.0
    521    506    507    548   5     0.00000     0.00000     1.25520  0.0
    506    507    508    509   5     4.74884    -0.63178     1.67360  0.0
    506    507    508    523   5     0.00000     0.00000     1.25520  0.0
    506    507    508    524   5     0.00000     0.00000     1.25520  0.0
    522    507    508    509   5     0.00000     0.00000     1.25520  0.0
    522    507    508    523   5     0.00000     0.00000     1.25520  0.0
    522    507    508    524   5     0.00000     0.00000     1.25520  0.0
    548    507    508    509   5     4.74884    -0.63178     1.67360  0.0
    548    507    508    523   5     0.00000     0.00000     1.25520  0.0
    548    507    508    524   5     0.00000     0.00000     1.25520  0.0
    506    507    548    549   5     4.74884    -0.63178     1.67360  0.0
    506    507    548    562   5     0.00000     0.00000     1.25520  0.0
    506    507    548    563   5     0.00000     0.00000     1.25520  0.0
    508    507    548    549   5     4.74884    -0.63178     1.67360  0.0
    508    507    548    562   5     0.00000     0.00000     1.25520  0.0
    508    507    548    563   5     0.00000     0.00000     1.25520  0.0
    522    507    548    549   5     0.00000     0.00000     1.25520  0.0
    522    507    548    562   5     0.00000     0.00000     1.25520  0.0
    522    507    548    563   5     0.00000     0.00000     1.25520  0.0
    507    508    509    510   5     4.74884    -0.63178     1.67360  0.0
    507    508    509    525   5     0.00000     0.00000     1.25520  0.0
    507    508    509    526   5     0.00000     0.00000     1.25520  0.0
    523    508    509    510   5     0.00000     0.00000     1.25520  0.0
    523    508    509    525   5     0.00000     0.00000     1.25520  0.0
    523    508    509    526   5     0.00000     0.00000     1.25520  0.0
    524    508    509    510   5     0.00000     0.00000     1.25520  0.0
    524    508    509    525   5     0.00000     0.00000     1.25520  0.0
    524    508    509    526   5     0.00000     0.00000     1.25520  0.0
    508    509    510    511   5     4.74884    -0.63178     1.67360  0.0
    508    509    510    527   5     0.00000     0.00000     1.25520  0.0
    508    509    510    528   5     0.00000     0.00000     1.25520  0.0
    525    509    510    511   5     0.00000     0.00000     1.25520  0.0
    525    509    510    527   5     0.00000     0.00000     1.25520  0.0
    525    509    510    528   5     0.00000     0.00000     1.25520  0.0
    526    509    510    511   5     0.00000     0.00000     1.25520  0.0
    526    509    510    527   5     0.00000     0.00000     1.25520  0.0
    526    509    510    528   5     0.00000     0.00000     1.25520  0.0
    509    510    511    512   5     4.74884    -0.63178     1.67360  0.0
    509    510    511    529   5     0.00000     0.00000     1.25520  0.0
    509    510    511    530   5     0.00000     0.00000     1.25520  0.0
    527    510    511    512   5     0.00000     0.00000     1.25520  0.0
    527    510    511    529   5     0.00000     0.00000     1.25520  0.0
    527    510    511    530   5     0.00000     0.00000     1.25520  0.0
    528    510    511    512   5     0.00000     0.00000     1.25520  0.0
    528    510    511    529   5     0.00000     0.00000     1.25520  0.0
    528    510    511    530   5     0.00000     0.00000     1.25520  0.0
    510    511    512    513   5     4.74884    -0.63178     1.67360  0.0
    510    511    512    531   5     0.00000     0.00000     1.25520  0.0
    510    511    512    532   5     0.00000     0.00000     1.25520  0.0
    529    511    512    513   5     0.00000     0.00000     1.25520  0.0
    529    511    512    531   5     0.00000     0.00000     1.25520  0.0
    529    511    512    532   5     0.00000     0.00000     1.25520  0.0
    530    511    512    513   5     0.00000     0.00000     1.25520  0.0
    530    511    512    531   5     0.00000     0.00000     1.25520  0.0
    530    511    512    532   5     0.00000     0.00000     1.25520  0.0
    511    512    513    514   5     4.74884    -0.63178     1.67360  0.0
    511    512    513    533   5     0.00000     0.00000     1.25520  0.0
    511    512    513    534   5     0.00000     0.00000     1.25520  0.0
    531    512    513    514   5     0.00000     0.00000     1.25520  0.0
    531    512    513    533   5     0.00000     0.00000     1.25520  0.0
    531    512    513    534   5     0.00000     0.00000     1.25520  0.0
    532    512    513    514   5     0.00000     0.00000     1.25520  0.0
    532    512    513    533   5     0.00000     0.00000     1.25520  0.0
    532    512    513    534   5     0.00000     0.00000     1.25520  0.0
    512    513    514    515   5     4.74884    -0.63178     1.67360  0.0
    512    513    514    535   5     0.00000     0.00000     1.25520  0.0
    512    513    514    536   5     0.00000     0.00000     1.25520  0.0
    533    513    514    515   5     0.00000     0.00000     1.25520  0.0
    533    513    514    535   5     0.00000     0.00000     1.25520  0.0
    533    513    514    536   5     0.00000     0.00000     1.25520  0.0
    534    513    514    515   5     0.00000     0.00000     1.25520  0.0
    534    513    514    535   5     0.00000     0.00000     1.25520  0.0
    534    513    514    536   5     0.00000     0.00000     1.25520  0.0
    513    514    515    516   5     4.74884    -0.63178     1.67360  0.0
    513    514    515    537   5     0.00000     0.00000     1.25520  0.0
    513    514    515    538   5     0.00000     0.00000     1.25520  0.0
    535    514    515    516   5     0.00000     0.00000     1.25520  0.0
    535    514    515    537   5     0.00000     0.00000     1.25520  0.0
    535    514    515    538   5     0.00000     0.00000     1.25520  0.0
    536    514    515    516   5     0.00000     0.00000     1.25520  0.0
    536    514    515    537   5     0.00000     0.00000     1.25520  0.0
    536    514    515    538   5     0.00000     0.00000     1.25520  0.0
    514    515    516    517   5     4.74884    -0.63178     1.67360  0.0
    514    515    516    539   5     0.00000     0.00000     1.25520  0.0
    514    515    516    540   5     0.00000     0.00000     1.25520  0.0
    537    515    516    517   5     0.00000     0.00000     1.25520  0.0
    537    515    516    539   5     0.00000     0.00000     1.25520  0.0
    537    515    516    540   5     0.00000     0.00000     1.25520  0.0
    538    515    516    517   5     0.00000     0.00000     1.25520  0.0
    538    515    516    539   5     0.00000     0.00000     1.25520  0.0
    538    515    516    540   5     0.00000     0.00000     1.25520  0.0
    515    516    517    518   5     4.74884    -0.63178     1.67360  0.0
    515    516    517    541   5     0.00000     0.00000     1.25520  0.0
    515    516    517    542   5     0.00000     0.00000     1.25520  0.0
    539    516    517    518   5     0.00000     0.00000     1.25520  0.0
    539    516    517    541   5     0.00000     0.00000     1.25520  0.0
    539    516    517    542   5     0.00000     0.00000     1.25520  0.0
    540    516    517    518   5     0.00000     0.00000     1.25520  0.0
    540    516    517    541   5     0.00000     0.00000     1.25520  0.0
    540    516    517    542   5     0.00000     0.00000     1.25520  0.0
    516    517    518    519   5     4.74884    -0.63178     1.67360  0.0
    516    517    518    543   5     0.00000     0.00000     1.25520  0.0
    516    517    518    544   5     0.00000     0.00000     1.25520  0.0
    541    517    518    519   5     0.00000     0.00000     1.25520  0.0
    541    517    518    543   5     0.00000     0.00000     1.25520  0.0
    541    517    518    544   5     0.00000     0.00000     1.25520  0.0
    542    517    518    519   5     0.00000     0.00000     1.25520  0.0
    542    517    518    543   5     0.00000     0.00000     1.25520  0.0
    542    517    518    544   5     0.00000     0.00000     1.25520  0.0
    517    518    519    545   5     0.00000     0.00000     1.25520  0.0
    517    518    519    546   5     0.00000     0.00000     1.25520  0.0
    517    518    519    547   5     0.00000     0.00000     1.25520  0.0
    543    518    519    545   5     0.00000     0.00000     1.25520  0.0
    543    518    519    546   5     0.00000     0.00000     1.25520  0.0
    543    518    519    547   5     0.00000     0.00000     1.25520  0.0
    544    518    519    545   5     0.00000     0.00000     1.25520  0.0
    544    518    519    546   5     0.00000     0.00000     1.25520  0.0
    544    518    519    547   5     0.00000     0.00000     1.25520  0.0
    507    548    549    550   5     4.74884    -0.63178     1.67360  0.0
    507    548    549    564   5     0.00000     0.00000     1.25520  0.0
    507    548    549    590   5     4.74884    -0.63178     1.67360  0.0
    562    548    549    550   5     0.00000     0.00000     1.25520  0.0
    562    548    549    564   5     0.00000     0.00000     1.25520  0.0
    562    548    549    590   5     0.00000     0.00000     1.25520  0.0
    563    548    549    550   5     0.00000     0.00000     1.25520  0.0
    563    548    549    564   5     0.00000     0.00000     1.25520  0.0
    563    548    549    590   5     0.00000     0.00000     1.25520  0.0
    548    549    550    551   5     4.74884    -0.63178     1.67360  0.0
    548    549    550    565   5     0.00000     0.00000     1.25520  0.0
    548    549    550    566   5     0.00000     0.00000     1.25520  0.0
    564    549    550    551   5     0.00000     0.00000     1.25520  0.0
    564    549    550    565   5     0.00000     0.00000     1.25520  0.0
    564    549    550    566   5     0.00000     0.00000     1.25520  0.0
    590    549    550    551   5     4.74884    -0.63178     1.67360  0.0
    590    549    550    565   5     0.00000     0.00000     1.25520  0.0
    590    549    550    566   5     0.00000     0.00000     1.25520  0.0
    548    549    590    591   5     4.74884    -0.63178     1.67360  0.0
    548    549    590    604   5     0.00000     0.00000     1.25520  0.0
    548    549    590    605   5     0.00000     0.00000     1.25520  0.0
    550    549    590    591   5     4.74884    -0.63178     1.67360  0.0
    550    549    590    604   5     0.00000     0.00000     1.25520  0.0
    550    549    590    605   5     0.00000     0.00000     1.25520  0.0
    564    549    590    591   5     0.00000     0.00000     1.25520  0.0
    564    549    590    604   5     0.00000     0.00000     1.25520  0.0
    564    549    590    605   5     0.00000     0.00000     1.25520  0.0
    549    550    551    552   5     4.74884    -0.63178     1.67360  0.0
    549    550    551    567   5     0.00000     0.00000     1.25520  0.0
    549    550    551    568   5     0.00000     0.00000     1.25520  0.0
    565    550    551    552   5     0.00000     0.00000     1.25520  0.0
    565    550    551    567   5     0.00000     0.00000     1.25520  0.0
    565    550    551    568   5     0.00000     0.00000     1.25520  0.0
    566    550    551    552   5     0.00000     0.00000     1.25520  0.0
    566    550    551    567   5     0.00000     0.00000     1.25520  0.0
    566    550    551    568   5     0.00000     0.00000     1.25520  0.0
    550    551    552    553   5     4.74884    -0.63178     1.67360  0.0
    550    551    552    569   5     0.00000     0.00000     1.25520  0.0
    550    551    552    570   5     0.00000     0.00000     1.25520  0.0
    567    551    552    553   5     0.00000     0.00000     1.25520  0.0
    567    551    552    569   5     0.00000     0.00000     1.25520  0.0
    567    551    552    570   5     0.00000     0.00000     1.25520  0.0
    568    551    552    553   5     0.00000     0.00000     1.25520  0.0
    568    551    552    569   5     0.00000     0.00000     1.25520  0.0
    568    551    552    570   5     0.00000     0.00000     1.25520  0.0
    551    552    553    554   5     4.74884    -0.63178     1.67360  0.0
    551    552    553    571   5     0.00000     0.00000     1.25520  0.0
    551    552    553    572   5     0.00000     0.00000     1.25520  0.0
    569    552    553    554   5     0.00000     0.00000     1.25520  0.0
    569    552    553    571   5     0.00000     0.00000     1.25520  0.0
    569    552    553    572   5     0.00000     0.00000     1.25520  0.0
    570    552    553    554   5     0.00000     0.00000     1.25520  0.0
    570    552    553    571   5     0.00000     0.00000     1.25520  0.0
    570    552    553    572   5     0.00000     0.00000     1.25520  0.0
    552    553    554    555   5     4.74884    -0.63178     1.67360  0.0
    552    553    554    573   5     0.00000     0.00000     1.25520  0.0
    552    553    554    574   5     0.00000     0.00000     1.25520  0.0
    571    553    554    555   5     0.00000     0.00000     1.25520  0.0
    571    553    554    573   5     0.00000     0.00000     1.25520  0.0
    571    553    554    574   5     0.00000     0.00000     1.25520  0.0
    572    553    554    555   5     0.00000     0.00000     1.25520  0.0
    572    553    554    573   5     0.00000     0.00000     1.25520  0.0
    572    553    554    574   5     0.00000     0.00000     1.25520  0.0
    553    554    555    556   5     4.74884    -0.63178     1.67360  0.0
    553    554    555    575   5     0.00000     0.00000     1.25520  0.0
    553    554    555    576   5     0.00000     0.00000     1.25520  0.0
    573    554    555    556   5     0.00000     0.00000     1.25520  0.0
    573    554    555    575   5     0.00000     0.00000     1.25520  0.0
    573    554    555    576   5     0.00000     0.00000     1.25520  0.0
    574    554    555    556   5     0.00000     0.00000     1.25520  0.0
    574    554    555    575   5     0.00000     0.00000     1.25520  0.0
    574    554    555    576   5     0.00000     0.00000     1.25520  0.0
    554    555    556    557   5     4.74884    -0.63178     1.67360  0.0
    554    555    556    577   5     0.00000     0.00000     1.25520  0.0
    554    555    556    578   5     0.00000     0.00000     1.25520  0.0
    575    555    556    557   5     0.00000     0.00000     1.25520  0.0
    575    555    556    577   5     0.00000     0.00000     1.25520  0.0
    575    555    556    578   5     0.00000     0.00000     1.25520  0.0
    576    555    556    557   5     0.00000     0.00000     1.25520  0.0
    576    555    556    577   5     0.00000     0.00000     1.25520  0.0
    576    555    556    578   5     0.00000     0.00000     1.25520  0.0
    555    556    557    558   5     4.74884    -0.63178     1.67360  0.0
    555    556    557    579   5     0.00000     0.00000     1.25520  0.0
    555    556    557    580   5     0.00000     0.00000     1.25520  0.0
    577    556    557    558   5     0.00000     0.00000     1.25520  0.0
    577    556    557    579   5     0.00000     0.00000     1.25520  0.0
    577    556    557    580   5     0.00000     0.00000     1.25520  0.0
    578    556    557    558   5     0.00000     0.00000     1.25520  0.0
    578    556    557    579   5     0.00000     0.00000     1.25520  0.0
    578    556    557    580   5     0.00000     0.00000     1.25520  0.0
    556    557    558    559   5     4.74884    -0.63178     1.67360  0.0
    556    557    558    581   5     0.00000     0.00000     1.25520  0.0
    556    557    558    582   5     0.00000     0.00000     1.25520  0.0
    579    557    558    559   5     0.00000     0.00000     1.25520  0.0
    579    557    558    581   5     0.00000     0.00000     1.25520  0.0
    579    557    558    582   5     0.00000     0.00000     1.25520  0.0
    580    557    558    559   5     0.00000     0.00000     1.25520  0.0
    580    557    558    581   5     0.00000     0.00000     1.25520  0.0
    580    557    558    582   5     0.00000     0.00000     1.25520  0.0
    557    558    559    560   5     4.74884    -0.63178     1.67360  0.0
    557    558    559    583   5     0.00000     0.00000     1.25520  0.0
    557    558    559    584   5     0.00000     0.00000     1.25520  0.0
    581    558    559    560   5     0.00000     0.00000     1.25520  0.0
    581    558    559    583   5     0.00000     0.00000     1.25520  0.0
    581    558    559    584   5     0.00000     0.00000     1.25520  0.0
    582    558    559    560   5     0.00000     0.00000     1.25520  0.0
    582    558    559    583   5     0.00000     0.00000     1.25520  0.0
    582    558    559    584   5     0.00000     0.00000     1.25520  0.0
    558    559    560    561   5     4.74884    -0.63178     1.67360  0.0
    558    559    560    585   5     0.00000     0.00000     1.25520  0.0
    558    559    560    586   5     0.00000     0.00000     1.25520  0.0
    583    559    560    561   5     0.00000     0.00000     1.25520  0.0
    583    559    560    585   5     0.00000     0.00000     1.25520  0.0
    583    559    560    586   5     0.00000     0.00000     1.25520  0.0
    584    559    560    561   5     0.00000     0.00000     1.25520  0.0
    584    559    560    585   5     0.00000     0.00000     1.25520  0.0
    584    559    560    586   5     0.00000     0.00000     1.25520  0.0
    559    560    561    587   5     0.00000     0.00000     1.25520  0.0
    559    560    561    588   5     0.00000     0.00000     1.25520  0.0
    559    560    561    589   5     0.00000     0.00000     1.25520  0.0
    585    560    561    587   5     0.00000     0.00000     1.25520  0.0
    585    560    561    588   5     0.00000     0.00000     1.25520  0.0
    585    560    561    589   5     0.00000     0.00000     1.25520  0.0
    586    560    561    587   5     0.00000     0.00000     1.25520  0.0
    586    560    561    588   5     0.00000     0.00000     1.25520  0.0
    586    560    561    589   5     0.00000     0.00000     1.25520  0.0
    549    590    591    592   5     4.74884    -0.63178     1.67360  0.0
    549    590    591    606   5     0.00000     0.00000     1.25520  0.0
    549    590    591    632   5     4.74884    -0.63178     1.67360  0.0
    604    590    591    592   5     0.00000     0.00000     1.25520  0.0
    604    590    591    606   5     0.00000     0.00000     1.25520  0.0
    604    590    591    632   5     0.00000     0.00000     1.25520  0.0
    605    590    591    592   5     0.00000     0.00000     1.25520  0.0
    605    590    591    606   5     0.00000     0.00000     1.25520  0.0
    605    590    591    632   5     0.00000     0.00000     1.25520  0.0
    590    591    592    593   5     4.74884    -0.63178     1.67360  0.0
    590    591    592    607   5     0.00000     0.00000     1.25520  0.0
    590    591    592    608   5     0.00000     0.00000     1.25520  0.0
    606    591    592    593   5     0.00000     0.00000     1.25520  0.0
    606    591    592    607   5     0.00000     0.00000     1.25520  0.0
    606    591    592    608   5     0.00000     0.00000     1.25520  0.0
    632    591    592    593   5     4.74884    -0.63178     1.67360  0.0
    632    591    592    607   5     0.00000     0.00000     1.25520  0.0
    632    591    592    608   5     0.00000     0.00000     1.25520  0.0
    590    591    632    633   5     4.74884    -0.63178     1.67360  0.0
    590    591    632    646   5     0.00000     0.00000     1.25520  0.0
    590    591    632    647   5     0.00000     0.00000     1.25520  0.0
    592    591    632    633   5     4.74884    -0.63178     1.67360  0.0
    592    591    632    646   5     0.00000     0.00000     1.25520  0.0
    592    591    632    647   5     0.00000     0.00000     1.25520  0.0
    606    591    632    633   5     0.00000     0.00000     1.25520  0.0
    606    591    632    646   5     0.00000     0.00000     1.25520  0.0
    606    591    632    647   5     0.00000     0.00000     1.25520  0.0
    591    592    593    594   5     4.74884    -0.63178     1.67360  0.0
    591    592    593    609   5     0.00000     0.00000     1.25520  0.0
    591    592    593    610   5     0.00000     0.00000     1.25520  0.0
    607    592    593    594   5     0.00000     0.00000     1.25520  0.0
    607    592    593    609   5     0.00000     0.00000     1.25520  0.0
    607    592    593    610   5     0.00000     0.00000     1.25520  0.0
    608    592    593    594   5     0.00000     0.00000     1.25520  0.0
    608    592    593    609   5     0.00000     0.00000     1.25520  0.0
    608    592    593    610   5     0.00000     0.00000     1.25520  0.0
    592    593    594    595   5     4.74884    -0.63178     1.67360  0.0
    592    593    594    611   5     0.00000     0.00000     1.25520  0.0
    592    593    594    612   5     0.00000     0.00000     1.25520  0.0
    609    593    594    595   5     0.00000     0.00000     1.25520  0.0
    609    593    594    611   5     0.00000     0.00000     1.25520  0.0
    609    593    594    612   5     0.00000     0.00000     1.25520  0.0
    610    593    594    595   5     0.00000     0.00000     1.25520  0.0
    610    593    594    611   5     0.00000     0.00000     1.25520  0.0
    610    593    594    612   5     0.00000     0.00000     1.25520  0.0
    593    594    595    596   5     4.74884    -0.63178     1.67360  0.0
    593    594    595    613   5     0.00000     0.00000     1.25520  0.0
    593    594    595    614   5     0.00000     0.00000     1.25520  0.0
    611    594    595    596   5     0.00000     0.00000     1.25520  0.0
    611    594    595    613   5     0.00000     0.00000     1.25520  0.0
    611    594    595    614   5     0.00000     0.00000     1.25520  0.0
    612    594    595    596   5     0.00000     0.00000     1.25520  0.0
    612    594    595    613   5     0.00000     0.00000     1.25520  0.0
    612    594    595    614   5     0.00000     0.00000     1.25520  0.0
    594    595    596    597   5     4.74884    -0.63178     1.67360  0.0
    594    595    596    615   5     0.00000     0.00000     1.25520  0.0
    594    595    596    616   5     0.00000     0.00000     1.25520  0.0
    613    595    596    597   5     0.00000     0.00000     1.25520  0.0
    613    595    596    615   5     0.00000     0.00000     1.25520  0.0
    613    595    596    616   5     0.00000     0.00000     1.25520  0.0
    614    595    596    597   5     0.00000     0.00000     1.25520  0.0
    614    595    596    615   5     0.00000     0.00000     1.25520  0.0
    614    595    596    616   5     0.00000     0.00000     1.25520  0.0
    595    596    597    598   5     4.74884    -0.63178     1.67360  0.0
    595    596    597    617   5     0.00000     0.00000     1.25520  0.0
    595    596    597    618   5     0.00000     0.00000     1.25520  0.0
    615    596    597    598   5     0.00000     0.00000     1.25520  0.0
    615    596    597    617   5     0.00000     0.00000     1.25520  0.0
    615    596    597    618   5     0.00000     0.00000     1.25520  0.0
    616    596    597    598   5     0.00000     0.00000     1.25520  0.0
    616    596    597    617   5     0.00000     0.00000     1.25520  0.0
    616    596    597    618   5     0.00000     0.00000     1.25520  0.0
    596    597    598    599   5     4.74884    -0.63178     1.67360  0.0
    596    597    598    619   5     0.00000     0.00000     1.25520  0.0
    596    597    598    620   5     0.00000     0.00000     1.25520  0.0
    617    597    598    599   5     0.00000     0.00000     1.25520  0.0
    617    597    598    619   5     0.00000     0.00000     1.25520  0.0
    617    597    598    620   5     0.00000     0.00000     1.25520  0.0
    618    597    598    599   5     0.00000     0.00000     1.25520  0.0
    618    597    598    619   5     0.00000     0.00000     1.25520  0.0
    618    597    598    620   5     0.00000     0.00000     1.25520  0.0
    597    598    599    600   5     4.74884    -0.63178     1.67360  0.0
    597    598    599    621   5     0.00000     0.00000     1.25520  0.0
    597    598    599    622   5     0.00000     0.00000     1.25520  0.0
    619    598    599    600   5     0.00000     0.00000     1.25520  0.0
    619    598    599    621   5     0.00000     0.00000     1.25520  0.0
    619    598    599    622   5     0.00000     0.00000     1.25520  0.0
    620    598    599    600   5     0.00000     0.00000     1.25520  0.0
    620    598    599    621   5     0.00000     0.00000     1.25520  0.0
    620    598    599    622   5     0.00000     0.00000     1.25520  0.0
    598    599    600    601   5     4.74884    -0.63178     1.67360  0.0
    598    599    600    623   5     0.00000     0.00000     1.25520  0.0
    598    599    600    624   5     0.00000     0.00000     1.25520  0.0
    621    599    600    601   5     0.00000     0.00000     1.25520  0.0
    621    599    600    623   5     0.00000     0.00000     1.25520  0.0
    621    599    600    624   5     0.00000     0.00000     1.25520  0.0
    622    599    600    601   5     0.00000     0.00000     1.25520  0.0
    622    599    600    623   5     0.00000     0.00000     1.25520  0.0
    622    599    600    624   5     0.00000     0.00000     1.25520  0.0
    599    600    601    602   5     4.74884    -0.63178     1.67360  0.0
    599    600    601    625   5     0.00000     0.00000     1.25520  0.0
    599    600    601    626   5     0.00000     0.00000     1.25520  0.0
    623    600    601    602   5     0.00000     0.00000     1.25520  0.0
    623    600    601    625   5     0.00000     0.00000     1.25520  0.0
    623    600    601    626   5     0.00000     0.00000     1.25520  0.0
    624    600    601    602   5     0.00000     0.00000     1.25520  0.0
    624    600    601    625   5     0.00000     0.00000     1.25520  0.0
    624    600    601    626   5     0.00000     0.00000     1.25520  0.0
    600    601    602    603   5     4.74884    -0.63178     1.67360  0.0
    600    601    602    627   5     0.00000     0.00000     1.25520  0.0
    600    601    602    628   5     0.00000     0.00000     1.25520  0.0
    625    601    602    603   5     0.00000     0.00000     1.25520  0.0
    625    601    602    627   5     0.00000     0.00000     1.25520  0.0
    625    601    602    628   5     0.00000     0.00000     1.25520  0.0
    626    601    602    603   5     0.00000     0.00000     1.25520  0.0
    626    601    602    627   5     0.00000     0.00000     1.25520  0.0
    626    601    602    628   5     0.00000     0.00000     1.25520  0.0
    601    602    603    629   5     0.00000     0.00000     1.25520  0.0
    601    602    603    630   5     0.00000     0.00000     1.25520  0.0
    601    602    603    631   5     0.00000     0.00000     1.25520  0.0
    627    602    603    629   5     0.00000     0.00000     1.25520  0.0
    627    602    603    630   5     0.00000     0.00000     1.25520  0.0
    627    602    603    631   5     0.00000     0.00000     1.25520  0.0
    628    602    603    629   5     0.00000     0.00000     1.25520  0.0
    628    602    603    630   5     0.00000     0.00000     1.25520  0.0
    628    602    603    631   5     0.00000     0.00000     1.25520  0.0
    591    632    633    634   5     4.74884    -0.63178     1.67360  0.0
    591    632    633    648   5     0.00000     0.00000     1.25520  0.0
    591    632    633    674   5     4.74884    -0.63178     1.67360  0.0
    646    632    633    634   5     0.00000     0.00000     1.25520  0.0
    646    632    633    648   5     0.00000     0.00000     1.25520  0.0
    646    632    633    674   5     0.00000     0.00000     1.25520  0.0
    647    632    633    634   5     0.00000     0.00000     1.25520  0.0
    647    632    633    648   5     0.00000     0.00000     1.25520  0.0
    647    632    633    674   5     0.00000     0.00000     1.25520  0.0
    632    633    634    635   5     4.74884    -0.63178     1.67360  0.0
    632    633    634    649   5     0.00000     0.00000     1.25520  0.0
    632    633    634    650   5     0.00000     0.00000     1.25520  0.0
    648    633    634    635   5     0.00000     0.00000     1.25520  0.0
    648    633    634    649   5     0.00000     0.00000     1.25520  0.0
    648    633    634    650   5     0.00000     0.00000     1.25520  0.0
    674    633    634    635   5     4.74884    -0.63178     1.67360  0.0
    674    633    634    649   5     0.00000     0.00000     1.25520  0.0
    674    633    634    650   5     0.00000     0.00000     1.25520  0.0
    632    633    674    675   5     4.74884    -0.63178     1.67360  0.0
    632    633    674    688   5     0.00000     0.00000     1.25520  0.0
    632    633    674    689   5     0.00000     0.00000     1.25520  0.0
    634    633    674    675   5     4.74884    -0.63178     1.67360  0.0
    634    633    674    688   5     0.00000     0.00000     1.25520  0.0
    634    633    674    689   5     0.00000     0.00000     1.25520  0.0
    648    633    674    675   5     0.00000     0.00000     1.25520  0.0
    648    633    674    688   5     0.00000     0.00000     1.25520  0.0
    648    633    674    689   5     0.00000     0.00000     1.25520  0.0
    633    634    635    636   5     4.74884    -0.63178     1.67360  0.0
    633    634    635    651   5     0.00000     0.00000     1.25520  0.0
    633    634    635    652   5     0.00000     0.00000     1.25520  0.0
    649    634    635    636   5     0.00000     0.00000     1.25520  0.0
    649    634    635    651   5     0.00000     0.00000     1.25520  0.0
    649    634    635    652   5     0.00000     0.00000     1.25520  0.0
    650    634    635    636   5     0.00000     0.00000     1.25520  0.0
    650    634    635    651   5     0.00000     0.00000     1.25520  0.0
    650    634    635    652   5     0.00000     0.00000     1.25520  0.0
    634    635    636    637   5     4.74884    -0.63178     1.67360  0.0
    634    635    636    653   5     0.00000     0.00000     1.25520  0.0
    634    635    636    654   5     0.00000     0.00000     1.25520  0.0
    651    635    636    637   5     0.00000     0.00000     1.25520  0.0
    651    635    636    653   5     0.00000     0.00000     1.25520  0.0
    651    635    636    654   5     0.00000     0.00000     1.25520  0.0
    652    635    636    637   5     0.00000     0.00000     1.25520  0.0
    652    635    636    653   5     0.00000     0.00000     1.25520  0.0
    652    635    636    654   5     0.00000     0.00000     1.25520  0.0
    635    636    637    638   5     4.74884    -0.63178     1.67360  0.0
    635    636    637    655   5     0.00000     0.00000     1.25520  0.0
    635    636    637    656   5     0.00000     0.00000     1.25520  0.0
    653    636    637    638   5     0.00000     0.00000     1.25520  0.0
    653    636    637    655   5     0.00000     0.00000     1.25520  0.0
    653    636    637    656   5     0.00000     0.00000     1.25520  0.0
    654    636    637    638   5     0.00000     0.00000     1.25520  0.0
    654    636    637    655   5     0.00000     0.00000     1.25520  0.0
    654    636    637    656   5     0.00000     0.00000     1.25520  0.0
    636    637    638    639   5     4.74884    -0.63178     1.67360  0.0
    636    637    638    657   5     0.00000     0.00000     1.25520  0.0
    636    637    638    658   5     0.00000     0.00000     1.25520  0.0
    655    637    638    639   5     0.00000     0.00000     1.25520  0.0
    655    637    638    657   5     0.00000     0.00000     1.25520  0.0
    655    637    638    658   5     0.00000     0.00000     1.25520  0.0
    656    637    638    639   5     0.00000     0.00000     1.25520  0.0
    656    637    638    657   5     0.00000     0.00000     1.25520  0.0
    656    637    638    658   5     0.00000     0.00000     1.25520  0.0
    637    638    639    640   5     4.74884    -0.63178     1.67360  0.0
    637    638    639    659   5     0.00000     0.00000     1.25520  0.0
    637    638    639    660   5     0.00000     0.00000     1.25520  0.0
    657    638    639    640   5     0.00000     0.00000     1.25520  0.0
    657    638    639    659   5     0.00000     0.00000     1.25520  0.0
    657    638    639    660   5     0.00000     0.00000     1.25520  0.0
    658    638    639    640   5     0.00000     0.00000     1.25520  0.0
    658    638    639    659   5     0.00000     0.00000     1.25520  0.0
    658    638    639    660   5     0.00000     0.00000     1.25520  0.0
    638    639    640    641   5     4.74884    -0.63178     1.67360  0.0
    638    639    640    661   5     0.00000     0.00000     1.25520  0.0
    638    639    640    662   5     0.00000     0.00000     1.25520  0.0
    659    639    640    641   5     0.00000     0.00000     1.25520  0.0
    659    639    640    661   5     0.00000     0.00000     1.25520  0.0
    659    639    640    662   5     0.00000     0.00000     1.25520  0.0
    660    639    640    641   5     0.00000     0.00000     1.25520  0.0
    660    639    640    661   5     0.00000     0.00000     1.25520  0.0
    660    639    640    662   5     0.00000     0.00000     1.25520  0.0
    639    640    641    642   5     4.74884    -0.63178     1.67360  0.0
    639    640    641    663   5     0.00000     0.00000     1.25520  0.0
    639    640    641    664   5     0.00000     0.00000     1.25520  0.0
    661    640    641    642   5     0.00000     0.00000     1.25520  0.0
    661    640    641    663   5     0.00000     0.00000     1.25520  0.0
    661    640    641    664   5     0.00000     0.00000     1.25520  0.0
    662    640    641    642   5     0.00000     0.00000     1.25520  0.0
    662    640    641    663   5     0.00000     0.00000     1.25520  0.0
    662    640    641    664   5     0.00000     0.00000     1.25520  0.0
    640    641    642    643   5     4.74884    -0.63178     1.67360  0.0
    640    641    642    665   5     0.00000     0.00000     1.25520  0.0
    640    641    642    666   5     0.00000     0.00000     1.25520  0.0
    663    641    642    643   5     0.00000     0.00000     1.25520  0.0
    663    641    642    665   5     0.00000     0.00000     1.25520  0.0
    663    641    642    666   5     0.00000     0.00000     1.25520  0.0
    664    641    642    643   5     0.00000     0.00000     1.25520  0.0
    664    641    642    665   5     0.00000     0.00000     1.25520  0.0
    664    641    642    666   5     0.00000     0.00000     1.25520  0.0
    641    642    643    644   5     4.74884    -0.63178     1.67360  0.0
    641    642    643    667   5     0.00000     0.00000     1.25520  0.0
    641    642    643    668   5     0.00000     0.00000     1.25520  0.0
    665    642    643    644   5     0.00000     0.00000     1.25520  0.0
    665    642    643    667   5     0.00000     0.00000     1.25520  0.0
    665    642    643    668   5     0.00000     0.00000     1.25520  0.0
    666    642    643    644   5     0.00000     0.00000     1.25520  0.0
    666    642    643    667   5     0.00000     0.00000     1.25520  0.0
    666    642    643    668   5     0.00000     0.00000     1.25520  0.0
    642    643    644    645   5     4.74884    -0.63178     1.67360  0.0
    642    643    644    669   5     0.00000     0.00000     1.25520  0.0
    642    643    644    670   5     0.00000     0.00000     1.25520  0.0
    667    643    644    645   5     0.00000     0.00000     1.25520  0.0
    667    643    644    669   5     0.00000     0.00000     1.25520  0.0
    667    643    644    670   5     0.00000     0.00000     1.25520  0.0
    668    643    644    645   5     0.00000     0.00000     1.25520  0.0
    668    643    644    669   5     0.00000     0.00000     1.25520  0.0
    668    643    644    670   5     0.00000     0.00000     1.25520  0.0
    643    644    645    671   5     0.00000     0.00000     1.25520  0.0
    643    644    645    672   5     0.00000     0.00000     1.25520  0.0
    643    644    645    673   5     0.00000     0.00000     1.25520  0.0
    669    644    645    671   5     0.00000     0.00000     1.25520  0.0
    669    644    645    672   5     0.00000     0.00000     1.25520  0.0
    669    644    645    673   5     0.00000     0.00000     1.25520  0.0
    670    644    645    671   5     0.00000     0.00000     1.25520  0.0
    670    644    645    672   5     0.00000     0.00000     1.25520  0.0
    670    644    645    673   5     0.00000     0.00000     1.25520  0.0
    633    674    675    676   5     4.74884    -0.63178     1.67360  0.0
    633    674    675    690   5     0.00000     0.00000     1.25520  0.0
    633    674    675    716   5     4.74884    -0.63178     1.67360  0.0
    688    674    675    676   5     0.00000     0.00000     1.25520  0.0
    688    674    675    690   5     0.00000     0.00000     1.25520  0.0
    688    674    675    716   5     0.00000     0.00000     1.25520  0.0
    689    674    675    676   5     0.00000     0.00000     1.25520  0.0
    689    674    675    690   5     0.00000     0.00000     1.25520  0.0
    689    674    675    716   5     0.00000     0.00000     1.25520  0.0
    674    675    676    677   5     4.74884    -0.63178     1.67360  0.0
    674    675    676    691   5     0.00000     0.00000     1.25520  0.0
    674    675    676    692   5     0.00000     0.00000     1.25520  0.0
    690    675    676    677   5     0.00000     0.00000     1.25520  0.0
    690    675    676    691   5     0.00000     0.00000     1.25520  0.0
    690    675    676    692   5     0.00000     0.00000     1.25520  0.0
    716    675    676    677   5     4.74884    -0.63178     1.67360  0.0
    716    675    676    691   5     0.00000     0.00000     1.25520  0.0
    716    675    676    692   5     0.00000     0.00000     1.25520  0.0
    674    675    716    717   5     4.74884    -0.63178     1.67360  0.0
    674    675    716    730   5     0.00000     0.00000     1.25520  0.0
    674    675    716    731   5     0.00000     0.00000     1.25520  0.0
    676    675    716    717   5     4.74884    -0.63178     1.67360  0.0
    676    675    716    730   5     0.00000     0.00000     1.25520  0.0
    676    675    716    731   5     0.00000     0.00000     1.25520  0.0
    690    675    716    717   5     0.00000     0.00000     1.25520  0.0
    690    675    716    730   5     0.00000     0.00000     1.25520  0.0
    690    675    716    731   5     0.00000     0.00000     1.25520  0.0
    675    676    677    678   5     4.74884    -0.63178     1.67360  0.0
    675    676    677    693   5     0.00000     0.00000     1.25520  0.0
    675    676    677    694   5     0.00000     0.00000     1.25520  0.0
    691    676    677    678   5     0.00000     0.00000     1.25520  0.0
    691    676    677    693   5     0.00000     0.00000     1.25520  0.0
    691    676    677    694   5     0.00000     0.00000     1.25520  0.0
    692    676    677    678   5     0.00000     0.00000     1.25520  0.0
    692    676    677    693   5     0.00000     0.00000     1.25520  0.0
    692    676    677    694   5     0.00000     0.00000     1.25520  0.0
    676    677    678    679   5     4.74884    -0.63178     1.67360  0.0
    676    677    678    695   5     0.00000     0.00000     1.25520  0.0
    676    677    678    696   5     0.00000     0.00000     1.25520  0.0
    693    677    678    679   5     0.00000     0.00000     1.25520  0.0
    693    677    678    695   5     0.00000     0.00000     1.25520  0.0
    693    677    678    696   5     0.00000     0.00000     1.25520  0.0
    694    677    678    679   5     0.00000     0.00000     1.25520  0.0
    694    677    678    695   5     0.00000     0.00000     1.25520  0.0
    694    677    678    696   5     0.00000     0.00000     1.25520  0.0
    677    678    679    680   5     4.74884    -0.63178     1.67360  0.0
    677    678    679    697   5     0.00000     0.00000     1.25520  0.0
    677    678    679    698   5     0.00000     0.00000     1.25520  0.0
    695    678    679    680   5     0.00000     0.00000     1.25520  0.0
    695    678    679    697   5     0.00000     0.00000     1.25520  0.0
    695    678    679    698   5     0.00000     0.00000     1.25520  0.0
    696    678    679    680   5     0.00000     0.00000     1.25520  0.0
    696    678    679    697   5     0.00000     0.00000     1.25520  0.0
    696    678    679    698   5     0.00000     0.00000     1.25520  0.0
    678    679    680    681   5     4.74884    -0.63178     1.67360  0.0
    678    679    680    699   5     0.00000     0.00000     1.25520  0.0
    678    679    680    700   5     0.00000     0.00000     1.25520  0.0
    697    679    680    681   5     0.00000     0.00000     1.25520  0.0
    697    679    680    699   5     0.00000     0.00000     1.25520  0.0
    697    679    680    700   5     0.00000     0.00000     1.25520  0.0
    698    679    680    681   5     0.00000     0.00000     1.25520  0.0
    698    679    680    699   5     0.00000     0.00000     1.25520  0.0
    698    679    680    700   5     0.00000     0.00000     1.25520  0.0
    679    680    681    682   5     4.74884    -0.63178     1.67360  0.0
    679    680    681    701   5     0.00000     0.00000     1.25520  0.0
    679    680    681    702   5     0.00000     0.00000     1.25520  0.0
    699    680    681    682   5     0.00000     0.00000     1.25520  0.0
    699    680    681    701   5     0.00000     0.00000     1.25520  0.0
    699    680    681    702   5     0.00000     0.00000     1.25520  0.0
    700    680    681    682   5     0.00000     0.00000     1.25520  0.0
    700    680    681    701   5     0.00000     0.00000     1.25520  0.0
    700    680    681    702   5     0.00000     0.00000     1.25520  0.0
    680    681    682    683   5     4.74884    -0.63178     1.67360  0.0
    680    681    682    703   5     0.00000     0.00000     1.25520  0.0
    680    681    682    704   5     0.00000     0.00000     1.25520  0.0
    701    681    682    683   5     0.00000     0.00000     1.25520  0.0
    701    681    682    703   5     0.00000     0.00000     1.25520  0.0
    701    681    682    704   5     0.00000     0.00000     1.25520  0.0
    702    681    682    683   5     0.00000     0.00000     1.25520  0.0
    702    681    682    703   5     0.00000     0.00000     1.25520  0.0
    702    681    682    704   5     0.00000     0.00000     1.25520  0.0
    681    682    683    684   5     4.74884    -0.63178     1.67360  0.0
    681    682    683    705   5     0.00000     0.00000     1.25520  0.0
    681    682    683    706   5     0.00000     0.00000     1.25520  0.0
    703    682    683    684   5     0.00000     0.00000     1.25520  0.0
    703    682    683    705   5     0.00000     0.00000     1.25520  0.0
    703    682    683    706   5     0.00000     0.00000     1.25520  0.0
    704    682    683    684   5     0.00000     0.00000     1.25520  0.0
    704    682    683    705   5     0.00000     0.00000     1.25520  0.0
    704    682    683    706   5     0.00000     0.00000     1.25520  0.0
    682    683    684    685   5     4.74884    -0.63178     1.67360  0.0
    682    683    684    707   5     0.00000     0.00000     1.25520  0.0
    682    683    684    708   5     0.00000     0.00000     1.25520  0.0
    705    683    684    685   5     0.00000     0.00000     1.25520  0.0
    705    683    684    707   5     0.00000     0.00000     1.25520  0.0
    705    683    684    708   5     0.00000     0.00000     1.25520  0.0
    706    683    684    685   5     0.00000     0.00000     1.25520  0.0
    706    683    684    707   5     0.00000     0.00000     1.25520  0.0
    706    683    684    708   5     0.00000     0.00000     1.25520  0.0
    683    684    685    686   5     4.74884    -0.63178     1.67360  0.0
    683    684    685    709   5     0.00000     0.00000     1.25520  0.0
    683    684    685    710   5     0.00000     0.00000     1.25520  0.0
    707    684    685    686   5     0.00000     0.00000     1.25520  0.0
    707    684    685    709   5     0.00000     0.00000     1.25520  0.0
    707    684    685    710   5     0.00000     0.00000     1.25520  0.0
    708    684    685    686   5     0.00000     0.00000     1.25520  0.0
    708    684    685    709   5     0.00000     0.00000     1.25520  0.0
    708    684    685    710   5     0.00000     0.00000     1.25520  0.0
    684    685    686    687   5     4.74884    -0.63178     1.67360  0.0
    684    685    686    711   5     0.00000     0.00000     1.25520  0.0
    684    685    686    712   5     0.00000     0.00000     1.25520  0.0
    709    685    686    687   5     0.00000     0.00000     1.25520  0.0
    709    685    686    711   5     0.00000     0.00000     1.25520  0.0
    709    685    686    712   5     0.00000     0.00000     1.25520  0.0
    710    685    686    687   5     0.00000     0.00000     1.25520  0.0
    710    685    686    711   5     0.00000     0.00000     1.25520  0.0
    710    685    686    712   5     0.00000     0.00000     1.25520  0.0
    685    686    687    713   5     0.00000     0.00000     1.25520  0.0
    685    686    687    714   5     0.00000     0.00000     1.25520  0.0
    685    686    687    715   5     0.00000     0.00000     1.25520  0.0
    711    686    687    713   5     0.00000     0.00000     1.25520  0.0
    711    686    687    714   5     0.00000     0.00000     1.25520  0.0
    711    686    687    715   5     0.00000     0.00000     1.25520  0.0
    712    686    687    713   5     0.00000     0.00000     1.25520  0.0
    712    686    687    714   5     0.00000     0.00000     1.25520  0.0
    712    686    687    715   5     0.00000     0.00000     1.25520  0.0
    675    716    717    718   5     4.74884    -0.63178     1.67360  0.0
    675    716    717    732   5     0.00000     0.00000     1.25520  0.0
    675    716    717    758   5     4.74884    -0.63178     1.67360  0.0
    730    716    717    718   5     0.00000     0.00000     1.25520  0.0
    730    716    717    732   5     0.00000     0.00000     1.25520  0.0
    730    716    717    758   5     0.00000     0.00000     1.25520  0.0
    731    716    717    718   5     0.00000     0.00000     1.25520  0.0
    731    716    717    732   5     0.00000     0.00000     1.25520  0.0
    731    716    717    758   5     0.00000     0.00000     1.25520  0.0
    716    717    718    719   5     4.74884    -0.63178     1.67360  0.0
    716    717    718    733   5     0.00000     0.00000     1.25520  0.0
    716    717    718    734   5     0.00000     0.00000     1.25520  0.0
    732    717    718    719   5     0.00000     0.00000     1.25520  0.0
    732    717    718    733   5     0.00000     0.00000     1.25520  0.0
    732    717    718    734   5     0.00000     0.00000     1.25520  0.0
    758    717    718    719   5     4.74884    -0.63178     1.67360  0.0
    758    717    718    733   5     0.00000     0.00000     1.25520  0.0
    758    717    718    734   5     0.00000     0.00000     1.25520  0.0
    716    717    758    759   5     4.74884    -0.63178     1.67360  0.0
    716    717    758    772   5     0.00000     0.00000     1.25520  0.0
    716    717    758    773   5     0.00000     0.00000     1.25520  0.0
    718    717    758    759   5     4.74884    -0.63178     1.67360  0.0
    718    717    758    772   5     0.00000     0.00000     1.25520  0.0
    718    717    758    773   5     0.00000     0.00000     1.25520  0.0
    732    717    758    759   5     0.00000     0.00000     1.25520  0.0
    732    717    758    772   5     0.00000     0.00000     1.25520  0.0
    732    717    758    773   5     0.00000     0.00000     1.25520  0.0
    717    718    719    720   5     4.74884    -0.63178     1.67360  0.0
    717    718    719    735   5     0.00000     0.00000     1.25520  0.0
    717    718    719    736   5     0.00000     0.00000     1.25520  0.0
    733    718    719    720   5     0.00000     0.00000     1.25520  0.0
    733    718    719    735   5     0.00000     0.00000     1.25520  0.0
    733    718    719    736   5     0.00000     0.00000     1.25520  0.0
    734    718    719    720   5     0.00000     0.00000     1.25520  0.0
    734    718    719    735   5     0.00000     0.00000     1.25520  0.0
    734    718    719    736   5     0.00000     0.00000     1.25520  0.0
    718    719    720    721   5     4.74884    -0.63178     1.67360  0.0
    718    719    720    737   5     0.00000     0.00000     1.25520  0.0
    718    719    720    738   5     0.00000     0.00000     1.25520  0.0
    735    719    720    721   5     0.00000     0.00000     1.25520  0.0
    735    719    720    737   5     0.00000     0.00000     1.25520  0.0
    735    719    720    738   5     0.00000     0.00000     1.25520  0.0
    736    719    720    721   5     0.00000     0.00000     1.25520  0.0
    736    719    720    737   5     0.00000     0.00000     1.25520  0.0
    736    719    720    738   5     0.00000     0.00000     1.25520  0.0
    719    720    721    722   5     4.74884    -0.63178     1.67360  0.0
    719    720    721    739   5     0.00000     0.00000     1.25520  0.0
    719    720    721    740   5     0.00000     0.00000     1.25520  0.0
    737    720    721    722   5     0.00000     0.00000     1.25520  0.0
    737    720    721    739   5     0.00000     0.00000     1.25520  0.0
    737    720    721    740   5     0.00000     0.00000     1.25520  0.0
    738    720    721    722   5     0.00000     0.00000     1.25520  0.0
    738    720    721    739   5     0.00000     0.00000     1.25520  0.0
    738    720    721    740   5     0.00000     0.00000     1.25520  0.0
    720    721    722    723   5     4.74884    -0.63178     1.67360  0.0
    720    721    722    741   5     0.00000     0.00000     1.25520  0.0
    720    721    722    742   5     0.00000     0.00000     1.25520  0.0
    739    721    722    723   5     0.00000     0.00000     1.25520  0.0
    739    721    722    741   5     0.00000     0.00000     1.25520  0.0
    739    721    722    742   5     0.00000     0.00000     1.25520  0.0
    740    721    722    723   5     0.00000     0.00000     1.25520  0.0
    740    721    722    741   5     0.00000     0.00000     1.25520  0.0
    740    721    722    742   5     0.00000     0.00000     1.25520  0.0
    721    722    723    724   5     4.74884    -0.63178     1.67360  0.0
    721    722    723    743   5     0.00000     0.00000     1.25520  0.0
    721    722    723    744   5     0.00000     0.00000     1.25520  0.0
    741    722    723    724   5     0.00000     0.00000     1.25520  0.0
    741    722    723    743   5     0.00000     0.00000     1.25520  0.0
    741    722    723    744   5     0.00000     0.00000     1.25520  0.0
    742    722    723    724   5     0.00000     0.00000     1.25520  0.0
    742    722    723    743   5     0.00000     0.00000     1.25520  0.0
    742    722    723    744   5     0.00000     0.00000     1.25520  0.0
    722    723    724    725   5     4.74884    -0.63178     1.67360  0.0
    722    723    724    745   5     0.00000     0.00000     1.25520  0.0
    722    723    724    746   5     0.00000     0.00000     1.25520  0.0
    743    723    724    725   5     0.00000     0.00000     1.25520  0.0
    743    723    724    745   5     0.00000     0.00000     1.25520  0.0
    743    723    724    746   5     0.00000     0.00000     1.25520  0.0
    744    723    724    725   5     0.00000     0.00000     1.25520  0.0
    744    723    724    745   5     0.00000     0.00000     1.25520  0.0
    744    723    724    746   5     0.00000     0.00000     1.25520  0.0
    723    724    725    726   5     4.74884    -0.63178     1.67360  0.0
    723    724    725    747   5     0.00000     0.00000     1.25520  0.0
    723    724    725    748   5     0.00000     0.00000     1.25520  0.0
    745    724    725    726   5     0.00000     0.00000     1.25520  0.0
    745    724    725    747   5     0.00000     0.00000     1.25520  0.0
    745    724    725    748   5     0.00000     0.00000     1.25520  0.0
    746    724    725    726   5     0.00000     0.00000     1.25520  0.0
    746    724    725    747   5     0.00000     0.00000     1.25520  0.0
    746    724    725    748   5     0.00000     0.00000     1.25520  0.0
    724    725    726    727   5     4.74884    -0.63178     1.67360  0.0
    724    725    726    749   5     0.00000     0.00000     1.25520  0.0
    724    725    726    750   5     0.00000     0.00000     1.25520  0.0
    747    725    726    727   5     0.00000     0.00000     1.25520  0.0
    747    725    726    749   5     0.00000     0.00000     1.25520  0.0
    747    725    726    750   5     0.00000     0.00000     1.25520  0.0
    748    725    726    727   5     0.00000     0.00000     1.25520  0.0
    748    725    726    749   5     0.00000     0.00000     1.25520  0.0
    748    725    726    750   5     0.00000     0.00000     1.25520  0.0
    725    726    727    728   5     4.74884    -0.63178     1.67360  0.0
    725    726    727    751   5     0.00000     0.00000     1.25520  0.0
    725    726    727    752   5     0.00000     0.00000     1.25520  0.0
    749    726    727    728   5     0.00000     0.00000     1.25520  0.0
    749    726    727    751   5     0.00000     0.00000     1.25520  0.0
    749    726    727    752   5     0.00000     0.00000     1.25520  0.0
    750    726    727    728   5     0.00000     0.00000     1.25520  0.0
    750    726    727    751   5     0.00000     0.00000     1.25520  0.0
    750    726    727    752   5     0.00000     0.00000     1.25520  0.0
    726    727    728    729   5     4.74884    -0.63178     1.67360  0.0
    726    727    728    753   5     0.00000     0.00000     1.25520  0.0
    726    727    728    754   5     0.00000     0.00000     1.25520  0.0
    751    727    728    729   5     0.00000     0.00000     1.25520  0.0
    751    727    728    753   5     0.00000     0.00000     1.25520  0.0
    751    727    728    754   5     0.00000     0.00000     1.25520  0.0
    752    727    728    729   5     0.00000     0.00000     1.25520  0.0
    752    727    728    753   5     0.00000     0.00000     1.25520  0.0
    752    727    728    754   5     0.00000     0.00000     1.25520  0.0
    727    728    729    755   5     0.00000     0.00000     1.25520  0.0
    727    728    729    756   5     0.00000     0.00000     1.25520  0.0
    727    728    729    757   5     0.00000     0.00000     1.25520  0.0
    753    728    729    755   5     0.00000     0.00000     1.25520  0.0
    753    728    729    756   5     0.00000     0.00000     1.25520  0.0
    753    728    729    757   5     0.00000     0.00000     1.25520  0.0
    754    728    729    755   5     0.00000     0.00000     1.25520  0.0
    754    728    729    756   5     0.00000     0.00000     1.25520  0.0
    754    728    729    757   5     0.00000     0.00000     1.25520  0.0
    717    758    759    760   5     4.74884    -0.63178     1.67360  0.0
    717    758    759    774   5     0.00000     0.00000     1.25520  0.0
    717    758    759    800   5     4.74884    -0.63178     1.67360  0.0
    772    758    759    760   5     0.00000     0.00000     1.25520  0.0
    772    758    759    774   5     0.00000     0.00000     1.25520  0.0
    772    758    759    800   5     0.00000     0.00000     1.25520  0.0
    773    758    759    760   5     0.00000     0.00000     1.25520  0.0
    773    758    759    774   5     0.00000     0.00000     1.25520  0.0
    773    758    759    800   5     0.00000     0.00000     1.25520  0.0
    758    759    760    761   5     4.74884    -0.63178     1.67360  0.0
    758    759    760    775   5     0.00000     0.00000     1.25520  0.0
    758    759    760    776   5     0.00000     0.00000     1.25520  0.0
    774    759    760    761   5     0.00000     0.00000     1.25520  0.0
    774    759    760    775   5     0.00000     0.00000     1.25520  0.0
    774    759    760    776   5     0.00000     0.00000     1.25520  0.0
    800    759    760    761   5     4.74884    -0.63178     1.67360  0.0
    800    759    760    775   5     0.00000     0.00000     1.25520  0.0
    800    759    760    776   5     0.00000     0.00000     1.25520  0.0
    758    759    800    801   5     4.74884    -0.63178     1.67360  0.0
    758    759    800    814   5     0.00000     0.00000     1.25520  0.0
    758    759    800    815   5     0.00000     0.00000     1.25520  0.0
    760    759    800    801   5     4.74884    -0.63178     1.67360  0.0
    760    759    800    814   5     0.00000     0.00000     1.25520  0.0
    760    759    800    815   5     0.00000     0.00000     1.25520  0.0
    774    759    800    801   5     0.00000     0.00000     1.25520  0.0
    774    759    800    814   5     0.00000     0.00000     1.25520  0.0
    774    759    800    815   5     0.00000     0.00000     1.25520  0.0
    759    760    761    762   5     4.74884    -0.63178     1.67360  0.0
    759    760    761    777   5     0.00000     0.00000     1.25520  0.0
    759    760    761    778   5     0.00000     0.00000     1.25520  0.0
    775    760    761    762   5     0.00000     0.00000     1.25520  0.0
    775    760    761    777   5     0.00000     0.00000     1.25520  0.0
    775    760    761    778   5     0.00000     0.00000     1.25520  0.0
    776    760    761    762   5     0.00000     0.00000     1.25520  0.0
    776    760    761    777   5     0.00000     0.00000     1.25520  0.0
    776    760    761    778   5     0.00000     0.00000     1.25520  0.0
    760    761    762    763   5     4.74884    -0.63178     1.67360  0.0
    760    761    762    779   5     0.00000     0.00000     1.25520  0.0
    760    761    762    780   5     0.00000     0.00000     1.25520  0.0
    777    761    762    763   5     0.00000     0.00000     1.25520  0.0
    777    761    762    779   5     0.00000     0.00000     1.25520  0.0
    777    761    762    780   5     0.00000     0.00000     1.25520  0.0
    778    761    762    763   5     0.00000     0.00000     1.25520  0.0
    778    761    762    779   5     0.00000     0.00000     1.25520  0.0
    778    761    762    780   5     0.00000     0.00000     1.25520  0.0
    761    762    763    764   5     4.74884    -0.63178     1.67360  0.0
    761    762    763    781   5     0.00000     0.00000     1.25520  0.0
    761    762    763    782   5     0.00000     0.00000     1.25520  0.0
    779    762    763    764   5     0.00000     0.00000     1.25520  0.0
    779    762    763    781   5     0.00000     0.00000     1.25520  0.0
    779    762    763    782   5     0.00000     0.00000     1.25520  0.0
    780    762    763    764   5     0.00000     0.00000     1.25520  0.0
    780    762    763    781   5     0.00000     0.00000     1.25520  0.0
    780    762    763    782   5     0.00000     0.00000     1.25520  0.0
    762    763    764    765   5     4.74884    -0.63178     1.67360  0.0
    762    763    764    783   5     0.00000     0.00000     1.25520  0.0
    762    763    764    784   5     0.00000     0.00000     1.25520  0.0
    781    763    764    765   5     0.00000     0.00000     1.25520  0.0
    781    763    764    783   5     0.00000     0.00000     1.25520  0.0
    781    763    764    784   5     0.00000     0.00000     1.25520  0.0
    782    763    764    765   5     0.00000     0.00000     1.25520  0.0
    782    763    764    783   5     0.00000     0.00000     1.25520  0.0
    782    763    764    784   5     0.00000     0.00000     1.25520  0.0
    763    764    765    766   5     4.74884    -0.63178     1.67360  0.0
    763    764    765    785   5     0.00000     0.00000     1.25520  0.0
    763    764    765    786   5     0.00000     0.00000     1.25520  0.0
    783    764    765    766   5     0.00000     0.00000     1.25520  0.0
    783    764    765    785   5     0.00000     0.00000     1.25520  0.0
    783    764    765    786   5     0.00000     0.00000     1.25520  0.0
    784    764    765    766   5     0.00000     0.00000     1.25520  0.0
    784    764    765    785   5     0.00000     0.00000     1.25520  0.0
    784    764    765    786   5     0.00000     0.00000     1.25520  0.0
    764    765    766    767   5     4.74884    -0.63178     1.67360  0.0
    764    765    766    787   5     0.00000     0.00000     1.25520  0.0
    764    765    766    788   5     0.00000     0.00000     1.25520  0.0
    785    765    766    767   5     0.00000     0.00000     1.25520  0.0
    785    765    766    787   5     0.00000     0.00000     1.25520  0.0
    785    765    766    788   5     0.00000     0.00000     1.25520  0.0
    786    765    766    767   5     0.00000     0.00000     1.25520  0.0
    786    765    766    787   5     0.00000     0.00000     1.25520  0.0
    786    765    766    788   5     0.00000     0.00000     1.25520  0.0
    765    766    767    768   5     4.74884    -0.63178     1.67360  0.0
    765    766    767    789   5     0.00000     0.00000     1.25520  0.0
    765    766    767    790   5     0.00000     0.00000     1.25520  0.0
    787    766    767    768   5     0.00000     0.00000     1.25520  0.0
    787    766    767    789   5     0.00000     0.00000     1.25520  0.0
    787    766    767    790   5     0.00000     0.00000     1.25520  0.0
    788    766    767    768   5     0.00000     0.00000     1.25520  0.0
    788    766    767    789   5     0.00000     0.00000     1.25520  0.0
    788    766    767    790   5     0.00000     0.00000     1.25520  0.0
    766    767    768    769   5     4.74884    -0.63178     1.67360  0.0
    766    767    768    791   5     0.00000     0.00000     1.25520  0.0
    766    767    768    792   5     0.00000     0.00000     1.25520  0.0
    789    767    768    769   5     0.00000     0.00000     1.25520  0.0
    789    767    768    791   5     0.00000     0.00000     1.25520  0.0
    789    767    768    792   5     0.00000     0.00000     1.25520  0.0
    790    767    768    769   5     0.00000     0.00000     1.25520  0.0
    790    767    768    791   5     0.00000     0.00000     1.25520  0.0
    790    767    768    792   5     0.00000     0.00000     1.25520  0.0
    767    768    769    770   5     4.74884    -0.63178     1.67360  0.0
    767    768    769    793   5     0.00000     0.00000     1.25520  0.0
    767    768    769    794   5     0.00000     0.00000     1.25520  0.0
    791    768    769    770   5     0.00000     0.00000     1.25520  0.0
    791    768    769    793   5     0.00000     0.00000     1.25520  0.0
    791    768    769    794   5     0.00000     0.00000     1.25520  0.0
    792    768    769    770   5     0.00000     0.00000     1.25520  0.0
    792    768    769    793   5     0.00000     0.00000     1.25520  0.0
    792    768    769    794   5     0.00000     0.00000     1.25520  0.0
    768    769    770    771   5     4.74884    -0.63178     1.67360  0.0
    768    769    770    795   5     0.00000     0.00000     1.25520  0.0
    768    769    770    796   5     0.00000     0.00000     1.25520  0.0
    793    769    770    771   5     0.00000     0.00000     1.25520  0.0
    793    769    770    795   5     0.00000     0.00000     1.25520  0.0
    793    769    770    796   5     0.00000     0.00000     1.25520  0.0
    794    769    770    771   5     0.00000     0.00000     1.25520  0.0
    794    769    770    795   5     0.00000     0.00000     1.25520  0.0
    794    769    770    796   5     0.00000     0.00000     1.25520  0.0
    769    770    771    797   5     0.00000     0.00000     1.25520  0.0
    769    770    771    798   5     0.00000     0.00000     1.25520  0.0
    769    770    771    799   5     0.00000     0.00000     1.25520  0.0
    795    770    771    797   5     0.00000     0.00000     1.25520  0.0
    795    770    771    798   5     0.00000     0.00000     1.25520  0.0
    795    770    771    799   5     0.00000     0.00000     1.25520  0.0
    796    770    771    797   5     0.00000     0.00000     1.25520  0.0
    796    770    771    798   5     0.00000     0.00000     1.25520  0.0
    796    770    771    799   5     0.00000     0.00000     1.25520  0.0
    759    800    801    802   5     4.74884    -0.63178     1.67360  0.0
    759    800    801    816   5     0.00000     0.00000     1.25520  0.0
    759    800    801    842   5     0.00000     0.00000     1.25520  0.0
    814    800    801    802   5     0.00000     0.00000     1.25520  0.0
    814    800    801    816   5     0.00000     0.00000     1.25520  0.0
    814    800    801    842   5     0.00000     0.00000     1.25520  0.0
    815    800    801    802   5     0.00000     0.00000     1.25520  0.0
    815    800    801    816   5     0.00000     0.00000     1.25520  0.0
    815    800    801    842   5     0.00000     0.00000     1.25520  0.0
    800    801    802    803   5     4.74884    -0.63178     1.67360  0.0
    800    801    802    817   5     0.00000     0.00000     1.25520  0.0
    800    801    802    818   5     0.00000     0.00000     1.25520  0.0
    816    801    802    803   5     0.00000     0.00000     1.25520  0.0
    816    801    802    817   5     0.00000     0.00000     1.25520  0.0
    816    801    802    818   5     0.00000     0.00000     1.25520  0.0
    842    801    802    803   5     0.00000     0.00000     1.25520  0.0
    842    801    802    817   5     0.00000     0.00000     1.25520  0.0
    842    801    802    818   5     0.00000     0.00000     1.25520  0.0
    801    802    803    804   5     4.74884    -0.63178     1.67360  0.0
    801    802    803    819   5     0.00000     0.00000     1.25520  0.0
    801    802    803    820   5     0.00000     0.00000     1.25520  0.0
    817    802    803    804   5     0.00000     0.00000     1.25520  0.0
    817    802    803    819   5     0.00000     0.00000     1.25520  0.0
    817    802    803    820   5     0.00000     0.00000     1.25520  0.0
    818    802    803    804   5     0.00000     0.00000     1.25520  0.0
    818    802    803    819   5     0.00000     0.00000     1.25520  0.0
    818    802    803    820   5     0.00000     0.00000     1.25520  0.0
    802    803    804    805   5     4.74884    -0.63178     1.67360  0.0
    802    803    804    821   5     0.00000     0.00000     1.25520  0.0
    802    803    804    822   5     0.00000     0.00000     1.25520  0.0
    819    803    804    805   5     0.00000     0.00000     1.25520  0.0
    819    803    804    821   5     0.00000     0.00000     1.25520  0.0
    819    803    804    822   5     0.00000     0.00000     1.25520  0.0
    820    803    804    805   5     0.00000     0.00000     1.25520  0.0
    820    803    804    821   5     0.00000     0.00000     1.25520  0.0
    820    803    804    822   5     0.00000     0.00000     1.25520  0.0
    803    804    805    806   5     4.74884    -0.63178     1.67360  0.0
    803    804    805    823   5     0.00000     0.00000     1.25520  0.0
    803    804    805    824   5     0.00000     0.00000     1.25520  0.0
    821    804    805    806   5     0.00000     0.00000     1.25520  0.0
    821    804    805    823   5     0.00000     0.00000     1.25520  0.0
    821    804    805    824   5     0.00000     0.00000     1.25520  0.0
    822    804    805    806   5     0.00000     0.00000     1.25520  0.0
    822    804    805    823   5     0.00000     0.00000     1.25520  0.0
    822    804    805    824   5     0.00000     0.00000     1.25520  0.0
    804    805    806    807   5     4.74884    -0.63178     1.67360  0.0
    804    805    806    825   5     0.00000     0.00000     1.25520  0.0
    804    805    806    826   5     0.00000     0.00000     1.25520  0.0
    823    805    806    807   5     0.00000     0.00000     1.25520  0.0
    823    805    806    825   5     0.00000     0.00000     1.25520  0.0
    823    805    806    826   5     0.00000     0.00000     1.25520  0.0
    824    805    806    807   5     0.00000     0.00000     1.25520  0.0
    824    805    806    825   5     0.00000     0.00000     1.25520  0.0
    824    805    806    826   5     0.00000     0.00000     1.25520  0.0
    805    806    807    808   5     4.74884    -0.63178     1.67360  0.0
    805    806    807    827   5     0.00000     0.00000     1.25520  0.0
    805    806    807    828   5     0.00000     0.00000     1.25520  0.0
    825    806    807    808   5     0.00000     0.00000     1.25520  0.0
    825    806    807    827   5     0.00000     0.00000     1.25520  0.0
    825    806    807    828   5     0.00000     0.00000     1.25520  0.0
    826    806    807    808   5     0.00000     0.00000     1.25520  0.0
    826    806    807    827   5     0.00000     0.00000     1.25520  0.0
    826    806    807    828   5     0.00000     0.00000     1.25520  0.0
    806    807    808    809   5     4.74884    -0.63178     1.67360  0.0
    806    807    808    829   5     0.00000     0.00000     1.25520  0.0
    806    807    808    830   5     0.00000     0.00000     1.25520  0.0
    827    807    808    809   5     0.00000     0.00000     1.25520  0.0
    827    807    808    829   5     0.00000     0.00000     1.25520  0.0
    827    807    808    830   5     0.00000     0.00000     1.25520  0.0
    828    807    808    809   5     0.00000     0.00000     1.25520  0.0
    828    807    808    829   5     0.00000     0.00000     1.25520  0.0
    828    807    808    830   5     0.00000     0.00000     1.25520  0.0
    807    808    809    810   5     4.74884    -0.63178     1.67360  0.0
    807    808    809    831   5     0.00000     0.00000     1.25520  0.0
    807    808    809    832   5     0.00000     0.00000     1.25520  0.0
    829    808    809    810   5     0.00000     0.00000     1.25520  0.0
    829    808    809    831   5     0.00000     0.00000     1.25520  0.0
    829    808    809    832   5     0.00000     0.00000     1.25520  0.0
    830    808    809    810   5     0.00000     0.00000     1.25520  0.0
    830    808    809    831   5     0.00000     0.00000     1.25520  0.0
    830    808    809    832   5     0.00000     0.00000     1.25520  0.0
    808    809    810    811   5     4.74884    -0.63178     1.67360  0.0
    808    809    810    833   5     0.00000     0.00000     1.25520  0.0
    808    809    810    834   5     0.00000     0.00000     1.25520  0.0
    831    809    810    811   5     0.00000     0.00000     1.25520  0.0
    831    809    810    833   5     0.00000     0.00000     1.25520  0.0
    831    809    810    834   5     0.00000     0.00000     1.25520  0.0
    832    809    810    811   5     0.00000     0.00000     1.25520  0.0
    832    809    810    833   5     0.00000     0.00000     1.25520  0.0
    832    809    810    834   5     0.00000     0.00000     1.25520  0.0
    809    810    811    812   5     4.74884    -0.63178     1.67360  0.0
    809    810    811    835   5     0.00000     0.00000     1.25520  0.0
    809    810    811    836   5     0.00000     0.00000     1.25520  0.0
    833    810    811    812   5     0.00000     0.00000     1.25520  0.0
    833    810    811    835   5     0.00000     0.00000     1.25520  0.0
    833    810    811    836   5     0.00000     0.00000     1.25520  0.0
    834    810    811    812   5     0.00000     0.00000     1.25520  0.0
    834    810    811    835   5     0.00000     0.00000     1.25520  0.0
    834    810    811    836   5     0.00000     0.00000     1.25520  0.0
    810    811    812    813   5     4.74884    -0.63178     1.67360  0.0
    810    811    812    837   5     0.00000     0.00000     1.25520  0.0
    810    811    812    838   5     0.00000     0.00000     1.25520  0.0
    835    811    812    813   5     0.00000     0.00000     1.25520  0.0
    835    811    812    837   5     0.00000     0.00000     1.25520  0.0
    835    811    812    838   5     0.00000     0.00000     1.25520  0.0
    836    811    812    813   5     0.00000     0.00000     1.25520  0.0
    836    811    812    837   5     0.00000     0.00000     1.25520  0.0
    836    811    812    838   5     0.00000     0.00000     1.25520  0.0
    811    812    813    839   5     0.00000     0.00000     1.25520  0.0
    811    812    813    840   5     0.00000     0.00000     1.25520  0.0
    811    812    813    841   5     0.00000     0.00000     1.25520  0.0
    837    812    813    839   5     0.00000     0.00000     1.25520  0.0
    837    812    813    840   5     0.00000     0.00000     1.25520  0.0
    837    812    813    841   5     0.00000     0.00000     1.25520  0.0
    838    812    813    839   5     0.00000     0.00000     1.25520  0.0
    838    812    813    840   5     0.00000     0.00000     1.25520  0.0
    838    812    813    841   5     0.00000     0.00000     1.25520  0.0
