Control file title. For DL_FIELD 4.10
49698
    1MOL     C1    1   5.475   4.614   6.453  0.2666  0.0418  0.2742
    1MOL     C2    2   5.444   4.744   6.529 -0.5147 -0.4848 -0.2795
    1MOL     O3    3   5.569   4.808   6.560 -0.2903  0.0640 -0.3043
    1MOL     C4    4   5.643   4.869   6.457  0.2027  0.7024  1.0398
    1MOL     C5    5   5.751   4.960   6.515  0.3235 -0.7087  0.5843
    1MOL     C6    6   5.833   5.014   6.403 -0.4238 -0.1536 -0.3341
    1MOL     C7    7   5.952   5.095   6.466 -0.2594 -0.1962 -0.5174
    1MOL     C8    8   6.057   5.129   6.362  0.2056  1.0574 -0.0742
    1MOL     C9    9   6.178   5.210   6.408 -0.4748  0.0611  0.1098
    1MOL    H10   10   5.533   4.634   6.362  2.2181 -0.0600  1.4702
    1MOL    H11   11   5.527   4.541   6.514 -2.6540  0.7344  3.7162
    1MOL    H12   12   5.378   4.805   6.467 -0.0351 -2.7760 -3.1580
    1MOL    H13   13   5.575   4.932   6.399 -0.1504  0.4347  1.1707
    1MOL    H14   14   5.697   4.800   6.393  0.9039  1.7063  0.5246
    1MOL    H15   15   5.813   4.906   6.586  1.6231  1.2082  0.9359
    1MOL    H16   16   5.706   5.042   6.570 -0.8355 -0.9064 -0.0383
    1MOL    H17   17   5.865   4.932   6.338  0.5088 -0.2125  0.1949
    1MOL    H18   18   5.777   5.088   6.345  0.1744  1.2774  0.8666
    1MOL    H19   19   5.920   5.184   6.519 -2.9593 -0.3300 -1.8309
    1MOL    H20   20   6.007   5.030   6.534  0.4271 -1.6220 -2.3923
    1MOL    H21   21   6.005   5.181   6.281 -0.5094 -0.5603 -0.6834
    1MOL    H22   22   6.089   5.037   6.311  1.9901  1.4726  0.2710
    1MOL    H23   23   6.156   5.290   6.479  1.5511  1.7869 -1.1448
    1MOL    H24   24   6.233   5.131   6.459  0.5551  0.5834 -0.1772
    1MOL    H25   25   6.235   5.243   6.321 -0.0768 -0.1976  0.2714
    1MOL    H26   26   5.384   4.572   6.411  1.0922 -0.2209 -1.3285
    1MOL    C27   27   5.372   4.720   6.663 -0.3326 -0.0144  0.7265
    1MOL    C28   28   5.230   4.666   6.654 -0.0657  0.6642 -0.2867
    1MOL    O29   29   5.218   4.609   6.786 -0.0102  0.0348 -0.1737
    1MOL    C30   30   5.166   4.473   6.785 -0.1358  0.6046  0.4180
    1MOL    C31   31   5.149   4.446   6.940 -0.4773  0.1100  0.1765
    1MOL    C32   32   5.108   4.303   6.979 -0.1890  0.0496  0.0507
    1MOL    C33   33   5.083   4.300   7.125  0.3199 -0.3940  0.4284
    1MOL    C34   34   5.031   4.157   7.162 -0.4245 -0.4188  0.4711
    1MOL    C35   35   5.149   4.058   7.185  0.2829 -0.2689 -0.3187
    1MOL    H36   36   5.433   4.644   6.713  0.8385  0.6193  0.2808
    1MOL    H37   37   5.393   4.804   6.729  0.6840 -1.8323  2.7962
    1MOL    H38   38   5.229   4.598   6.569 -2.2861 -0.5979  0.7216
    1MOL    H39   39   5.243   4.410   6.741  0.3857  0.3026  1.7427
    1MOL    H40   40   5.080   4.449   6.722  1.6949 -1.7478 -1.2928
    1MOL    H41   41   5.077   4.515   6.984 -0.0225 -0.2484  1.5185
    1MOL    H42   42   5.240   4.468   6.996  0.4849 -0.4840 -1.1154
    1MOL    H43   43   5.028   4.271   6.913  1.3513 -0.8521 -1.3974
    1MOL    H44   44   5.196   4.242   6.965  1.5605  2.6696 -0.6629
    1MOL    H45   45   5.171   4.335   7.180  0.0508  2.0227 -0.6086
    1MOL    H46   46   5.007   4.375   7.147 -0.7880 -1.7625  1.3659
    1MOL    H47   47   4.965   4.153   7.249 -2.3462 -1.5599 -1.0043
    1MOL    H48   48   4.970   4.128   7.077  0.8060  2.7480 -1.6027
    1MOL    H49   49   5.206   4.047   7.092  2.7800 -2.1565  1.3810
    1MOL    H50   50   5.216   4.093   7.263  0.8543 -3.6992  0.8144
    1MOL    H51   51   5.104   3.962   7.210 -4.1590  1.6790 -0.4420
    1MOL    C52   52   5.122   4.779   6.644  0.4275 -0.2428  0.2719
    1MOL    C53   53   4.974   4.733   6.613 -0.9525  0.8239  0.7764
    1MOL    O54   54   4.892   4.849   6.592  0.5030  0.1848 -0.0174
    1MOL    C55   55   4.850   4.914   6.709 -0.2923 -0.4596 -0.3209
    1MOL    C56   56   4.780   5.046   6.674  0.3975 -0.3377 -0.3916
    1MOL    C57   57   4.860   5.160   6.607 -0.5451  0.4804  0.4249
    1MOL    C58   58   4.776   5.296   6.614 -0.7424  0.2704  0.0148
    1MOL    C59   59   4.856   5.414   6.570  0.7122 -0.2160 -0.6991
    1MOL    C60   60   4.925   5.406   6.436 -0.6887  0.3996 -0.2470
    1MOL    H61   61   5.145   4.838   6.555 -1.8191 -0.7420 -0.6624
    1MOL    H62   62   5.134   4.844   6.731  0.8198  0.4450 -0.2848
    1MOL    H63   63   4.942   4.686   6.706  0.1425 -0.3444  0.5854
    1MOL    H64   64   4.938   4.929   6.771 -0.5427 -2.8931  0.6932
    1MOL    H65   65   4.791   4.848   6.774 -0.5583  1.0519  0.9985
    1MOL    H66   66   4.714   5.085   6.752  0.5208  0.0207 -0.4681
    1MOL    H67   67   4.696   5.010   6.614 -0.5115 -0.9279  1.1740
    1MOL    H68   68   4.953   5.175   6.662 -0.6116  0.0480  0.6577
    1MOL    H69   69   4.886   5.116   6.510  0.2204 -0.0533  0.8654
    1MOL    H70   70   4.691   5.292   6.546 -0.7031 -0.2783 -0.0062
    1MOL    H71   71   4.744   5.320   6.716  1.6474 -0.4167  0.9456
    1MOL    H72   72   4.797   5.505   6.568  0.9080 -0.0160  1.8730
    1MOL    H73   73   4.931   5.434   6.647  1.6605 -0.7824 -1.4457
    1MOL    H74   74   5.029   5.438   6.440 -0.0806 -1.7240  1.6782
    1MOL    H75   75   4.948   5.307   6.400  0.7658  0.1959  1.1770
    1MOL    H76   76   4.864   5.442   6.353  0.0867 -1.1092 -1.4902
    1MOL    C77   77   4.958   4.643   6.489  0.7854  0.2652  0.2143
    1MOL    C78   78   4.821   4.568   6.490 -0.0993 -0.5666  0.0980
    1MOL    O79   79   4.833   4.482   6.604 -0.2201 -0.2001 -0.3152
    1MOL    C80   80   4.711   4.458   6.677 -0.4315  0.2604  0.2233
    1MOL    C81   81   4.738   4.355   6.784 -0.4258  0.1455 -0.3809
    1MOL    C82   82   4.784   4.225   6.719  0.5882  0.6879 -0.4994
    1MOL    C83   83   4.754   4.103   6.810  0.2180  0.5513  1.0870
    1MOL    C84   84   4.820   3.976   6.760 -0.1049 -0.6176  0.2729
    1MOL    C85   85   4.783   3.851   6.829 -0.3939  0.2353 -0.0903
    1MOL    H86   86   5.030   4.562   6.487  0.9133  0.3706  0.4350
    1MOL    H87   87   4.958   4.717   6.408 -0.6987  0.7833  0.6604
    1MOL    H88   88   4.740   4.640   6.492 -0.0007 -0.2908 -2.9465
    1MOL    H89   89   4.633   4.423   6.610  2.3058 -0.7087 -2.6090
    1MOL    H90   90   4.688   4.558   6.713  0.1345  0.7886 -0.8397
    1MOL    H91   91   4.645   4.348   6.840 -0.7472  2.4333 -0.5753
    1MOL    H92   92   4.815   4.385   6.856 -0.8709 -2.2952  1.1498
    1MOL    H93   93   4.721   4.204   6.633  1.0338 -2.0185 -0.1880
    1MOL    H94   94   4.888   4.227   6.686  0.8430  1.1839  0.2945
    1MOL    H95   95   4.775   4.128   6.914 -1.1454 -1.1431  1.7889
    1MOL    H96   96   4.646   4.089   6.812  0.3714 -1.1200 -0.8049
    1MOL    H97   97   4.791   3.959   6.657  0.6606  1.7480 -0.3627
    1MOL    H98   98   4.929   3.984   6.768  0.0552 -1.7291 -0.6335
    1MOL    H99   99   4.839   3.766   6.791  2.2564  2.6667 -1.8797
    1MOL   H100  100   4.790   3.862   6.938  0.6319 -2.2416  0.1344
    1MOL   H101  101   4.678   3.837   6.805 -0.1658 -0.1980 -0.8384
    1MOL   C102  102   4.801   4.486   6.363  0.4839  0.2350  0.1733
    1MOL   C103  103   4.763   4.575   6.243 -0.6056 -1.0633 -0.1755
    1MOL   O104  104   4.868   4.659   6.198 -0.3449 -0.0247 -0.3911
    1MOL   C105  105   4.842   4.798   6.170  0.3091 -0.2415 -0.6976
    1MOL   C106  106   4.968   4.870   6.119  0.3693 -0.1442  0.3737
    1MOL   C107  107   5.103   4.847   6.192 -0.0713  0.0973  0.1566
    1MOL   C108  108   5.222   4.881   6.104 -0.6963 -0.3520 -0.3301
    1MOL   C109  109   5.347   4.843   6.185  0.1344 -0.2533  0.2779
    1MOL   C110  110   5.469   4.856   6.098 -0.6448  0.2410  0.4217
    1MOL   H111  111   4.891   4.432   6.336  0.5849 -0.5580  2.0008
    1MOL   H112  112   4.724   4.410   6.370  0.3788  0.3603  0.3885
    1MOL   H113  113   4.686   4.644   6.277  0.9588  1.2028 -1.0712
    1MOL   H114  114   4.818   4.855   6.259  1.0369 -0.0334 -0.6328
    1MOL   H115  115   4.766   4.812   6.093 -3.1067 -2.8710  2.0101
    1MOL   H116  116   4.938   4.975   6.113  0.3642 -0.1483  0.3317
    1MOL   H117  117   4.991   4.839   6.017 -1.0641 -1.5991  0.4810
    1MOL   H118  118   5.099   4.897   6.289 -0.1578 -1.6256  1.0461
    1MOL   H119  119   5.102   4.739   6.203  3.9034  0.3248  3.4660
    1MOL   H120  120   5.231   4.823   6.012  3.6016  0.5574 -0.5915
    1MOL   H121  121   5.222   4.989   6.095  0.2154 -0.4648 -1.8699
    1MOL   H122  122   5.361   4.908   6.272 -2.1394 -1.1875  1.3933
    1MOL   H123  123   5.341   4.742   6.227  2.5220 -1.0584 -1.2384
    1MOL   H124  124   5.550   4.832   6.167  1.9986  0.9164 -2.3275
    1MOL   H125  125   5.473   4.791   6.011  0.6012 -1.4449  1.7240
    1MOL   H126  126   5.482   4.961   6.072  0.7177  0.1349  0.6222
    1MOL   C127  127   4.718   4.486   6.120 -0.1021 -0.2990 -1.0712
    1MOL   C128  128   4.568   4.468   6.113  0.1863  0.2193 -0.3462
    1MOL   O129  129   4.539   4.367   6.211  0.0213  0.5195  0.1777
    1MOL   C130  130   4.406   4.342   6.233  0.6825  0.4139 -0.6994
    1MOL   C131  131   4.380   4.277   6.372  0.0059 -0.1871 -0.4863
    1MOL   C132  132   4.232   4.238   6.404 -0.1647  0.5826 -1.0647
    1MOL   C133  133   4.229   4.148   6.525 -0.0391 -0.0891 -0.1411
    1MOL   C134  134   4.088   4.138   6.582 -0.1938  0.6405  0.4902
    1MOL   C135  135   4.078   4.042   6.698 -0.0943 -0.1113 -0.1887
    1MOL   H136  136   4.756   4.531   6.028  0.4945  1.4481  0.0071
    1MOL   H137  137   4.762   4.387   6.122 -0.5971 -0.5046  1.7656
    1MOL   H138  138   4.509   4.552   6.151  0.4081 -0.0164  0.5356
    1MOL   H139  139   4.375   4.271   6.156  1.1285  1.5194 -1.8965
    1MOL   H140  140   4.347   4.433   6.237 -2.2449 -1.2770 -3.0587
    1MOL   H141  141   4.422   4.334   6.454 -1.5397 -1.8703  1.5381
    1MOL   H142  142   4.440   4.187   6.385 -1.3003 -1.1001 -0.6297
    1MOL   H143  143   4.177   4.328   6.432  1.7514  0.5672  3.0107
    1MOL   H144  144   4.178   4.191   6.321 -0.9704  0.3682 -0.4201
    1MOL   H145  145   4.265   4.052   6.486  0.7440  0.0499  0.2342
    1MOL   H146  146   4.306   4.188   6.590 -0.1016  1.2609 -0.8796
    1MOL   H147  147   4.062   4.235   6.624  0.7240  0.7181  0.8902
    1MOL   H148  148   4.020   4.106   6.503  2.3493 -0.9062 -1.1790
    1MOL   H149  149   4.112   4.071   6.797 -1.6953  0.0588  0.3220
    1MOL   H150  150   3.976   4.008   6.718 -0.1499 -0.0629 -0.3921
    1MOL   H151  151   4.129   3.953   6.660 -2.1883 -1.4225 -0.0175
    1MOL   C152  152   4.513   4.424   5.979 -0.1200  0.6549 -0.0599
    1MOL   C153  153   4.524   4.530   5.861 -0.9287  1.1042 -0.2391
    1MOL   O154  154   4.530   4.466   5.734  0.4662  0.1760  0.4638
    1MOL   C155  155   4.657   4.428   5.677 -0.1454  0.4310 -0.1548
    1MOL   C156  156   4.725   4.535   5.592  0.2005 -0.5640 -0.2335
    1MOL   C157  157   4.666   4.538   5.451  0.0334  0.9275  0.2414
    1MOL   C158  158   4.752   4.605   5.351  0.3249 -0.1087 -0.0760
    1MOL   C159  159   4.718   4.583   5.207 -0.2377 -0.1803 -1.0463
    1MOL   C160  160   4.811   4.650   5.112 -0.1409  0.3222  0.3962
    1MOL   H161  161   4.571   4.339   5.945 -0.6414  0.4520 -0.4538
    1MOL   H162  162   4.417   4.373   5.983  0.6222 -0.6396  1.8098
    1MOL   H163  163   4.620   4.581   5.866 -0.7936  0.8036  0.3518
    1MOL   H164  164   4.658   4.330   5.628  1.3645  0.2398  0.2218
    1MOL   H165  165   4.729   4.400   5.754  1.5386  0.5648 -1.6299
    1MOL   H166  166   4.830   4.507   5.589 -0.4473 -3.1247  0.1821
    1MOL   H167  167   4.711   4.624   5.653  3.2554 -1.3286  1.6953
    1MOL   H168  168   4.643   4.441   5.407  0.4510  0.4373  1.0858
    1MOL   H169  169   4.567   4.581   5.463 -0.4975 -0.3116  0.4032
    1MOL   H170  170   4.758   4.708   5.385 -1.3006 -0.4530  1.3545
    1MOL   H171  171   4.853   4.566   5.341 -0.3171 -1.8267 -0.1303
    1MOL   H172  172   4.724   4.476   5.187  1.9339 -0.0852 -0.9703
    1MOL   H173  173   4.614   4.612   5.192 -1.0913 -1.4305  2.1259
    1MOL   H174  174   4.764   4.651   5.014 -1.8702 -0.7724  1.1947
    1MOL   H175  175   4.812   4.757   5.137  0.2973  0.3695  0.1858
    1MOL   H176  176   4.915   4.618   5.123 -0.6536 -1.5816 -0.2882
    1MOL   C177  177   4.412   4.633   5.864  0.3823  0.6102  0.2722
    1MOL   C178  178   4.452   4.771   5.800 -0.3905  0.2138  0.0183
    1MOL   O179  179   4.333   4.851   5.781 -0.5487 -0.2169  0.0971
    1MOL   C180  180   4.253   4.817   5.672 -0.1785  0.1844  0.0616
    1MOL   C181  181   4.119   4.893   5.671 -0.8696 -0.2747 -0.0480
    1MOL   C182  182   4.022   4.850   5.773 -0.3494  0.3088 -0.1850
    1MOL   C183  183   3.900   4.936   5.779  0.2044  0.4079 -0.2110
    1MOL   C184  184   3.777   4.874   5.849  0.3673  1.1916  0.3720
    1MOL   C185  185   3.642   4.944   5.803 -0.2213  0.0135 -0.0772
    1MOL   H186  186   4.330   4.584   5.812  2.3596  1.3171 -3.7163
    1MOL   H187  187   4.372   4.642   5.965 -0.4092 -0.8842  0.0973
    1MOL   H188  188   4.499   4.759   5.703  1.3745 -1.0891  1.0100
    1MOL   H189  189   4.216   4.715   5.667 -1.5010  0.6101  0.6468
    1MOL   H190  190   4.314   4.843   5.586 -1.6784  0.9834 -0.7865
    1MOL   H191  191   4.082   4.889   5.568  1.2143  1.6056 -0.8886
    1MOL   H192  192   4.152   4.996   5.680  0.0273 -0.6649  1.1163
    1MOL   H193  193   3.993   4.747   5.751 -0.6491  1.2741 -4.6868
    1MOL   H194  194   4.074   4.845   5.869  2.4705  3.3049 -1.4736
    1MOL   H195  195   3.920   5.023   5.842  0.7046 -0.4835  0.8819
    1MOL   H196  196   3.867   4.975   5.682 -1.1251 -2.7199 -1.0848
    1MOL   H197  197   3.774   4.768   5.827 -0.1274  1.0217  1.2168
    1MOL   H198  198   3.803   4.895   5.953  0.1792  0.2408  0.6130
    1MOL   H199  199   3.553   4.917   5.859  1.1710 -1.0243  1.7132
    1MOL   H200  200   3.644   5.053   5.802 -4.9759  0.2082  1.4663
    1MOL   H201  201   3.613   4.898   5.708  0.0529 -0.4928  0.0808
    1MOL   C202  202   4.549   4.851   5.882 -0.4601 -0.2038 -0.4381
    1MOL   C203  203   4.592   4.982   5.809 -0.1991  0.1697  0.6964
    1MOL   O204  204   4.635   4.939   5.685  0.3072  0.3581  0.5715
    1MOL   C205  205   4.606   5.037   5.578  0.0251  0.2193 -0.9561
    1MOL   C206  206   4.677   5.005   5.447  0.2174  0.5223 -0.2961
    1MOL   C207  207   4.650   5.124   5.354 -0.7246 -0.3580  0.4834
    1MOL   C208  208   4.713   5.116   5.223 -0.3826  0.1289  0.3033
    1MOL   C209  209   4.694   5.240   5.132 -0.5716 -0.0933 -0.2646
    1MOL   C210  210   4.768   5.360   5.182 -0.1243 -0.4231 -0.9735
    1MOL   H211  211   4.509   4.876   5.980 -2.4943  1.0197 -1.5532
    1MOL   H212  212   4.643   4.799   5.903  0.3209  2.1033  2.1521
    1MOL   H213  213   4.507   5.048   5.791 -1.0702 -0.8794  0.9359
    1MOL   H214  214   4.645   5.134   5.609  0.3490 -0.6169  1.3861
    1MOL   H215  215   4.498   5.039   5.568 -0.0781  1.5224  0.2484
    1MOL   H216  216   4.630   4.917   5.403 -0.6707  1.1227 -0.5556
    1MOL   H217  217   4.784   4.989   5.460 -0.0554 -0.6367  0.6653
    1MOL   H218  218   4.543   5.143   5.351 -0.8549 -0.9889  0.8525
    1MOL   H219  219   4.708   5.207   5.394 -1.3262  1.7221 -2.8365
    1MOL   H220  220   4.819   5.096   5.236 -0.4496  0.5573  1.5119
    1MOL   H221  221   4.669   5.032   5.169 -0.7752 -0.2544  1.2157
    1MOL   H222  222   4.724   5.223   5.028  1.3742 -2.4231  0.6239
    1MOL   H223  223   4.586   5.254   5.130 -0.6097 -0.1219  1.2966
    1MOL   H224  224   4.782   5.430   5.100  1.3639  0.5828  0.1117
    1MOL   H225  225   4.712   5.408   5.262  1.1794 -1.6903  0.7525
    1MOL   H226  226   4.873   5.343   5.207  0.4504  0.1534 -2.9475
    1MOL   C227  227   4.711   5.061   5.874  0.0044  0.4830 -0.2631
    1MOL   C228  228   4.666   5.137   5.997  0.6835 -0.5646 -0.5202
    1MOL   O229  229   4.655   5.044   6.110 -0.1121 -0.1262  0.3551
    1MOL   C230  230   4.596   5.092   6.231 -0.1206 -0.2757 -0.3044
    1MOL   C231  231   4.570   4.990   6.336 -0.0960 -1.0912 -0.0977
    1MOL   C232  232   4.476   4.884   6.283  0.0916  0.0755 -0.6910
    1MOL   C233  233   4.460   4.774   6.396  0.5030 -0.3611 -0.6366
    1MOL   C234  234   4.391   4.830   6.529  1.0671 -0.3829 -0.0826
    1MOL   C235  235   4.362   4.725   6.624  0.5373  0.8256 -0.5888
    1MOL   H236  236   4.800   4.999   5.884  0.2991  0.8283 -0.7257
    1MOL   H237  237   4.747   5.137   5.804  1.1809  0.4513  0.2951
    1MOL   H238  238   4.569   5.181   5.975  0.4540  1.2936  3.7146
    1MOL   H239  239   4.503   5.129   6.189 -0.3928 -1.4875 -0.7906
    1MOL   H240  240   4.660   5.167   6.277  0.9170 -2.1607  1.4153
    1MOL   H241  241   4.518   5.033   6.421  0.0350 -0.6240 -0.2516
    1MOL   H242  242   4.656   4.944   6.384 -0.3422 -0.0685  1.3236
    1MOL   H243  243   4.376   4.918   6.255 -0.4538  0.9808  2.2051
    1MOL   H244  244   4.526   4.837   6.198  0.5993  1.3516 -1.1146
    1MOL   H245  245   4.407   4.690   6.353 -0.9890 -0.1041  0.6524
    1MOL   H246  246   4.562   4.744   6.420  0.7341  0.6479 -0.3251
    1MOL   H247  247   4.465   4.891   6.580 -0.9146  0.3098  2.0362
    1MOL   H248  248   4.304   4.892   6.510  1.2168 -0.0158  0.4222
    1MOL   H249  249   4.296   4.649   6.583  1.8063 -0.8996  0.5055
    1MOL   H250  250   4.457   4.673   6.638 -0.1877 -0.1649  0.7084
    1MOL   H251  251   4.320   4.775   6.711 -1.3595  0.0823 -1.0555
    1MOL   C252  252   4.765   5.250   6.034  0.1922 -0.4560  0.5301
    1MOL   C253  253   4.825   5.347   5.924  0.6332  0.4374  0.0719
    1MOL   O254  254   4.888   5.454   5.985 -0.0519 -0.0812 -0.0648
    1MOL   C255  255   5.027   5.434   6.023 -0.7124  0.1467  0.5368
    1MOL   C256  256   5.067   5.559   6.107  0.3176  0.0153  0.5397
    1MOL   C257  257   5.106   5.682   6.023 -0.1340 -0.6394 -0.6537
    1MOL   C258  258   5.121   5.810   6.117  0.3731 -0.7681  0.2037
    1MOL   C259  259   5.095   5.933   6.035  0.3709 -0.3763  0.3945
    1MOL   C260  260   5.140   6.060   6.102  0.6216  0.1901 -0.1572
    1MOL   H261  261   4.735   5.311   6.119  0.2079 -0.0107  0.2224
    1MOL   H262  262   4.856   5.199   6.063  0.2859  0.4212  1.7871
    1MOL   H263  263   4.899   5.289   5.868 -2.1720 -0.9707 -2.3144
    1MOL   H264  264   5.082   5.421   5.930 -0.8287  1.9453  0.1951
    1MOL   H265  265   5.044   5.350   6.091  1.1658 -0.0141 -0.1085
    1MOL   H266  266   5.146   5.527   6.175 -2.1275 -1.1678  2.8966
    1MOL   H267  267   4.981   5.591   6.166  0.6873  3.2245 -0.5690
    1MOL   H268  268   5.201   5.667   5.971  0.1134  0.7482 -0.6217
    1MOL   H269  269   5.032   5.695   5.944 -0.4922 -0.8458 -0.3557
    1MOL   H270  270   5.051   5.801   6.200  0.8381  1.4637  0.8856
    1MOL   H271  271   5.220   5.823   6.161 -0.7252  1.6913  2.0511
    1MOL   H272  272   5.155   5.927   5.945 -1.1149 -0.3964 -0.6008
    1MOL   H273  273   4.996   5.938   5.991  0.5865 -0.7830 -0.1338
    1MOL   H274  274   5.130   6.148   6.039  0.6268  0.0830 -0.3052
    1MOL   H275  275   5.064   6.073   6.180 -2.3122  3.6120 -3.3963
    1MOL   H276  276   5.238   6.052   6.149  1.0236 -1.3597 -1.2379
    1MOL   C277  277   4.716   5.407   5.833  0.2614 -0.3390 -0.0291
    1MOL   C278  278   4.779   5.495   5.718 -0.3207 -0.0791 -0.2099
    1MOL   O279  279   4.828   5.399   5.622 -0.1654  0.2076  0.1107
    1MOL   C280  280   4.923   5.455   5.532 -0.1728 -0.7947 -0.2407
    1MOL   C281  281   5.000   5.334   5.472 -0.5005  0.1263  0.3429
    1MOL   C282  282   5.092   5.269   5.582 -0.5151  0.2712  0.2592
    1MOL   C283  283   5.037   5.135   5.627 -0.5921  0.0656  0.2205
    1MOL   C284  284   5.071   5.018   5.530 -0.1293  0.1367  0.1957
    1MOL   C285  285   5.023   4.883   5.578 -0.3186 -0.2194 -0.4415
    1MOL   H286  286   4.645   5.338   5.788  0.5593  0.1936 -1.3391
    1MOL   H287  287   4.651   5.481   5.880 -0.2778 -0.1202 -1.1132
    1MOL   H288  288   4.858   5.552   5.766  0.3711 -0.8276 -0.4591
    1MOL   H289  289   4.999   5.524   5.569  0.9592 -2.4997  0.6847
    1MOL   H290  290   4.877   5.510   5.450  1.0658  1.2908  0.4103
    1MOL   H291  291   5.060   5.386   5.398  1.4144  2.0951  3.2054
    1MOL   H292  292   4.939   5.253   5.431  0.0724  0.0355 -0.3437
    1MOL   H293  293   5.199   5.263   5.560 -0.5264  2.6088 -0.5607
    1MOL   H294  294   5.094   5.333   5.670 -0.5390 -1.0694  1.2472
    1MOL   H295  295   5.074   5.106   5.725 -0.2348  0.1226  0.1029
    1MOL   H296  296   4.929   5.150   5.630 -1.0830 -3.0701  0.3098
    1MOL   H297  297   5.033   5.030   5.428 -0.5174 -0.0186  0.3199
    1MOL   H298  298   5.179   5.008   5.521 -0.0100  1.6313 -0.1166
    1MOL   H299  299   5.068   4.857   5.673  0.4867  0.7961 -0.5360
    1MOL   H300  300   4.915   4.864   5.574 -0.3729  0.0229 -0.1657
    1MOL   H301  301   5.058   4.803   5.513  0.7316  2.1729 -2.9265
    1MOL   C302  302   4.665   5.583   5.658 -0.9686 -0.1873 -0.6736
    1MOL   C303  303   4.684   5.737   5.673 -0.2969  0.1064  0.1526
    1MOL   O304  304   4.806   5.748   5.601 -0.2238 -0.6392  0.3792
    1MOL   C305  305   4.791   5.787   5.471  0.1832  0.8620 -0.4961
    1MOL   C306  306   4.923   5.826   5.406 -0.4868  0.3556  0.9525
    1MOL   C307  307   4.915   5.890   5.270 -0.5863 -0.1147 -0.9198
    1MOL   C308  308   5.046   5.894   5.194  0.1654  0.2191 -0.5553
    1MOL   C309  309   5.042   5.971   5.053  0.8044  0.3453  0.0990
    1MOL   C310  310   5.034   6.116   5.075 -0.3488 -0.3024  0.3938
    1MOL   H311  311   4.660   5.559   5.552 -1.3822 -0.4733 -0.5880
    1MOL   H312  312   4.569   5.548   5.694 -0.1493 -0.6120  1.1312
    1MOL   H313  313   4.597   5.782   5.623 -0.0471  0.3200 -0.0923
    1MOL   H314  314   4.721   5.870   5.469  0.0166  0.8917  3.7636
    1MOL   H315  315   4.751   5.707   5.408  0.0841 -0.2970  1.0307
    1MOL   H316  316   4.981   5.734   5.399 -1.9359 -0.3879 -2.5090
    1MOL   H317  317   4.974   5.889   5.479  3.8540 -0.8448 -0.8915
    1MOL   H318  318   4.835   5.833   5.223 -1.2221  0.4125 -0.4839
    1MOL   H319  319   4.882   5.991   5.294  1.7245  0.6236 -0.6545
    1MOL   H320  320   5.118   5.934   5.265  0.0280  0.2045 -0.4064
    1MOL   H321  321   5.079   5.792   5.173  2.7453  1.1696 -1.2977
    1MOL   H322  322   5.135   5.954   4.999  0.2016  0.1823 -0.8940
    1MOL   H323  323   4.965   5.932   4.988  0.2319  1.7544 -0.0829
    1MOL   H324  324   5.120   6.156   5.129  0.4547 -1.0667 -0.2830
    1MOL   H325  325   5.019   6.176   4.986  0.5219  0.7408  0.9445
    1MOL   H326  326   4.951   6.140   5.141  1.3890  2.3061  1.7019
    1MOL   C327  327   4.703   5.789   5.812 -0.2556  0.3229  0.2814
    1MOL   C328  328   4.578   5.775   5.908  0.4330  0.1828  0.2868
    1MOL   O329  329   4.621   5.819   6.041 -0.3449 -0.8857  0.7541
    1MOL   C330  330   4.715   5.732   6.098  0.1102  0.1233  0.2582
    1MOL   C331  331   4.739   5.766   6.247 -0.1031  0.2245 -0.3484
    1MOL   C332  332   4.619   5.764   6.343 -0.7375 -0.0594 -0.3677
    1MOL   C333  333   4.666   5.795   6.482 -0.0767 -0.8534  0.1633
    1MOL   C334  334   4.556   5.788   6.595  0.0566  0.0391  0.8510
    1MOL   C335  335   4.604   5.812   6.740  0.1466  0.4423  0.1170
    1MOL   H336  336   4.734   5.893   5.810 -1.8701  0.8749  1.9892
    1MOL   H337  337   4.787   5.737   5.857  1.2700  0.8099 -1.9392
    1MOL   H338  338   4.553   5.670   5.920 -1.7623  0.5806 -0.5374
    1MOL   H339  339   4.812   5.724   6.050  1.3409 -0.5178  2.7418
    1MOL   H340  340   4.686   5.626   6.097  2.4564 -0.5515  0.7569
    1MOL   H341  341   4.791   5.861   6.239 -0.4741  0.3447 -1.4456
    1MOL   H342  342   4.805   5.682   6.268 -1.3810 -0.4602  1.0241
    1MOL   H343  343   4.537   5.826   6.306 -2.1751 -2.1213 -0.7512
    1MOL   H344  344   4.598   5.657   6.348  0.0140 -0.2163 -0.5302
    1MOL   H345  345   4.749   5.726   6.500  0.0849 -1.1922 -1.7576
    1MOL   H346  346   4.724   5.887   6.486  0.5033 -1.2284  0.5169
    1MOL   H347  347   4.478   5.860   6.568 -0.5936 -0.7386  0.6267
    1MOL   H348  348   4.509   5.690   6.596  0.2127 -0.0409  0.4053
    1MOL   H349  349   4.511   5.819   6.797 -1.1344  0.3188 -1.9187
    1MOL   H350  350   4.672   5.730   6.765 -1.7417 -0.6531  1.7782
    1MOL   H351  351   4.650   5.911   6.746  2.8131 -0.8065  1.5266
    1MOL   C352  352   4.457   5.857   5.862 -0.4640  0.3045 -0.3519
    1MOL   C353  353   4.329   5.872   5.950 -0.6131  0.2919 -0.1054
    1MOL   O354  354   4.266   5.739   5.933 -0.7485  0.2976 -0.1152
    1MOL   C355  355   4.186   5.708   6.044 -0.0264 -0.5536 -0.2745
    1MOL   C356  356   4.124   5.572   6.005  0.1732  0.4075 -0.1870
    1MOL   C357  357   4.230   5.459   5.976  0.1127 -0.0701  0.1583
    1MOL   C358  358   4.162   5.320   5.967 -0.4082  0.6305  0.2631
    1MOL   C359  359   4.245   5.204   5.910  0.0137 -0.0179  0.1141
    1MOL   C360  360   4.293   5.229   5.764 -0.0398  0.5684  0.3154
    1MOL   H361  361   4.496   5.959   5.857  0.0491  0.2730  2.1897
    1MOL   H362  362   4.424   5.835   5.760  0.7548  1.6768 -1.0740
    1MOL   H363  363   4.367   5.885   6.052  1.0909 -1.0727 -0.5395
    1MOL   H364  364   4.105   5.779   6.055 -0.1739 -0.5715 -1.1606
    1MOL   H365  365   4.240   5.699   6.138  0.4921 -0.9157 -0.6047
    1MOL   H366  366   4.079   5.579   5.906  1.0095  1.2416 -0.5192
    1MOL   H367  367   4.050   5.532   6.074  0.9230  0.0155  0.3878
    1MOL   H368  368   4.271   5.483   5.877 -2.1667 -0.4511 -0.9066
    1MOL   H369  369   4.310   5.473   6.049  0.8114 -0.5627 -0.5046
    1MOL   H370  370   4.127   5.299   6.069  0.2732 -0.6373  0.2507
    1MOL   H371  371   4.068   5.333   5.914 -1.4259  1.8575  2.3209
    1MOL   H372  372   4.331   5.194   5.976  0.7885  1.2283 -0.6928
    1MOL   H373  373   4.184   5.114   5.916 -0.8719  0.5793  0.1703
    1MOL   H374  374   4.205   5.260   5.707  1.2054 -0.1195 -2.0541
    1MOL   H375  375   4.372   5.304   5.758  1.1263 -0.3467  3.5056
    1MOL   H376  376   4.321   5.131   5.726  0.5739  1.1378 -0.7289
    1MOL   C377  377   4.234   5.986   5.909  0.0532  0.1455  0.2948
    1MOL   C378  378   4.217   6.093   6.022  0.0534  0.0571  0.9471
    1MOL   O379  379   4.174   6.028   6.146  0.6374  0.1695 -0.1496
    1MOL   C380  380   4.227   6.077   6.269  0.5676 -0.0761  0.3436
    1MOL   C381  381   4.180   5.996   6.388 -0.8450  0.5619 -0.3565
    1MOL   C382  382   4.201   6.059   6.530 -0.3826  0.6727 -0.6164
    1MOL   C383  383   4.191   5.967   6.651 -0.3559  0.1497 -0.1997
    1MOL   C384  384   4.199   6.038   6.789  0.4473 -0.0324  0.7261
    1MOL   C385  385   4.177   5.943   6.905 -0.7254  0.3145  0.3176
    1MOL   H386  386   4.272   6.029   5.816  0.6393 -2.0542 -0.5122
    1MOL   H387  387   4.134   5.949   5.887  0.4191 -0.7950  0.2204
    1MOL   H388  388   4.318   6.132   6.031 -0.2852  1.4270 -1.0521
    1MOL   H389  389   4.199   6.180   6.291  1.5258  0.1605  0.5038
    1MOL   H390  390   4.336   6.066   6.270  0.5637 -0.7335 -2.5588
    1MOL   H391  391   4.240   5.905   6.395  0.2674  1.3915  1.4994
    1MOL   H392  392   4.079   5.959   6.369 -0.6341 -0.8933  1.2087
    1MOL   H393  393   4.301   6.101   6.539  0.5915 -1.5378 -0.6806
    1MOL   H394  394   4.136   6.146   6.544 -1.3838  0.1265 -1.7437
    1MOL   H395  395   4.091   5.923   6.655  0.3162 -1.4510 -0.6374
    1MOL   H396  396   4.272   5.894   6.642 -0.4264 -0.1833  1.7005
    1MOL   H397  397   4.292   6.094   6.798  0.8745 -0.8399  1.4070
    1MOL   H398  398   4.124   6.117   6.789  1.8665  1.3464 -0.9069
    1MOL   H399  399   4.211   5.988   6.998 -2.9954  0.8896  0.9053
    1MOL   H400  400   4.072   5.931   6.931 -0.7190  1.5416  0.9553
    1MOL   H401  401   4.222   5.845   6.892  1.6246  1.4787 -0.6171
    1MOL   C402  402   4.105   6.192   5.994 -0.5954 -0.3228  0.3748
    1MOL   C403  403   4.140   6.299   5.899  0.4841  0.4145  0.4842
    1MOL   O404  404   4.146   6.250   5.763  0.4307  0.4391 -0.1271
    1MOL   C405  405   4.021   6.253   5.699  0.4228  0.1858  0.2363
    1MOL   C406  406   4.016   6.141   5.596  0.3954 -1.0313 -0.4812
    1MOL   C407  407   3.883   6.121   5.529 -0.1914 -0.2580 -0.6278
    1MOL   C408  408   3.781   6.048   5.624  0.2743  0.4423 -0.3974
    1MOL   C409  409   3.652   5.987   5.567  0.6342 -0.9174 -0.3244
    1MOL   C410  410   3.561   6.099   5.523 -0.3742 -0.4929  0.1190
    1MOL   H411  411   4.081   6.244   6.087 -2.4478  0.7694 -0.6796
    1MOL   H412  412   4.010   6.148   5.966 -0.3278 -0.4855 -0.3001
    1MOL   H413  413   4.055   6.365   5.918 -0.4064 -0.5700 -0.0275
    1MOL   H414  414   4.014   6.351   5.651  0.3464  0.1460  0.1656
    1MOL   H415  415   3.934   6.243   5.762 -0.2121  1.9115 -0.3254
    1MOL   H416  416   4.042   6.041   5.630 -2.6603 -1.5960  0.3380
    1MOL   H417  417   4.090   6.164   5.519 -0.4558  0.1611 -0.9474
    1MOL   H418  418   3.834   6.210   5.491 -0.9291  0.2771  1.4818
    1MOL   H419  419   3.896   6.068   5.435 -1.1601  0.8586 -1.4053
    1MOL   H420  420   3.829   5.960   5.667 -0.7341  0.0349 -0.0967
    1MOL   H421  421   3.753   6.122   5.698 -2.2601  0.1112 -0.9803
    1MOL   H422  422   3.673   5.918   5.485  0.3758 -0.2272 -0.9722
    1MOL   H423  423   3.598   5.927   5.640 -1.9407  1.2250 -0.4216
    1MOL   H424  424   3.467   6.068   5.476 -0.0925  1.3618 -1.7477
    1MOL   H425  425   3.531   6.154   5.612 -0.7738  0.5755 -0.6567
    1MOL   H426  426   3.617   6.170   5.462  1.0249  0.4275  2.4048
    1MOL   C427  427   4.258   6.386   5.937  0.0071  0.5549  0.7038
    1MOL   C428  428   4.265   6.528   5.868  0.1103  0.3107  0.4230
    1MOL   O429  429   4.344   6.612   5.940  0.5647 -0.9262 -0.1080
    1MOL   C430  430   4.309   6.754   5.936  0.0115  0.3725  0.0731
    1MOL   C431  431   4.421   6.836   5.990  0.6314  0.2637  0.2331
    1MOL   C432  432   4.445   6.817   6.139 -0.0461 -0.2132 -0.2857
    1MOL   C433  433   4.593   6.849   6.185  0.8422 -0.6349 -0.1031
    1MOL   C434  434   4.635   6.989   6.154 -0.4684  1.1232 -0.0003
    1MOL   C435  435   4.761   7.015   6.240  0.7242  0.9987 -0.8521
    1MOL   H436  436   4.265   6.401   6.044  0.1906  0.2235  0.7365
    1MOL   H437  437   4.345   6.328   5.906 -1.1138  0.6413 -2.8591
    1MOL   H438  438   4.164   6.569   5.861  0.1923  0.5431  0.5948
    1MOL   H439  439   4.216   6.770   5.991  0.3564  1.0617  0.4478
    1MOL   H440  440   4.292   6.785   5.833  0.9106 -0.8268 -0.4487
    1MOL   H441  441   4.401   6.941   5.970 -1.4166  0.1576  1.6658
    1MOL   H442  442   4.507   6.807   5.928  0.2802 -1.7918  0.6595
    1MOL   H443  443   4.375   6.879   6.194  0.3204  0.0937 -0.1597
    1MOL   H444  444   4.424   6.713   6.164  0.7096 -0.2858  0.0824
    1MOL   H445  445   4.592   6.823   6.291 -1.5812 -2.0390 -0.4376
    1MOL   H446  446   4.656   6.767   6.151  0.0287 -1.5694  0.6130
    1MOL   H447  447   4.645   7.008   6.047  0.4336 -0.5832 -0.2398
    1MOL   H448  448   4.561   7.060   6.190 -0.9164  0.9147 -0.4935
    1MOL   H449  449   4.751   6.987   6.344  3.1820 -0.7410 -1.0309
    1MOL   H450  450   4.850   6.958   6.216 -0.4443 -0.2328 -2.3931
    1MOL   H451  451   4.780   7.123   6.241  2.9828  0.6189  0.0808
    1MOL   C452  452   4.311   6.534   5.723 -0.2564 -0.2809  0.0857
    1MOL   C453  453   4.453   6.483   5.688  0.2563  0.4141  0.3153
    1MOL   O454  454   4.534   6.597   5.661  0.6631  0.2946 -0.2551
    1MOL   C455  455   4.639   6.614   5.752 -0.0540  0.0315 -0.2464
    1MOL   C456  456   4.706   6.746   5.736 -0.7404 -0.1638  0.2785
    1MOL   C457  457   4.825   6.764   5.833  0.2148 -0.4120  0.1394
    1MOL   C458  458   4.875   6.902   5.833  0.8485 -0.0993 -0.6415
    1MOL   C459  459   4.989   6.928   5.934  0.3176  0.3807 -0.1480
    1MOL   C460  460   4.996   7.077   5.973 -0.2050 -0.5076 -0.3631
    1MOL   H461  461   4.246   6.490   5.647 -2.9756  1.2944  1.4307
    1MOL   H462  462   4.310   6.633   5.679  2.0467  0.4362  1.5357
    1MOL   H463  463   4.495   6.425   5.771 -0.6497 -2.5700 -1.2326
    1MOL   H464  464   4.707   6.529   5.742  1.7015  1.4643 -0.6412
    1MOL   H465  465   4.602   6.619   5.854  1.7439  1.2236  0.3657
    1MOL   H466  466   4.627   6.818   5.756  0.4619  0.9230  1.1779
    1MOL   H467  467   4.741   6.753   5.633  2.8593  0.7223  1.4869
    1MOL   H468  468   4.787   6.750   5.935 -1.8627  0.2931 -0.5024
    1MOL   H469  469   4.910   6.702   5.806 -1.6137 -2.8021 -0.2423
    1MOL   H470  470   4.905   6.933   5.733  0.1812  1.3995 -0.4043
    1MOL   H471  471   4.790   6.965   5.858  1.5043  0.3567  0.5002
    1MOL   H472  472   4.974   6.857   6.015 -1.4020 -2.7745 -3.0925
    1MOL   H473  473   5.084   6.901   5.887  0.6485  0.1025  0.6705
    1MOL   H474  474   5.084   7.090   6.037  0.2897  0.7663 -1.2933
    1MOL   H475  475   5.021   7.145   5.892  0.2488 -0.1935  0.0327
    1MOL   H476  476   4.908   7.109   6.030  0.4834 -0.4996  0.7215
    1MOL   C477  477   4.463   6.403   5.561 -0.1179  0.7538 -0.2323
    1MOL   C478  478   4.415   6.256   5.580 -0.5553  0.3427 -0.1147
    1MOL   O479  479   4.437   6.184   5.463  0.1419  0.1535 -0.2960
    1MOL   C480  480   4.403   6.042   5.471  0.1833  0.8841  0.2488
    1MOL   C481  481   4.427   5.971   5.338  0.5795 -0.0794  0.2752
    1MOL   C482  482   4.423   5.818   5.346  0.0949  0.4347 -0.1696
    1MOL   C483  483   4.441   5.738   5.210 -0.5176  0.3772 -0.3659
    1MOL   C484  484   4.506   5.602   5.233  0.1189 -0.6916  0.6254
    1MOL   C485  485   4.433   5.511   5.336  0.1872 -0.5644  0.3346
    1MOL   H486  486   4.407   6.452   5.481  0.8639  1.2379 -0.6283
    1MOL   H487  487   4.567   6.405   5.531 -0.0289  0.3770  0.0545
    1MOL   H488  488   4.475   6.215   5.662  2.2016  3.0415 -0.6892
    1MOL   H489  489   4.312   6.015   5.523 -0.1009  0.2280 -0.5766
    1MOL   H490  490   4.473   5.993   5.538  0.1372 -1.5363 -1.4039
    1MOL   H491  491   4.527   5.998   5.306  0.5985 -1.5582 -1.0280
    1MOL   H492  492   4.349   6.012   5.274  0.0958 -0.2307  0.7627
    1MOL   H493  493   4.507   5.784   5.407  0.0970 -0.0007 -0.4107
    1MOL   H494  494   4.335   5.777   5.396  0.2679  0.4184  0.1236
    1MOL   H495  495   4.349   5.742   5.150 -1.2529 -0.1547  0.7126
    1MOL   H496  496   4.514   5.798   5.154 -0.6607  0.4983 -0.4248
    1MOL   H497  497   4.529   5.548   5.141  0.4217  1.8238 -0.8476
    1MOL   H498  498   4.604   5.619   5.277  0.2514 -0.9757  0.4387
    1MOL   H499  499   4.465   5.407   5.331  1.3850 -0.2602  1.2851
    1MOL   H500  500   4.450   5.539   5.440 -1.6240 -2.4922  1.1701
    1MOL   H501  501   4.326   5.528   5.331  0.0044 -2.0156 -0.8997
    1MOL   H502  502   4.307   6.249   5.597 -0.6664  1.1253 -0.5032
    2MOL     C1  503   4.252   7.702   7.396  0.2969 -0.6359  0.4882
    2MOL     C2  504   4.387   7.628   7.410  0.3200 -0.0166 -1.0158
    2MOL     O3  505   4.481   7.728   7.460 -0.2334  0.4572 -0.4792
    2MOL     C4  506   4.505   7.729   7.600  0.1063 -0.0363  0.0382
    2MOL     C5  507   4.521   0.107   7.644  0.4101  0.4962  0.3070
    2MOL     C6  508   4.414   0.195   7.595 -0.8164  0.6765 -0.4280
    2MOL     C7  509   4.420   0.344   7.632  0.3120  0.5265 -0.1812
    2MOL     C8  510   4.321   0.420   7.549 -0.2021  0.0291  0.4986
    2MOL     C9  511   4.337   0.566   7.552  0.9600 -0.2601 -0.0497
    2MOL    H10  512   4.190   7.633   7.339  0.3754 -0.6049  0.3636
    2MOL    H11  513   4.196   7.730   7.485  0.8606  1.4134  0.2394
    2MOL    H12  514   4.366   7.551   7.483  1.6206  0.4226 -0.1642
    2MOL    H13  515   4.604   7.693   7.628 -0.2189 -0.9814 -0.0294
    2MOL    H14  516   4.428   7.684   7.663  0.9386 -0.8882  0.4609
    2MOL    H15  517   4.620   0.142   7.615  0.6305  0.5397  1.0854
    2MOL    H16  518   4.518   0.111   7.753  0.1977  0.5768  0.2976
    2MOL    H17  519   4.416   0.193   7.486  1.8745  0.7500 -0.4134
    2MOL    H18  520   4.326   0.149   7.639  0.8289 -0.8941  1.2839
    2MOL    H19  521   4.390   0.332   7.736 -0.6034  0.0122 -0.4987
    2MOL    H20  522   4.522   0.384   7.629  0.8165 -0.6169  1.3048
    2MOL    H21  523   4.226   0.392   7.596  0.5225 -0.4763  1.6886
    2MOL    H22  524   4.316   0.377   7.449 -0.0648 -0.5797  0.7479
    2MOL    H23  525   4.319   0.612   7.648 -0.6187 -1.1483  0.0909
    2MOL    H24  526   4.425   0.611   7.505  2.8152 -1.3390  2.2587
    2MOL    H25  527   4.250   0.601   7.496  1.0325  0.4217  0.2600
    2MOL    H26  528   4.267   0.020   7.344 -0.5607 -0.4106  0.6461
    2MOL    C27  529   4.442   7.556   7.287 -0.2113 -0.3409  0.2025
    2MOL    C28  530   4.549   7.443   7.318  0.2803 -0.4886  0.0221
    2MOL    O29  531   4.488   7.353   7.413 -0.0398  0.0609 -0.2692
    2MOL    C30  532   4.566   7.351   7.530 -0.6027 -0.4867 -0.2293
    2MOL    C31  533   4.509   7.248   7.629 -0.6900  0.1170  0.3550
    2MOL    C32  534   4.592   7.257   7.759  0.1092  0.2109  0.2716
    2MOL    C33  535   4.539   7.370   0.070 -0.0931 -0.3679  0.1205
    2MOL    C34  536   4.609   7.362   0.204 -0.5828  0.2476  0.4650
    2MOL    C35  537   4.579   7.246   0.295 -0.6241  0.6079 -0.3440
    2MOL    H36  538   4.359   7.500   7.242 -1.8554  2.1559  0.0369
    2MOL    H37  539   4.479   7.632   7.219  0.9948  0.7004  1.9955
    2MOL    H38  540   4.635   7.497   7.358  0.7701 -1.6701  0.5892
    2MOL    H39  541   4.574   7.452   7.571  2.0231 -0.3658 -0.9625
    2MOL    H40  542   4.667   7.321   7.500 -0.8115 -0.6832 -0.7450
    2MOL    H41  543   4.515   7.146   7.591  0.4580  0.9182 -1.6830
    2MOL    H42  544   4.405   7.271   7.651 -0.5183  0.7081  0.5443
    2MOL    H43  545   4.570   7.165   0.036  2.3262 -0.1170  0.6488
    2MOL    H44  546   4.697   7.265   7.731  0.1696 -1.8223 -0.1362
    2MOL    H45  547   4.571   7.463   0.025  0.4316 -0.6232 -0.0413
    2MOL    H46  548   4.431   7.375   0.085  0.3262  3.0195  2.7328
    2MOL    H47  549   4.717   7.367   0.189 -0.7126 -1.0564 -1.0640
    2MOL    H48  550   4.582   7.457   0.251  0.3586 -0.1866  1.9292
    2MOL    H49  551   4.471   7.238   0.303 -0.8124  3.0266 -0.0460
    2MOL    H50  552   4.624   7.151   0.266  1.9048  1.4277  0.7020
    2MOL    H51  553   4.605   7.281   0.395 -1.7837  0.7306 -0.0888
    2MOL    C52  554   4.597   7.375   7.192 -0.0596  0.3942  0.2514
    2MOL    C53  555   4.727   7.298   7.196 -0.1002 -0.0711  0.2925
    2MOL    O54  556   4.727   7.203   7.299  0.3185  0.1040  0.2592
    2MOL    C55  557   4.858   7.180   7.360  0.5045  0.1648  0.4063
    2MOL    C56  558   4.835   7.067   7.465 -0.4246 -0.7653  0.1882
    2MOL    C57  559   4.791   6.940   7.398  0.2667  1.0710  0.5427
    2MOL    C58  560   4.782   6.820   7.486 -0.3916  0.8801  0.4275
    2MOL    C59  561   4.754   6.696   7.404 -0.2794  0.1744 -0.1250
    2MOL    C60  562   4.714   6.570   7.477  0.2584  0.3174 -0.7120
    2MOL    H61  563   4.605   7.452   7.115 -0.5314  0.1716 -0.0257
    2MOL    H62  564   4.523   7.305   7.153  1.8927 -1.8329  0.4888
    2MOL    H63  565   4.810   7.368   7.207 -0.6557  0.5942  0.2766
    2MOL    H64  566   4.898   7.268   7.409  0.7895  1.5601 -2.2064
    2MOL    H65  567   4.930   7.156   7.281 -1.0163  2.6656 -1.8099
    2MOL    H66  568   4.778   7.108   7.547 -0.0356  0.8879 -0.3596
    2MOL    H67  569   4.930   7.037   7.509  0.2386 -2.4671 -2.2734
    2MOL    H68  570   4.698   6.952   7.342 -0.0006  1.2619  1.0204
    2MOL    H69  571   4.868   6.925   7.322  0.2689  0.6074  0.6330
    2MOL    H70  572   4.880   6.806   7.531 -1.1734 -1.0672  1.5884
    2MOL    H71  573   4.708   6.840   7.563 -0.9783 -0.0456  0.1077
    2MOL    H72  574   4.657   6.711   7.357 -1.4619 -0.6795  1.9503
    2MOL    H73  575   4.831   6.690   7.327  0.2744 -1.0095  0.5084
    2MOL    H74  576   4.667   6.492   7.417  0.2969 -0.8930  0.8092
    2MOL    H75  577   4.807   6.530   7.517  0.4432  0.9192 -0.5236
    2MOL    H76  578   4.652   6.587   7.566  1.2996  0.8011 -0.0659
    2MOL    C77  579   4.755   7.223   7.063  0.5097 -0.7545  0.1082
    2MOL    C78  580   4.770   7.323   6.945  0.6196 -0.0171 -0.2386
    2MOL    O79  581   4.642   7.339   6.886  0.2086 -0.5464 -0.6022
    2MOL    C80  582   4.625   7.437   6.784  0.0222  0.1417 -0.6231
    2MOL    C81  583   4.497   7.514   6.818 -0.4429 -0.1562  0.2920
    2MOL    C82  584   4.458   7.612   6.711 -0.7202  0.2270  0.0138
    2MOL    C83  585   4.349   7.712   6.761  0.2533  0.7098  0.5191
    2MOL    C84  586   4.332   0.057   6.664 -0.8802  0.4302 -0.0493
    2MOL    C85  587   4.402   0.182   6.721  0.4973 -0.1449  0.0679
    2MOL    H86  588   4.679   7.152   7.030 -0.8006  0.0507  1.3657
    2MOL    H87  589   4.846   7.164   7.078  1.3999  0.0249 -1.9414
    2MOL    H88  590   4.793   7.421   6.988 -0.7079  0.1338  0.1412
    2MOL    H89  591   4.609   7.392   6.686 -2.1881 -0.5901  0.0452
    2MOL    H90  592   4.715   7.498   6.785 -1.2077  2.0044  0.0817
    2MOL    H91  593   4.506   7.567   6.913 -0.8608 -1.4852  1.0874
    2MOL    H92  594   4.416   7.443   6.833 -0.4933 -0.3555 -0.9072
    2MOL    H93  595   4.542   7.673   6.680 -0.2137 -0.2325  0.4795
    2MOL    H94  596   4.413   7.550   6.634  0.7210 -1.3670  0.4228
    2MOL    H95  597   4.252   7.662   6.759  0.2798  0.6793 -0.0689
    2MOL    H96  598   4.366   7.741   6.865 -1.7007  0.2079  0.9893
    2MOL    H97  599   4.360   0.043   6.560 -0.4650 -0.6073  0.1983
    2MOL    H98  600   4.225   0.076   6.659 -0.9590 -0.0681 -0.3325
    2MOL    H99  601   4.377   0.267   6.657  0.5653 -0.9156 -0.9972
    2MOL   H100  602   4.354   0.200   6.817 -2.0864  0.9547 -1.3947
    2MOL   H101  603   4.510   0.181   6.735  0.4746 -1.6285  0.2230
    2MOL   C102  604   4.867   7.271   6.838 -0.8201  0.2630 -0.1619
    2MOL   C103  605   5.009   7.240   6.888 -0.1844 -0.2888 -0.0829
    2MOL   O104  606   5.097   7.219   6.776  0.6115  0.2652  0.1141
    2MOL   C105  607   5.085   7.077   6.737 -0.1669 -0.1425 -0.0684
    2MOL   C106  608   5.144   7.054   6.592  0.4956 -0.0870 -0.2347
    2MOL   C107  609   5.061   7.123   6.479 -0.4225 -0.1201 -0.1227
    2MOL   C108  610   5.107   7.084   6.336  0.0347  0.1060 -0.4818
    2MOL   C109  611   5.250   7.133   6.294 -0.2939 -0.1652 -0.0473
    2MOL   C110  612   5.262   7.286   6.305 -0.7679  0.5435 -0.4144
    2MOL   H111  613   4.831   7.182   6.786  0.2200  0.4437 -1.2233
    2MOL   H112  614   4.890   7.349   6.765 -2.5707  2.7763  1.8865
    2MOL   H113  615   5.012   7.152   6.953  0.4277  0.9453  1.6196
    2MOL   H114  616   4.979   7.051   6.739 -0.1904 -0.0405  0.0123
    2MOL   H115  617   5.135   7.009   6.806 -4.2748 -3.6342 -0.3151
    2MOL   H116  618   5.138   6.947   6.568  0.0008 -0.1319  0.0932
    2MOL   H117  619   5.252   7.072   6.587  0.4096  0.1177 -1.6724
    2MOL   H118  620   4.955   7.103   6.488 -0.7073  1.8374  1.0694
    2MOL   H119  621   5.069   7.232   6.479  1.3536 -0.2355  0.8858
    2MOL   H120  622   5.096   6.976   6.325  0.9094  0.1699 -2.0924
    2MOL   H121  623   5.038   7.130   6.266 -2.5200 -1.7659  0.7240
    2MOL   H122  624   5.322   7.089   6.363 -0.9810  0.5779  1.1545
    2MOL   H123  625   5.264   7.104   6.190  1.2185 -2.6568  0.8184
    2MOL   H124  626   5.350   7.315   6.247  0.5842 -2.0175  0.2806
    2MOL   H125  627   5.174   7.338   6.267  2.2744  3.1108 -4.3688
    2MOL   H126  628   5.279   7.318   6.408 -0.0024  0.4923 -0.5201
    2MOL   C127  629   5.085   7.355   6.968  0.1027 -0.3243  0.1091
    2MOL   C128  630   5.221   7.307   7.036 -0.5753  0.1223  0.2693
    2MOL   O129  631   5.192   7.226   7.151 -0.4811  0.4381  0.1746
    2MOL   C130  632   5.269   7.112   7.147 -0.1501  0.3736 -0.0046
    2MOL   C131  633   5.251   7.022   7.274  0.1974 -0.5862  1.4178
    2MOL   C132  634   5.233   7.102   7.400  0.1480 -0.1507 -0.6610
    2MOL   C133  635   5.253   7.019   7.532 -0.1669 -1.0325  0.2991
    2MOL   C134  636   5.215   7.098   7.663 -0.0575  0.2998 -0.1041
    2MOL   C135  637   5.329   7.200   7.702  0.4951 -0.4214  0.1785
    2MOL   H136  638   5.098   7.433   6.893  1.4609 -0.7514 -0.1129
    2MOL   H137  639   5.029   7.413   7.041 -0.3429 -0.1561 -0.3641
    2MOL   H138  640   5.283   7.257   6.961 -0.6335  0.6994 -0.1629
    2MOL   H139  641   5.371   7.151   7.150 -0.1526  0.2762  1.8265
    2MOL   H140  642   5.261   7.047   7.060 -2.6805 -0.6397  0.9476
    2MOL   H141  643   5.337   6.956   7.284  1.5834  1.0924  0.7833
    2MOL   H142  644   5.161   6.964   7.253  1.3170 -2.7002  2.3021
    2MOL   H143  645   5.289   7.196   7.395  0.0149 -0.0719 -0.6768
    2MOL   H144  646   5.136   7.151   7.398  1.5069  2.7822  1.8115
    2MOL   H145  647   5.193   6.928   7.537  0.7600 -1.5798  1.7827
    2MOL   H146  648   5.356   6.984   7.528  0.3129  0.6094 -4.5870
    2MOL   H147  649   5.126   7.154   7.635 -0.1744 -0.6889 -1.7935
    2MOL   H148  650   5.179   7.032   7.742  0.0497  1.6093  1.0487
    2MOL   H149  651   5.361   7.256   7.615  0.6267  1.2515  1.2837
    2MOL   H150  652   5.291   7.271   7.775 -0.6842  0.2540 -1.0699
    2MOL   H151  653   5.417   7.154   7.748 -0.2861 -0.1549  1.9836
    2MOL   C152  654   5.299   7.426   7.101  0.2876 -0.0162 -0.2393
    2MOL   C153  655   5.344   7.544   7.010  0.1568  0.3128  0.2273
    2MOL   O154  656   5.418   7.631   7.092 -0.3993 -0.0309  0.3909
    2MOL   C155  657   5.352   7.734   7.159  0.3696  0.5026  0.7949
    2MOL   C156  658   5.445   0.006   7.272  0.0779  0.4687  0.2231
    2MOL   C157  659   5.569   0.086   7.232  0.0282  0.7498  0.8559
    2MOL   C158  660   5.644   0.176   7.339 -0.2841  0.2264 -0.6187
    2MOL   C159  661   5.574   0.308   7.362  0.8594  1.0702 -0.5169
    2MOL   C160  662   5.641   0.408   7.466  0.3279  0.3336 -0.2055
    2MOL   H161  663   5.244   7.484   7.175  0.1096  1.3014 -1.3776
    2MOL   H162  664   5.383   7.379   7.150  0.3451  0.5236  0.1827
    2MOL   H163  665   5.262   7.598   6.963 -0.5444  0.2572  1.3606
    2MOL   H164  666   5.256   7.700   7.197 -0.2512  0.6291 -0.6298
    2MOL   H165  667   5.330   0.041   7.093  0.6410  0.3032  0.4476
    2MOL   H166  668   5.469   7.689   7.320 -2.5830 -0.5452 -0.3577
    2MOL   H167  669   5.389   0.073   7.338 -0.9429 -0.0634 -0.0827
    2MOL   H168  670   5.647   0.023   7.190 -2.1368  1.1008 -3.9670
    2MOL   H169  671   5.547   0.156   7.151  0.6256 -1.5582 -1.3224
    2MOL   H170  672   5.651   0.113   7.428  1.2782  2.1888  0.6946
    2MOL   H171  673   5.747   0.186   7.305 -0.3497 -1.9651 -1.5179
    2MOL   H172  674   5.548   0.351   7.265 -0.3970  0.8392 -0.2963
    2MOL   H173  675   5.473   0.282   7.396  1.2844 -0.7932 -0.6197
    2MOL   H174  676   5.750   0.416   7.458  0.2810  1.4316  0.0891
    2MOL   H175  677   5.597   0.505   7.442 -0.2295 -0.3144 -1.8498
    2MOL   H176  678   5.619   0.377   7.568 -0.6526  1.6362 -0.0004
    2MOL   C177  679   5.453   7.499   6.908  0.5977  0.4860  0.3133
    2MOL   C178  680   5.489   7.607   6.792 -0.2391  0.1994 -0.0131
    2MOL   O179  681   5.375   7.644   6.717 -0.8907  0.0556  0.3901
    2MOL   C180  682   5.315   7.540   6.646  0.0525 -0.6342 -0.3833
    2MOL   C181  683   5.191   7.600   6.566 -0.9294  0.8419  0.0380
    2MOL   C182  684   5.083   7.655   6.649  0.2999 -0.1262  0.0134
    2MOL   C183  685   4.973   7.722   6.568 -0.2316  0.0646 -0.5173
    2MOL   C184  686   4.863   0.013   6.653  0.1125  0.6231 -0.4566
    2MOL   C185  687   4.774   0.100   6.571  0.5902 -0.3693 -0.4406
    2MOL   H186  688   5.541   7.472   6.967  0.0787 -0.9752  0.4189
    2MOL   H187  689   5.423   7.409   6.855  0.1602  0.3087  0.8663
    2MOL   H188  690   5.554   7.548   6.727  1.1315 -0.0488  1.5350
    2MOL   H189  691   5.269   7.475   6.721  0.1146  0.5004  0.6447
    2MOL   H190  692   5.388   7.484   6.586  0.8889  1.7995 -1.7119
    2MOL   H191  693   5.145   7.523   6.504  0.1801  1.1011 -1.1391
    2MOL   H192  694   5.242   7.675   6.506  1.3037  1.8002  3.0308
    2MOL   H193  695   5.032   7.582   6.713  3.0299 -1.5413  0.6718
    2MOL   H194  696   5.132   7.725   6.716 -1.0385  0.2767  0.5838
    2MOL   H195  697   5.013   0.025   6.507  0.0546 -0.0216 -0.4427
    2MOL   H196  698   4.916   7.648   6.511  0.1596 -1.7267  1.3451
    2MOL   H197  699   4.791   7.725   6.700  0.7507  1.1395  1.2623
    2MOL   H198  700   4.913   0.073   6.729  0.5254 -0.1586 -0.0955
    2MOL   H199  701   4.738   0.044   6.484 -1.1725  1.5237 -0.9939
    2MOL   H200  702   4.679   0.117   6.623 -0.4101 -0.1105 -2.2971
    2MOL   H201  703   4.811   0.191   6.524 -3.6011  2.4750  1.4108
    2MOL   C202  704   5.568   7.727   6.836 -0.1501  0.4738  0.2292
    2MOL   C203  705   5.606   0.048   6.731 -0.3945 -0.4774  0.4194
    2MOL   O204  706   5.709   0.006   6.644  0.2493  0.7743  0.5732
    2MOL   C205  707   5.661   7.731   6.524 -0.4127 -0.1753  0.0105
    2MOL   C206  708   5.781   7.657   6.467  0.3207 -0.2422  0.0477
    2MOL   C207  709   5.831   7.538   6.554 -0.0336  0.2712 -0.1465
    2MOL   C208  710   5.797   7.400   6.506 -0.4652 -0.5396  0.0278
    2MOL   C209  711   5.645   7.369   6.508 -0.6528 -0.2326  0.6671
    2MOL   C210  712   5.612   7.232   6.457  0.6011 -0.0896  0.3070
    2MOL   H211  713   5.509   0.001   6.913  0.9395 -0.5932  1.8202
    2MOL   H212  714   5.663   7.700   6.882  0.6742  0.4816 -1.4540
    2MOL   H213  715   5.517   0.084   6.678 -1.8153 -2.1244  1.6403
    2MOL   H214  716   5.631   0.035   6.458 -0.4858  0.3759  0.7212
    2MOL   H215  717   5.580   7.658   6.531 -1.2064  0.4032 -2.4791
    2MOL   H216  718   5.855   7.737   6.459  0.6516 -0.4131  1.3244
    2MOL   H217  719   5.754   7.620   6.368  2.3397 -0.5397 -0.4153
    2MOL   H218  720   5.940   7.545   6.549 -0.0511  0.3531 -0.4206
    2MOL   H219  721   5.797   7.545   6.657  2.0913  0.1190  0.5881
    2MOL   H220  722   5.832   7.386   6.403 -1.1716 -1.0839 -0.1418
    2MOL   H221  723   5.851   7.327   6.567 -0.4517  0.1311  0.8242
    2MOL   H222  724   5.602   7.389   6.607 -0.9962  1.2708  0.2267
    2MOL   H223  725   5.586   7.432   6.442 -0.3801 -1.3164 -0.6311
    2MOL   H224  726   5.678   7.152   6.492 -0.5596 -0.9625  0.5036
    2MOL   H225  727   5.509   7.205   6.476  0.9769 -0.8024  1.4052
    2MOL   H226  728   5.630   7.227   6.349 -1.5673  0.5877 -0.0909
    2MOL   C227  729   5.687   0.169   6.784  1.1435 -0.0967  0.2878
    2MOL   C228  730   5.722   0.275   6.676 -0.1788  0.3124  0.7148
    2MOL   O229  731   5.614   0.377   6.674 -0.7084  0.0865  0.5643
    2MOL   C230  732   5.599   0.438   6.547  0.9300  0.1260  0.0481
    2MOL   C231  733   5.484   0.535   6.567  0.0282 -0.1079  0.0807
    2MOL   C232  734   5.484   0.660   6.471 -0.0593 -0.3070 -0.5205
    2MOL   C233  735   5.427   0.627   6.332  0.0617  0.1788 -0.6659
    2MOL   C234  736   5.437   0.742   6.234 -0.4847 -0.2495  0.2095
    2MOL   C235  737   5.371   0.721   6.097  0.2319  0.5523  0.1638
    2MOL   H236  738   5.626   0.224   6.857 -0.8494 -1.6172 -0.1952
    2MOL   H237  739   5.776   0.133   6.835  1.1277 -1.1248 -0.4155
    2MOL   H238  740   5.715   0.227   6.578 -1.3988  1.7930  0.0417
    2MOL   H239  741   5.567   0.362   6.476  1.2441  0.1536 -0.1236
    2MOL   H240  742   5.694   0.487   6.527  1.8668 -1.4323  0.6791
    2MOL   H241  743   5.484   0.585   6.664 -0.4175 -1.2284  0.6671
    2MOL   H242  744   5.387   0.486   6.561  1.2879 -2.7474  0.5980
    2MOL   H243  745   5.421   0.734   6.521  0.6965 -0.0113 -0.0022
    2MOL   H244  746   5.579   0.713   6.480 -1.0523  1.4655 -0.2525
    2MOL   H245  747   5.494   0.546   6.302 -0.8515 -1.4807  1.6292
    2MOL   H246  748   5.327   0.583   6.332  1.2610 -2.6905 -1.9636
    2MOL   H247  749   5.379   0.825   6.275  1.0345  0.1603  1.5671
    2MOL   H248  750   5.542   0.766   6.222 -0.1737 -1.1795  1.0033
    2MOL   H249  751   5.436   0.664   6.031  0.9269  2.0577 -0.4589
    2MOL   H250  752   5.279   0.662   6.096 -1.0204  2.4503  1.1555
    2MOL   H251  753   5.347   0.818   6.054  0.3777  0.9070  0.8825
    2MOL   C252  754   5.860   0.345   6.694  0.1814  0.5977  0.5131
    2MOL   C253  755   5.989   0.265   6.651  0.5087 -1.0452 -0.3386
    2MOL   O254  756   5.998   0.227   6.521 -0.1926 -0.6299  0.5544
    2MOL   C255  757   5.977   0.327   6.421 -0.4067  0.1081  0.4569
    2MOL   C256  758   6.062   0.298   6.291 -0.2440  0.0283 -0.6280
    2MOL   C257  759   6.210   0.308   6.315 -0.1458 -0.7912 -0.1869
    2MOL   C258  760   6.286   0.262   6.193 -0.4149 -0.3693 -0.4182
    2MOL   C259  761   6.424   0.319   6.182 -0.1205 -0.2222 -0.3650
    2MOL   C260  762   6.537   0.235   6.241 -0.8598 -0.1419 -0.4004
    2MOL   H261  763   5.864   0.436   6.634 -1.6989 -0.9639 -2.0648
    2MOL   H262  764   5.880   0.377   6.796  1.9433 -2.2335  1.1161
    2MOL   H263  765   6.061   0.347   6.657 -0.1722 -0.4800  0.2879
    2MOL   H264  766   6.001   0.430   6.449 -0.2668  0.5890 -1.3945
    2MOL   H265  767   5.871   0.325   6.396 -0.0585 -1.2602 -0.9529
    2MOL   H266  768   6.026   0.365   6.214 -0.1759 -0.4739 -1.0997
    2MOL   H267  769   6.053   0.197   6.251 -0.4702 -0.7430  1.2730
    2MOL   H268  770   6.227   0.413   6.341 -0.3371  0.2567 -3.9535
    2MOL   H269  771   6.246   0.249   6.400 -1.1898 -0.7680  0.2798
    2MOL   H270  772   6.290   0.153   6.192  2.2141 -0.2982  0.6161
    2MOL   H271  773   6.230   0.285   6.102 -0.1697  0.3205 -0.3931
    2MOL   H272  774   6.434   0.312   6.074 -0.0703  0.6188 -0.4166
    2MOL   H273  775   6.417   0.426   6.204  0.5712 -0.2778  0.1571
    2MOL   H274  776   6.530   0.129   6.215  0.6762  0.2808 -2.7375
    2MOL   H275  777   6.638   0.263   6.210 -0.5362  0.3771  1.0705
    2MOL   H276  778   6.540   0.241   6.350  0.0883  0.2721 -0.4408
    2MOL   C277  779   6.015   0.148   6.751 -0.4478 -0.4526 -0.6718
    2MOL   C278  780   6.159   0.094   6.732 -0.1845  0.3987  0.1406
    2MOL   O279  781   6.262   0.157   6.810  0.0679 -0.1746 -0.1631
    2MOL   C280  782   6.354   0.216   6.720  0.8745  0.1865 -0.0486
    2MOL   C281  783   6.476   0.235   6.800 -0.0284 -0.9948  0.0641
    2MOL   C282  784   6.463   0.349   6.913  0.0658  0.0755  0.5299
    2MOL   C283  785   6.585   0.358   7.010  1.1235  0.1877 -0.2991
    2MOL   C284  786   6.574   0.479   7.098 -0.3961  0.9841  0.1578
    2MOL   C285  787   6.632   0.448   7.235  0.4668  0.1308 -0.0014
    2MOL   H286  788   6.004   0.178   6.855 -2.3516 -0.0713 -0.9535
    2MOL   H287  789   5.943   0.067   6.739 -0.3181 -1.1924  2.8861
    2MOL   H288  790   6.180   0.100   6.626 -2.1580  1.5673 -0.1950
    2MOL   H289  791   6.303   0.305   6.685  0.4188 -0.3549 -0.7703
    2MOL   H290  792   6.379   0.153   6.635 -2.6883  0.0643 -1.0469
    2MOL   H291  793   6.556   0.267   6.732  0.1842 -1.0486  0.2889
    2MOL   H292  794   6.514   0.139   6.836 -0.9575 -1.2476  0.3640
    2MOL   H293  795   6.442   0.445   6.866 -0.7225 -0.3435  0.0133
    2MOL   H294  796   6.368   0.337   6.965 -0.3912 -2.3564 -0.7678
    2MOL   H295  797   6.570   0.264   7.064  4.0137 -0.3746 -0.3807
    2MOL   H296  798   6.677   0.355   6.951  2.0771 -1.6738  1.2308
    2MOL   H297  799   6.635   0.556   7.049  0.8833 -0.2417 -0.1883
    2MOL   H298  800   6.472   0.516   7.106 -0.2590  0.8986  2.7433
    2MOL   H299  801   6.572   0.371   7.282  1.5011 -0.7751 -0.1344
    2MOL   H300  802   6.728   0.402   7.212  0.5275  0.1868  0.1389
    2MOL   H301  803   6.661   0.524   7.308 -0.2454  1.0490 -0.6657
    2MOL   C302  804   6.172   7.728   6.775 -0.1716 -0.3720 -0.7084
    2MOL   C303  805   6.284   7.664   6.691  0.4148 -0.3529  0.1452
    2MOL   O304  806   6.217   7.588   6.591  0.8443  0.3651  0.3189
    2MOL   C305  807   6.181   7.661   6.477  0.4300 -0.5678 -0.3257
    2MOL   C306  808   6.214   7.569   6.355  0.4870  0.4395 -0.6001
    2MOL   C307  809   6.237   7.657   6.233  0.2508  0.7297 -0.5935
    2MOL   C308  810   6.259   7.589   6.094  0.3100  0.5486  0.3989
    2MOL   C309  811   6.148   7.494   6.045  0.1447  0.2724 -0.6344
    2MOL   C310  812   6.170   7.466   5.895 -0.2849  0.0753  0.5959
    2MOL   H311  813   6.196   7.734   6.881 -3.6544 -1.2935  0.1958
    2MOL   H312  814   6.086   7.665   6.751  0.6559 -2.9304  2.7158
    2MOL   H313  815   6.352   7.741   6.657 -1.7552  0.6941 -1.9401
    2MOL   H314  816   6.243   7.750   6.474  0.0134 -0.2970 -0.8246
    2MOL   H315  817   6.076   7.680   6.496  0.9291  0.2569  1.7285
    2MOL   H316  818   6.140   7.490   6.343 -0.8929  1.5266  0.6835
    2MOL   H317  819   6.306   7.513   6.375  0.3205  0.2219 -0.4327
    2MOL   H318  820   6.150   7.722   6.236 -0.2889 -0.0285  0.8006
    2MOL   H319  821   6.325   7.719   6.251 -0.6657  1.6778  0.6626
    2MOL   H320  822   6.281   7.667   6.020  3.1119  1.1877  1.8193
    2MOL   H321  823   6.357   7.541   6.093  0.4492  0.7021  2.9035
    2MOL   H322  824   6.164   7.398   6.093 -0.0178 -0.9295 -2.9539
    2MOL   H323  825   6.048   7.533   6.060  0.0207 -0.3551  0.1732
    2MOL   H324  826   6.265   7.414   5.889 -0.8198 -1.0338  1.5444
    2MOL   H325  827   6.092   7.397   5.862 -0.9147  0.8759  0.3927
    2MOL   H326  828   6.156   7.555   5.833 -1.6808 -0.7952 -0.3799
    2MOL   C327  829   6.378   7.560   6.763  0.7502  0.3957  0.0770
    2MOL   C328  830   6.476   7.609   6.864  0.4812  0.3842 -0.6369
    2MOL   O329  831   6.518   7.494   6.943  0.0177 -0.0247 -0.1529
    2MOL   C330  832   6.451   7.463   7.063  0.2220 -0.2923 -0.0115
    2MOL   C331  833   6.487   7.317   7.085  0.2122 -0.2194  0.1584
    2MOL   C332  834   6.428   7.264   7.213 -0.0045  0.0567 -0.1854
    2MOL   C333  835   6.459   7.116   7.234 -0.4303  1.1293  0.1885
    2MOL   C334  836   6.591   7.094   7.296 -0.5833 -0.4003 -0.0456
    2MOL   C335  837   6.598   7.097   7.452 -0.1369  0.2253  0.3370
    2MOL   H336  838   6.435   7.506   6.686 -1.2512 -2.0924  0.2699
    2MOL   H337  839   6.318   7.479   6.805  0.5584  0.9237  0.8347
    2MOL   H338  840   6.434   7.689   6.924  1.7978  0.8431 -0.3003
    2MOL   H339  841   6.346   7.460   7.033  0.1551  0.2726  0.1744
    2MOL   H340  842   6.466   7.536   7.142 -1.0502 -2.6023  2.4573
    2MOL   H341  843   6.595   7.306   7.076  0.8598  3.9653  1.9896
    2MOL   H342  844   6.448   7.270   6.994 -0.6958  1.3637 -0.2917
    2MOL   H343  845   6.452   7.317   7.305  0.6358  0.1312 -0.3954
    2MOL   H344  846   6.320   7.277   7.209  0.0263  0.0627 -1.1812
    2MOL   H345  847   6.379   7.071   7.294 -1.2802  1.1868 -0.8845
    2MOL   H346  848   6.469   7.066   7.138 -0.9914 -0.1973  0.7984
    2MOL   H347  849   6.637   7.003   7.256  0.1211 -0.5344  1.0401
    2MOL   H348  850   6.652   7.179   7.266 -1.5603  0.9073  1.5877
    2MOL   H349  851   6.535   7.175   7.495 -0.6104 -0.5015  0.9630
    2MOL   H350  852   6.562   7.002   7.489  0.8044  0.2822  1.4294
    2MOL   H351  853   6.695   7.095   7.501 -0.5179 -1.2312  1.0444
    2MOL   C352  854   6.602   7.664   6.793  0.3378 -0.0765 -0.1684
    2MOL   C353  855   6.737   7.686   6.867  0.2140 -0.0023  0.4789
    2MOL   O354  856   6.718   0.027   6.941 -0.6725 -0.1494  0.3284
    2MOL   C355  857   6.745   0.013   7.080  0.0396 -0.1526  0.3705
    2MOL   C356  858   6.893   7.769   7.104 -0.0440 -0.6398  0.5193
    2MOL   C357  859   6.924   7.744   7.252 -0.0286  0.3060 -0.1419
    2MOL   C358  860   6.860   7.619   7.314 -0.7791 -0.2824 -0.0491
    2MOL   C359  861   6.913   7.483   7.265  0.3986 -0.8063  0.2780
    2MOL   C360  862   6.828   7.369   7.317  0.4275 -0.6132  0.5146
    2MOL   H361  863   6.634   7.582   6.728 -0.6518 -1.2657  0.8161
    2MOL   H362  864   6.576   7.744   6.724 -0.7225 -0.6506 -0.4519
    2MOL   H363  865   6.760   7.602   6.932 -1.7637 -2.3356 -1.7340
    2MOL   H364  866   6.676   7.715   7.117 -0.1171  0.6661  1.7727
    2MOL   H365  867   6.725   0.109   7.128 -1.4050  0.5716 -1.6132
    2MOL   H366  868   6.954   0.071   7.061 -0.7092 -0.1598  0.4423
    2MOL   H367  869   6.927   7.677   7.056  0.3106 -0.2017 -0.0816
    2MOL   H368  870   7.031   7.740   7.272  0.3109  1.3081 -1.6613
    2MOL   H369  871   6.880   0.057   7.296  1.1445  0.8674 -0.1057
    2MOL   H370  872   6.894   7.624   7.417  0.5392  0.7938 -0.5278
    2MOL   H371  873   6.751   7.621   7.311 -0.7481  1.6187 -0.5070
    2MOL   H372  874   6.919   7.493   7.156 -2.3963 -0.8839  0.0828
    2MOL   H373  875   7.017   7.484   7.295  0.2219  0.3224  0.8632
    2MOL   H374  876   6.791   7.371   7.419 -1.0775 -0.6336 -0.0269
    2MOL   H375  877   6.745   7.363   7.247  0.4150 -0.7210  0.5381
    2MOL   H376  878   6.869   7.268   7.310 -0.2799 -1.1305  3.3263
    2MOL   C377  879   6.848   7.711   6.764 -0.4151  0.4982  0.2452
    2MOL   C378  880   6.924   7.587   6.704 -0.4137  0.1210  0.0835
    2MOL   O379  881   7.009   7.545   6.807  0.0837 -0.6696  0.3518
    2MOL   C380  882   6.988   7.415   6.849 -0.3422  0.3188 -0.2522
    2MOL   C381  883   7.126   7.362   6.878 -0.5062  0.6081 -0.1725
    2MOL   C382  884   7.206   7.419   7.001 -0.6900  0.7322  0.1996
    2MOL   C383  885   7.283   7.314   7.087 -0.6113 -0.2784  0.1414
    2MOL   C384  886   7.411   7.259   7.016  0.2157  0.5868  0.4936
    2MOL   C385  887   7.383   7.142   6.918  0.0180  0.1359 -0.4064
    2MOL   H386  888   6.818   0.008   6.690  2.2044  0.6384 -0.7427
    2MOL   H387  889   6.919   7.775   6.816  0.6008  0.6123 -1.2476
    2MOL   H388  890   6.848   7.511   6.689 -0.3970 -0.0061  0.6119
    2MOL   H389  891   6.960   7.353   6.764 -0.6100  1.3553 -0.9246
    2MOL   H390  892   6.921   7.397   6.933 -1.3467 -0.9596 -1.3122
    2MOL   H391  893   7.198   7.359   6.796 -1.0967 -0.7729 -0.6484
    2MOL   H392  894   7.110   7.256   6.895 -0.6137  0.3348 -1.8954
    2MOL   H393  895   7.270   7.502   6.972 -1.0803  0.2099 -2.3249
    2MOL   H394  896   7.137   7.474   7.064 -0.9383  0.2264  0.3747
    2MOL   H395  897   7.319   7.363   7.177  1.6298  1.3090 -1.5650
    2MOL   H396  898   7.218   7.229   7.110 -0.1305 -0.7357 -0.1697
    2MOL   H397  899   7.452   7.341   6.958 -0.7825 -0.2205 -1.3925
    2MOL   H398  900   7.485   7.224   7.088  1.4888  2.4725  0.1303
    2MOL   H399  901   7.304   7.146   6.843  1.6898 -1.4916 -2.3152
    2MOL   H400  902   7.476   7.126   6.863  0.4197  0.5990  0.1332
    2MOL   H401  903   7.362   7.047   6.968  1.3734 -0.7813 -1.5462
    2MOL   C402  904   7.010   7.607   6.579 -0.1925 -0.3355 -0.5492
    2MOL   C403  905   6.923   7.638   6.453  0.0100 -0.0992 -0.3474
    2MOL   O404  906   6.866   7.517   6.399  0.3427  0.0296 -0.4699
    2MOL   C405  907   6.721   7.501   6.382  0.0713  0.1748  0.0006
    2MOL   C406  908   6.691   7.369   6.307  0.2648  0.8708 -0.3085
    2MOL   C407  909   6.542   7.348   6.285  0.6735  0.5861  0.1377
    2MOL   C408  910   6.515   7.226   6.188 -0.1215 -0.0338  0.6553
    2MOL   C409  911   6.371   7.232   6.150 -0.5453  0.6033 -0.2909
    2MOL   C410  912   6.313   7.087   6.137  0.1081 -0.4472 -0.3692
    2MOL   H411  913   7.073   7.523   6.553  0.2663 -0.2755  0.3572
    2MOL   H412  914   7.087   7.679   6.606  0.0350 -1.4556  1.8967
    2MOL   H413  915   6.851   7.708   6.495  0.6701  0.0469  0.5617
    2MOL   H414  916   6.681   7.597   6.350  0.1808  0.8970  1.9977
    2MOL   H415  917   6.675   7.486   6.479 -0.7061 -0.6318 -0.4823
    2MOL   H416  918   6.738   7.293   6.369 -1.2501 -1.2577 -1.7025
    2MOL   H417  919   6.747   7.368   6.213 -0.8506 -0.2724 -0.9760
    2MOL   H418  920   6.484   7.332   6.375 -0.2234 -0.4440 -0.6129
    2MOL   H419  921   6.498   7.435   6.235  0.7660  0.3482 -0.3605
    2MOL   H420  922   6.581   7.225   6.101 -0.0594  0.0691  0.7014
    2MOL   H421  923   6.525   7.131   6.240  0.1344 -1.8304 -2.5890
    2MOL   H422  924   6.311   7.301   6.210  0.6011  2.1479 -0.8754
    2MOL   H423  925   6.367   7.278   6.051  1.9137 -0.5860 -0.9797
    2MOL   H424  926   6.225   7.102   6.075  1.5250  0.8221 -2.1497
    2MOL   H425  927   6.377   7.019   6.080 -1.7520 -1.8450 -0.8282
    2MOL   H426  928   6.284   7.045   6.233  1.5893 -0.9052 -0.1117
    2MOL   C427  929   7.005   7.707   6.343  0.2437  0.1201 -0.5369
    2MOL   C428  930   7.049   0.070   6.383 -0.3242 -0.5575  0.3726
    2MOL   O429  931   7.154   0.110   6.295 -0.2490  0.0334  0.1309
    2MOL   C430  932   7.284   0.103   6.348  0.4001 -0.6913  0.1656
    2MOL   C431  933   7.372   0.134   6.233 -0.1699 -0.7421 -0.1620
    2MOL   C432  934   7.362   0.034   6.119 -0.2441  0.2235  0.9814
    2MOL   C433  935   7.443   0.055   5.993  0.4164  0.3311 -0.3589
    2MOL   C434  936   7.447   7.710   5.893 -0.7375 -0.2691  0.1741
    2MOL   C435  937   7.556   7.705   5.791  0.1421 -0.0466 -0.4499
    2MOL   H436  938   7.090   7.647   6.310 -0.0879 -0.5975 -0.1021
    2MOL   H437  939   6.945   7.724   6.253  0.5450  1.2856 -0.5134
    2MOL   H438  940   7.092   0.074   6.484  1.2512  0.8430 -0.3351
    2MOL   H439  941   7.322   0.009   6.388  1.6784 -0.8970 -1.4930
    2MOL   H440  942   7.308   0.178   6.423 -2.7517 -1.5662  2.1751
    2MOL   H441  943   7.475   0.135   6.269  0.1561 -2.0103 -1.0271
    2MOL   H442  944   7.376   0.232   6.185 -0.0345 -0.3827  0.5747
    2MOL   H443  945   7.380   7.711   6.157 -1.2294  0.7395  2.8468
    2MOL   H444  946   7.260   0.042   6.081  0.3464 -0.9001 -0.9080
    2MOL   H445  947   7.439   0.152   5.944  1.0914  1.1032  1.0518
    2MOL   H446  948   7.542   0.061   6.039 -0.2733  1.8991  0.9906
    2MOL   H447  949   7.462   7.619   5.952 -0.1420 -0.7707 -0.7465
    2MOL   H448  950   7.351   7.704   5.841  0.8052 -0.5040 -2.7165
    2MOL   H449  951   7.654   7.706   5.838  0.5151 -3.5437 -1.0652
    2MOL   H450  952   7.545   7.608   5.743  1.3876 -1.6939  2.4525
    2MOL   H451  953   7.549   7.774   5.707 -0.9181 -2.4620 -2.4016
    2MOL   C452  954   6.933   0.172   6.360 -0.2732  0.5653  0.0979
    2MOL   C453  955   6.961   0.311   6.409  0.0065 -0.4024  0.3794
    2MOL   O454  956   6.991   0.308   6.544  0.3235  0.6290 -0.1061
    2MOL   C455  957   7.076   0.409   6.594 -0.1959 -0.8775  0.0160
    2MOL   C456  958   7.103   0.394   6.745 -0.4879 -0.0857  0.3744
    2MOL   C457  959   7.164   0.255   6.779  0.7155  0.6139  0.2479
    2MOL   C458  960   7.181   0.221   6.928 -0.0626 -0.3981  0.0442
    2MOL   C459  961   7.278   0.092   6.958  0.4804 -0.1524 -0.1381
    2MOL   C460  962   7.333   0.109   7.098 -0.3646 -0.1996  0.5596
    2MOL   H461  963   6.900   0.178   6.256 -0.4479  0.7642  0.1634
    2MOL   H462  964   6.842   0.133   6.406 -0.7022  0.7286 -0.5985
    2MOL   H463  965   7.036   0.358   6.345  0.1654 -0.6134  0.4117
    2MOL   H464  966   7.037   0.507   6.567  0.1070 -0.6010  0.5634
    2MOL   H465  967   7.171   0.398   6.542 -0.5168  0.8511 -0.9833
    2MOL   H466  968   7.008   0.400   6.799 -0.1687  1.8787  0.7561
    2MOL   H467  969   7.172   0.475   6.772  1.7033 -1.4367 -1.0674
    2MOL   H468  970   7.093   0.185   6.734  0.3231  1.0774  0.1476
    2MOL   H469  971   7.261   0.239   6.732  0.1184  0.7772 -1.0721
    2MOL   H470  972   7.226   0.301   6.987 -1.2867  0.3717 -0.0488
    2MOL   H471  973   7.078   0.209   6.961 -0.8213 -1.6437 -2.6927
    2MOL   H472  974   7.214   0.005   6.942 -1.4095  1.5482 -2.0312
    2MOL   H473  975   7.363   0.095   6.890  1.0327  0.9643  0.6015
    2MOL   H474  976   7.404   0.191   7.104  0.3095 -0.8416  1.5414
    2MOL   H475  977   7.244   0.126   7.158 -0.2468  2.9443 -0.0766
    2MOL   H476  978   7.380   0.019   7.138  1.1699  1.1700  1.9226
    2MOL   C477  979   6.839   0.392   6.392 -0.0451  0.5588 -0.5096
    2MOL   C478  980   6.731   0.364   6.500 -0.5189 -0.3427 -0.8099
    2MOL   O479  981   6.624   0.452   6.491 -0.1666 -0.2871  0.2428
    2MOL   C480  982   6.643   0.577   6.557 -0.6198  0.8914  0.1329
    2MOL   C481  983   6.539   0.677   6.534  0.0233  0.3983  0.0359
    2MOL   C482  984   6.556   0.754   6.401  0.2307 -0.7845  0.0464
    2MOL   C483  985   6.452   0.856   6.372  0.0447  0.5354  0.2506
    2MOL   C484  986   6.454   0.913   6.239  0.0412 -0.0569 -0.3000
    2MOL   C485  987   6.324   0.995   6.206  0.5986  0.0403 -0.1507
    2MOL   H486  988   6.868   0.497   6.396 -0.2981  0.8047 -3.5669
    2MOL   H487  989   6.803   0.384   6.289 -0.7461  1.9794 -0.3809
    2MOL   H488  990   6.685   0.266   6.494  0.7711 -1.0237  0.2892
    2MOL   H489  991   6.743   0.611   6.532  0.2514 -1.7575 -0.1780
    2MOL   H490  992   6.661   0.561   6.663 -1.9903  0.1310  0.2674
    2MOL   H491  993   6.532   0.754   6.611 -0.1815 -0.1667  0.5886
    2MOL   H492  994   6.448   0.617   6.533  1.2632 -1.5789  1.9756
    2MOL   H493  995   6.650   0.807   6.391  0.7430 -1.3566  1.7282
    2MOL   H494  996   6.554   0.671   6.330 -1.1763  0.2187 -1.1127
    2MOL   H495  997   6.359   0.800   6.386  0.1972  0.3074  0.3700
    2MOL   H496  998   6.455   0.943   6.437 -0.1487  2.0033 -1.6679
    2MOL   H497  999   6.544   0.972   6.224  1.0811 -1.5104  0.0695
    2MOL   H498 1000   6.451   0.823   6.178 -1.8284 -0.0902 -0.1878
    2MOL   H499 1001   6.314   1.092   6.254 -1.8016 -0.0543 -0.4087
    2MOL   H500 1002   6.314   1.004   6.098  0.3936  2.0425  0.0182
    2MOL   H501 1003   6.237   0.946   6.250  0.8641 -1.0376 -0.8117
    2MOL   H502 1004   6.773   0.369   6.600 -2.0591 -2.0881 -0.0504
    3MOL     C1 1005   1.163   5.761   7.159  0.1952  0.5777  0.4156
    3MOL     C2 1006   1.055   5.782   7.271 -0.1079 -0.5718  0.3913
    3MOL     O3 1007   0.974   5.895   7.250 -0.6578  0.4351 -0.5853
    3MOL     C4 1008   0.911   5.889   7.119 -0.3343  0.1502  0.4690
    3MOL     C5 1009   0.812   5.999   7.110 -0.2218 -0.1440  0.2589
    3MOL     C6 1010   0.677   5.968   7.177  0.5446  0.5135  0.4770
    3MOL     C7 1011   0.586   6.089   7.186  0.7330  0.6057 -0.3702
    3MOL     C8 1012   0.441   6.066   7.243  0.0615 -1.5955 -0.0143
    3MOL     C9 1013   0.359   6.200   7.264 -0.5693  0.0642  0.3532
    3MOL    H10 1014   1.227   5.849   7.152  0.4495  0.4485  1.0400
    3MOL    H11 1015   1.240   5.691   7.193  0.0906 -0.8469 -2.1783
    3MOL    H12 1016   0.989   5.696   7.281 -1.4553  0.4385  0.3462
    3MOL    H13 1017   0.876   5.786   7.110  1.2955 -0.3871  0.1020
    3MOL    H14 1018   0.989   5.912   7.047 -1.3442  1.2402 -0.2832
    3MOL    H15 1019   0.785   6.022   7.007  1.8226 -0.7628 -0.4371
    3MOL    H16 1020   0.846   6.096   7.146  1.6116 -0.1218 -1.4264
    3MOL    H17 1021   0.635   5.897   7.105  2.7921  0.2682 -0.6217
    3MOL    H18 1022   0.691   5.906   7.265  1.5381 -0.8367 -0.6085
    3MOL    H19 1023   0.637   6.164   7.246 -1.3745 -0.1390  2.4262
    3MOL    H20 1024   0.572   6.107   7.079 -0.2007  0.2720 -0.3074
    3MOL    H21 1025   0.446   6.009   7.336  2.6461 -0.7875  0.3765
    3MOL    H22 1026   0.392   5.988   7.186 -1.7340 -2.3543  2.4931
    3MOL    H23 1027   0.256   6.182   7.293  0.5177 -2.2920  3.0364
    3MOL    H24 1028   0.417   6.268   7.327  0.1527  0.4676 -0.7243
    3MOL    H25 1029   0.357   6.262   7.174  1.2532  2.3782  1.8387
    3MOL    H26 1030   1.123   5.712   7.071  0.0410 -3.5240  2.6362
    3MOL    C27 1031   1.119   5.809   7.408  0.3893 -0.0575 -0.7102
    3MOL    C28 1032   1.018   5.795   7.512 -0.0115 -0.2167 -0.0804
    3MOL    O29 1033   0.990   5.662   7.525 -0.1992  0.6000 -0.1567
    3MOL    C30 1034   0.855   5.643   7.565  0.5202 -0.1574  0.1423
    3MOL    C31 1035   0.758   5.607   7.446  0.3672 -0.2057  0.0977
    3MOL    C32 1036   0.609   5.585   7.488 -0.4654 -0.4499  0.2447
    3MOL    C33 1037   0.582   5.436   7.516  0.2425 -0.0566  0.0181
    3MOL    C34 1038   0.439   5.390   7.539 -0.7148 -0.2364  0.0915
    3MOL    C35 1039   0.340   5.498   7.597  0.7794 -0.5196 -0.5289
    3MOL    H36 1040   1.208   5.749   7.426  0.7073  0.1330 -1.6464
    3MOL    H37 1041   1.156   5.911   7.402 -1.2924  0.4929 -2.3133
    3MOL    H38 1042   0.937   5.856   7.472  0.0959  1.0346  1.5658
    3MOL    H39 1043   0.819   5.723   7.631  0.5862  0.2711 -0.3359
    3MOL    H40 1044   0.864   5.560   7.635  0.4460  0.1748  0.5517
    3MOL    H41 1045   0.797   5.515   7.401 -1.0897 -0.7308 -0.1156
    3MOL    H42 1046   0.756   5.691   7.377 -1.2382  0.1913  0.6295
    3MOL    H43 1047   0.566   5.645   7.568 -1.1115 -0.0316 -0.4115
    3MOL    H44 1048   0.546   5.623   7.407  1.6929 -1.1821 -1.8460
    3MOL    H45 1049   0.628   5.368   7.444 -0.6010  1.7593 -2.3303
    3MOL    H46 1050   0.629   5.413   7.611  1.6666 -1.4452 -1.0000
    3MOL    H47 1051   0.394   5.361   7.444 -0.9913  0.1980  0.0918
    3MOL    H48 1052   0.447   5.293   7.590 -0.8887 -0.9594 -1.2320
    3MOL    H49 1053   0.386   5.538   7.687 -0.1967  0.5375 -0.4940
    3MOL    H50 1054   0.329   5.578   7.524  0.2092  0.2863  0.4248
    3MOL    H51 1055   0.241   5.462   7.625  0.7623  1.2687  1.8016
    3MOL    C52 1056   1.052   5.855   7.651  0.2463 -1.1319 -0.1128
    3MOL    C53 1057   1.029   6.005   7.678 -0.1013 -0.1561  0.1898
    3MOL    O54 1058   0.894   6.039   7.673 -0.1257  0.5564  0.0157
    3MOL    C55 1059   0.837   6.096   7.556  0.6105 -0.1115  0.9650
    3MOL    C56 1060   0.693   6.113   7.576  0.0562 -0.0236  0.4928
    3MOL    C57 1061   0.619   5.986   7.600 -0.3164 -0.3653  0.0225
    3MOL    C58 1062   0.479   6.006   7.648 -0.3219 -0.0415  0.3021
    3MOL    C59 1063   0.398   5.877   7.662  0.7613 -0.1817 -0.1745
    3MOL    C60 1064   0.425   5.804   0.025 -0.8652  0.4663  1.1115
    3MOL    H61 1065   1.157   5.836   7.672  0.7346  0.0751 -1.3596
    3MOL    H62 1066   1.007   5.804   7.736  2.0496 -2.0394  0.3149
    3MOL    H63 1067   1.098   6.052   7.609  1.3372  1.1362  2.4655
    3MOL    H64 1068   0.873   6.060   7.459 -1.6330  0.0211  0.0577
    3MOL    H65 1069   0.883   6.194   7.560 -0.5756  0.3976  2.6437
    3MOL    H66 1070   0.659   6.160   7.483  1.1339 -0.6147 -0.2093
    3MOL    H67 1071   0.681   6.189   7.653  0.7532  0.3593  0.2295
    3MOL    H68 1072   0.618   5.930   7.506 -0.2357 -1.4202  0.6552
    3MOL    H69 1073   0.672   5.938   7.682 -1.0866  0.0583  0.7718
    3MOL    H70 1074   0.470   6.075   7.732  0.7619  1.8229 -1.0938
    3MOL    H71 1075   0.436   6.066   7.568  0.8414  0.7701  0.2773
    3MOL    H72 1076   0.293   5.903   7.647  0.5024 -1.4766 -0.6753
    3MOL    H73 1077   0.418   5.805   7.583 -1.1313 -0.6064 -0.2846
    3MOL    H74 1078   0.357   5.720   0.039  0.0845 -0.8003 -1.6209
    3MOL    H75 1079   0.527   5.766   0.028 -0.2993  1.8255 -0.3057
    3MOL    H76 1080   0.406   5.872   0.109  1.6120  3.0440 -0.3128
    3MOL    C77 1081   1.082   6.027   0.039  0.2447  0.7248  0.8922
    3MOL    C78 1082   1.090   6.167   0.100 -0.0587 -0.5788 -0.4062
    3MOL    O79 1083   1.187   6.230   0.015 -0.3864 -0.2952 -0.2510
    3MOL    C80 1084   1.145   6.351   7.746 -0.3139 -0.3031  0.4091
    3MOL    C81 1085   1.256   6.449   7.699  0.4936  1.0879 -0.6789
    3MOL    C82 1086   1.207   6.557   7.599  0.5196 -0.7414  0.6244
    3MOL    C83 1087   1.313   6.667   7.588 -0.2991  0.7270 -0.2618
    3MOL    C84 1088   1.267   6.803   7.530 -0.5982  0.4743 -0.7458
    3MOL    C85 1089   1.388   6.901   7.513  0.9650 -0.9152 -0.2035
    3MOL    H86 1090   1.181   5.984   0.051  0.7116  1.4949 -0.2127
    3MOL    H87 1091   1.021   5.965   0.105  0.1242  0.4911  0.5609
    3MOL    H88 1092   0.991   6.212   0.102 -0.5208 -1.6617  1.8837
    3MOL    H89 1093   1.072   6.398   0.035 -0.3108 -1.7670  1.4863
    3MOL    H90 1094   1.090   6.330   7.655  2.6997  1.4083 -1.8943
    3MOL    H91 1095   1.315   6.381   7.639 -0.5482 -0.4861  0.0555
    3MOL    H92 1096   1.325   6.490   7.772  0.6312 -1.4677  0.6720
    3MOL    H93 1097   1.179   6.504   7.508 -1.0165 -0.4553  0.9124
    3MOL    H94 1098   1.117   6.602   7.641 -1.6344 -2.4657 -2.0094
    3MOL    H95 1099   1.354   6.690   7.686  0.1250  0.7125 -0.4359
    3MOL    H96 1100   1.403   6.633   7.538  0.6150  0.6378  1.4327
    3MOL    H97 1101   1.223   6.776   7.434 -0.2369  3.6303 -1.8343
    3MOL    H98 1102   1.190   6.845   7.595 -0.3652  1.1083 -0.8784
    3MOL    H99 1103   1.463   6.876   7.438  3.5993  0.1392  1.9957
    3MOL   H100 1104   1.346   6.989   7.464 -0.5194 -1.0176  0.8430
    3MOL   H101 1105   1.435   6.911   7.611 -0.7049  1.7809  0.3946
    3MOL   C102 1106   1.139   6.184   0.243 -0.1028  0.1095 -0.0481
    3MOL   C103 1107   1.109   6.318   0.316 -0.3006 -0.1477  0.5370
    3MOL   O104 1108   1.107   6.275   0.447  0.4100 -0.6990  0.0586
    3MOL   C105 1109   1.013   6.350   0.518  0.5935  0.3852 -0.8191
    3MOL   C106 1110   1.004   6.281   0.662 -0.0078  0.1003 -0.4841
    3MOL   C107 1111   1.140   6.244   0.736  0.6277 -0.3940 -0.1833
    3MOL   C108 1112   1.108   6.144   0.854  0.0712  0.1019  1.0728
    3MOL   C109 1113   1.243   6.130   0.930 -0.1922 -0.0066 -0.3131
    3MOL   C110 1114   1.245   6.017   1.035  0.1230 -0.3595  0.3186
    3MOL   H111 1115   1.099   6.108   0.310 -0.1941  0.7535  0.6408
    3MOL   H112 1116   1.244   6.161   0.259 -0.7080 -0.2726  3.9054
    3MOL   H113 1117   1.010   6.348   0.282 -0.8702 -1.0178  1.4030
    3MOL   H114 1118   0.922   6.369   0.462 -0.9007  0.8310  1.6709
    3MOL   H115 1119   1.056   6.449   0.527  2.8474 -0.4685 -1.7435
    3MOL   H116 1120   0.957   6.183   0.663  0.3973 -0.0883  0.9325
    3MOL   H117 1121   0.948   6.348   0.726  0.6828  1.2671 -1.0752
    3MOL   H118 1122   1.187   6.179   0.662 -1.9383 -2.6804  0.0918
    3MOL   H119 1123   1.205   6.325   0.768 -0.1249 -0.1459  0.7200
    3MOL   H120 1124   1.027   6.189   0.913 -1.1463  0.7873 -1.0563
    3MOL   H121 1125   1.078   6.049   0.810  0.5456 -0.2990  1.6116
    3MOL   H122 1126   1.318   6.108   0.854 -1.4868  0.6852 -1.8059
    3MOL   H123 1127   1.277   6.225   0.972  1.0836 -0.7020  0.2865
    3MOL   H124 1128   1.346   6.018   1.075 -0.1818  0.6641  1.0706
    3MOL   H125 1129   1.172   6.032   1.114 -1.2633  0.5626 -1.0865
    3MOL   H126 1130   1.219   5.927   0.979 -0.3545 -0.1959  0.2740
    3MOL   C127 1131   1.223   6.427   0.299 -0.0142  0.1168  0.0344
    3MOL   C128 1132   1.163   6.575   0.286  0.1245  0.3112 -0.4137
    3MOL   O129 1133   1.070   6.582   0.174 -0.1492 -0.8976 -0.0213
    3MOL   C130 1134   0.943   6.629   0.218 -0.4840  0.1276  0.2250
    3MOL   C131 1135   0.845   6.631   0.104  0.5464  0.3309  0.1775
    3MOL   C132 1136   0.867   6.747   0.008  0.2770  0.4261  0.3769
    3MOL   C133 1137   0.735   6.778   7.714 -0.4509 -0.5238 -0.3237
    3MOL   C134 1138   0.756   6.907   7.622  1.0963  0.0887 -0.6879
    3MOL   C135 1139   0.635   6.916   7.525  0.1139 -0.9269 -0.0650
    3MOL   H136 1140   1.304   6.413   0.370 -0.7396 -1.0918  0.6377
    3MOL   H137 1141   1.260   6.395   0.202 -1.7304 -3.0457  0.3611
    3MOL   H138 1142   1.113   6.590   0.381 -0.5018 -0.7254 -0.5673
    3MOL   H139 1143   0.943   6.719   0.279 -2.1215 -1.1661  2.1849
    3MOL   H140 1144   0.916   6.551   0.288  1.1876  0.3110  1.0907
    3MOL   H141 1145   0.747   6.633   0.152  0.8449  2.1550  0.7506
    3MOL   H142 1146   0.847   6.534   0.056 -0.9133  0.3943 -0.0424
    3MOL   H143 1147   0.888   6.836   0.066  0.5040  0.5214  0.1526
    3MOL   H144 1148   0.947   6.732   7.712 -0.1051 -1.5342  0.3143
    3MOL   H145 1149   0.704   6.694   7.651 -2.0767  0.6328 -1.0976
    3MOL   H146 1150   0.652   6.789   0.006 -1.1223 -2.1448 -0.8442
    3MOL   H147 1151   0.751   6.994   7.687  1.3670 -1.2467  1.1513
    3MOL   H148 1152   0.852   6.907   7.571  1.8201 -1.7724  0.6554
    3MOL   H149 1153   0.641   6.841   7.446  1.1597  1.0038 -1.8484
    3MOL   H150 1154   0.546   6.910   7.588  0.2457 -0.3807  0.1738
    3MOL   H151 1155   0.632   7.008   7.468 -0.7728 -0.4582  0.7157
    3MOL   C152 1156   1.283   6.670   0.250 -1.1377 -0.2793 -0.2419
    3MOL   C153 1157   1.258   6.821   0.280 -0.1473  0.2213  0.7885
    3MOL   O154 1158   1.386   6.879   0.311  0.1700 -0.3904  0.3202
    3MOL   C155 1159   1.428   6.885   0.444 -0.3902 -0.4603  0.3199
    3MOL   C156 1160   1.574   6.936   0.451 -0.2879 -0.3188  0.4576
    3MOL   C157 1161   1.667   6.857   0.363  0.5561  0.0356  0.0075
    3MOL   C158 1162   1.814   6.894   0.383 -0.3090  0.2824  0.9028
    3MOL   C159 1163   1.919   6.838   0.283 -0.5237 -0.6262  0.1398
    3MOL   C160 1164   1.908   6.691   0.238 -0.8303  0.3871  0.2107
    3MOL   H161 1165   1.366   6.631   0.308 -1.9407 -2.8840 -0.8087
    3MOL   H162 1166   1.323   6.655   0.150 -0.2183 -0.9076  0.2172
    3MOL   H163 1167   1.181   6.826   0.358 -0.2570 -1.7171  0.8173
    3MOL   H164 1168   1.417   6.790   0.495  0.8282 -0.9926 -0.3952
    3MOL   H165 1169   1.362   6.958   0.492  0.6245 -1.1330  2.7921
    3MOL   H166 1170   1.605   6.937   0.555  1.0065 -0.0480  0.0790
    3MOL   H167 1171   1.571   7.041   0.421 -0.1273 -0.6304 -0.7037
    3MOL   H168 1172   1.650   6.750   0.368 -3.4117  0.4809 -1.8339
    3MOL   H169 1173   1.648   6.873   0.257  3.1859  1.6380 -0.2720
    3MOL   H170 1174   1.810   7.003   0.382 -2.2391  0.2404 -2.0184
    3MOL   H171 1175   1.850   6.859   0.480  0.1852 -0.2611  0.5258
    3MOL   H172 1176   1.917   6.903   0.195 -1.1270  0.7112  1.1391
    3MOL   H173 1177   2.020   6.841   0.325 -0.4788 -1.7110  0.1119
    3MOL   H174 1178   1.919   6.613   0.313 -0.0619  1.2010  0.9546
    3MOL   H175 1179   1.818   6.656   0.187 -1.0143  3.7936 -1.9588
    3MOL   H176 1180   1.986   6.682   0.162 -1.8604 -0.5936 -0.7689
    3MOL   C177 1181   1.218   6.894   0.149 -0.3211  0.5247  0.0964
    3MOL   C178 1182   1.176   7.040   0.164  0.3377 -0.1054  0.3877
    3MOL   O179 1183   1.149   7.091   0.035  0.0217  0.3639  0.5512
    3MOL   C180 1184   1.245   7.177   7.747  0.5903 -0.3331 -0.0142
    3MOL   C181 1185   1.228   7.310   0.029 -0.3977  0.4597 -0.4822
    3MOL   C182 1186   1.087   7.368   0.007 -0.4858  0.0558  0.3895
    3MOL   C183 1187   1.069   7.504   0.069 -0.1071  0.7162  0.0171
    3MOL   C184 1188   0.938   7.566   0.024  0.3378  0.3570 -0.0097
    3MOL   C185 1189   0.932   7.703   0.085  0.1818  0.3423  0.2801
    3MOL   H186 1190   1.300   6.889   0.078 -1.5907 -0.3648 -1.3209
    3MOL   H187 1191   1.134   6.844   0.101 -0.2311 -0.8023  1.2898
    3MOL   H188 1192   1.261   7.087   0.214  0.5367 -0.2697  0.2064
    3MOL   H189 1193   1.212   7.190   7.644  0.9937 -1.2908 -0.2612
    3MOL   H190 1194   1.349   7.146   7.750  0.9757  0.7235 -1.6590
    3MOL   H191 1195   1.299   7.388   0.000  0.8886  0.4017  2.2907
    3MOL   H192 1196   1.244   7.295   0.136 -0.7573  0.0934 -0.4780
    3MOL   H193 1197   1.088   7.387   7.677  0.0881 -0.1917  0.3506
    3MOL   H194 1198   1.007   7.294   0.017 -0.7186 -0.0102 -1.7278
    3MOL   H195 1199   1.060   7.501   0.178  0.1757 -0.4414  0.0171
    3MOL   H196 1200   1.159   7.559   0.042 -0.6733  1.3660 -0.5486
    3MOL   H197 1201   0.929   7.573   7.693  0.7374 -0.7210 -0.1172
    3MOL   H198 1202   0.843   7.515   0.045 -0.5476  1.2908 -1.6406
    3MOL   H199 1203   0.922   7.700   0.194  1.3278  2.5673  0.4813
    3MOL   H200 1204   1.015   7.769   0.057  1.4285 -1.0518  0.5925
    3MOL   H201 1205   0.842   7.756   0.057 -0.3397 -0.8861 -0.3865
    3MOL   C202 1206   1.051   7.052   0.254 -0.5117 -0.2383  0.1743
    3MOL   C203 1207   1.029   7.189   0.330  0.4826 -0.3262 -0.4033
    3MOL   O204 1208   1.108   7.192   0.448 -0.3768 -0.2687 -0.0383
    3MOL   C205 1209   1.236   7.259   0.437  0.0227 -0.1502  0.0604
    3MOL   C206 1210   1.264   7.297   0.582 -0.1168 -0.0794  0.2942
    3MOL   C207 1211   1.385   7.390   0.607  0.1626  0.7179 -0.3453
    3MOL   C208 1212   1.413   7.410   0.750  0.4606  1.2040 -0.5173
    3MOL   C209 1213   1.545   7.491   0.777  0.1121  0.9657 -0.2522
    3MOL   C210 1214   1.579   7.513   0.919 -0.4137 -0.2312 -0.4763
    3MOL   H211 1215   0.961   7.039   0.194  0.1651 -2.8640 -0.3616
    3MOL   H212 1216   1.040   6.977   0.333 -1.6452  1.6752  1.8646
    3MOL   H213 1217   1.057   7.267   0.259 -1.9797  0.2583 -0.7822
    3MOL   H214 1218   1.225   7.348   0.377  0.2841 -0.4889 -0.4886
    3MOL   H215 1219   1.310   7.188   0.400  0.9283  1.9609 -2.2374
    3MOL   H216 1220   1.269   7.200   0.633 -1.0365 -0.4052 -0.2171
    3MOL   H217 1221   1.174   7.342   0.624 -0.0124 -1.1388  1.6863
    3MOL   H218 1222   1.474   7.338   0.571  0.7438  2.3183 -1.3135
    3MOL   H219 1223   1.373   7.481   0.547  0.8932  1.0491 -0.0045
    3MOL   H220 1224   1.324   7.460   0.789 -0.3493 -1.0525  0.5706
    3MOL   H221 1225   1.416   7.313   0.800  0.1471  1.6414  0.3725
    3MOL   H222 1226   1.628   7.441   0.728 -1.2041 -1.6686  0.1007
    3MOL   H223 1227   1.527   7.588   0.731 -1.2609  1.4073  1.1498
    3MOL   H224 1228   1.671   7.566   0.944  0.2713 -1.2692 -0.7748
    3MOL   H225 1229   1.508   7.572   0.976 -0.0926  0.7246 -1.0427
    3MOL   H226 1230   1.573   7.423   0.979  1.8646  0.3554  0.7240
    3MOL   C227 1231   0.880   7.217   0.376  0.2346  0.7559  0.0873
    3MOL   C228 1232   0.853   7.326   0.481 -0.1190 -0.3091 -0.0224
    3MOL   O229 1233   0.727   7.384   0.472  0.1315 -0.2246 -0.1080
    3MOL   C230 1234   0.703   7.465   0.363  0.2446  0.2002  0.1297
    3MOL   C231 1235   0.561   7.526   0.371 -0.6964  1.0500 -0.4815
    3MOL   C232 1236   0.502   7.605   0.246 -0.5457 -0.1456  0.7962
    3MOL   C233 1237   0.363   7.667   0.268  0.1025 -0.7937 -0.5036
    3MOL   C234 1238   0.361   0.004   0.375 -0.4295 -0.2704  0.9379
    3MOL   C235 1239   0.217   0.059   0.386  0.2552 -0.2578  0.1647
    3MOL   H236 1240   0.818   7.224   0.287  0.8614 -0.1586 -0.4348
    3MOL   H237 1241   0.847   7.122   0.417  0.4636  1.3145  1.5817
    3MOL   H238 1242   0.932   7.401   0.472 -1.1160  0.7977  0.1885
    3MOL   H239 1243   0.705   7.422   0.263  0.2779  2.0409 -0.6838
    3MOL   H240 1244   0.770   7.550   0.373  1.2034 -0.7305  1.9146
    3MOL   H241 1245   0.575   7.592   0.457  1.2019 -0.5750  0.4958
    3MOL   H242 1246   0.481   7.458   0.398 -0.4766 -0.2236 -2.9237
    3MOL   H243 1247   0.576   7.671   0.200  0.9404 -1.4144  1.2926
    3MOL   H244 1248   0.493   7.525   0.172 -0.6028 -1.3218  2.0652
    3MOL   H245 1249   0.343   7.721   0.175 -2.4373 -1.5902 -0.4632
    3MOL   H246 1250   0.284   7.592   0.276 -0.1711 -0.3562  0.9960
    3MOL   H247 1251   0.390   7.753   0.476  1.5132  1.5456  0.9170
    3MOL   H248 1252   0.432   0.076   0.335 -0.7578 -0.6430 -0.3311
    3MOL   H249 1253   0.231   0.133   0.464 -0.4326 -0.7352  0.7503
    3MOL   H250 1254   0.188   0.106   0.292  0.8479 -2.1747 -1.0188
    3MOL   H251 1255   0.134   7.771   0.411  0.7250 -1.6685 -1.7895
    3MOL   C252 1256   0.867   7.277   0.624 -0.2457 -0.5667 -0.1949
    3MOL   C253 1257   0.866   7.389   0.735 -0.5943 -0.2078  0.5453
    3MOL   O254 1258   0.986   7.467   0.719  0.1571  0.4812 -0.1185
    3MOL   C255 1259   0.966   7.605   0.696 -0.1547 -1.0699 -0.5322
    3MOL   C256 1260   1.096   7.680   0.734 -1.0070 -0.7503  0.6357
    3MOL   C257 1261   1.098   0.043   0.679 -0.1889 -0.0978  0.0538
    3MOL   C258 1262   1.237   0.110   0.705  0.5725  0.0224  0.7493
    3MOL   C259 1263   1.225   0.259   0.698  0.2489 -0.3882 -0.1325
    3MOL   C260 1264   1.335   0.326   0.784  0.4296 -0.2975 -0.2417
    3MOL   H261 1265   0.780   7.213   0.640 -0.8803  0.2520 -0.3070
    3MOL   H262 1266   0.958   7.221   0.644 -0.5342 -0.3660  1.7535
    3MOL   H263 1267   0.779   7.455   0.733  1.0588  2.0061  0.6042
    3MOL   H264 1268   0.882   7.639   0.756  0.2126 -1.6697  0.3320
    3MOL   H265 1269   0.943   7.632   0.593 -1.1451  2.4733  0.5697
    3MOL   H266 1270   1.168   7.618   0.681 -2.1924 -0.6362 -1.1559
    3MOL   H267 1271   1.115   7.678   0.841 -1.1937  2.4982  0.7973
    3MOL   H268 1272   1.082   0.039   0.571 -0.0318  2.4590 -0.0991
    3MOL   H269 1273   1.018   0.107   0.716  1.8857  3.3647 -1.1568
    3MOL   H270 1274   1.263   0.080   0.806 -3.4374 -3.1824  0.9375
    3MOL   H271 1275   1.319   0.078   0.641 -0.6775 -0.6236 -0.5482
    3MOL   H272 1276   1.220   0.298   0.597 -1.5945 -0.5290 -0.1277
    3MOL   H273 1277   1.129   0.296   0.736 -0.0319  1.1817 -2.2627
    3MOL   H274 1278   1.324   0.434   0.775  0.8695 -0.3498 -1.6388
    3MOL   H275 1279   1.299   0.329   0.886 -1.7728  2.4967 -1.0158
    3MOL   H276 1280   1.441   0.302   0.775  0.0903 -1.0234 -2.6559
    3MOL   C277 1281   0.888   7.339   0.884 -0.4723  0.8974 -0.6002
    3MOL   C278 1282   0.772   7.255   0.932 -1.1662  0.3596  0.5665
    3MOL   O279 1283   0.817   7.168   1.038  0.3826  0.2961  0.7919
    3MOL   C280 1284   0.801   7.036   0.992  0.0886  0.2128  0.1115
    3MOL   C281 1285   0.832   6.945   1.107 -0.7895  0.0584  0.2594
    3MOL   C282 1286   0.719   6.958   1.206 -0.0547 -0.2000 -0.4361
    3MOL   C283 1287   0.734   6.847   1.312  0.4549 -0.2222 -0.0483
    3MOL   C284 1288   0.604   6.851   1.405 -0.0143  0.5172  0.1366
    3MOL   C285 1289   0.629   6.962   1.517  0.0441  0.5924 -0.1620
    3MOL   H286 1290   0.982   7.283   0.885 -0.7528  0.4068 -1.3747
    3MOL   H287 1291   0.901   7.418   0.958  0.8117  0.2617 -0.1268
    3MOL   H288 1292   0.729   7.202   0.847 -1.4413 -0.6604  1.3371
    3MOL   H289 1293   0.868   7.008   0.911 -1.1768  0.3750 -1.0203
    3MOL   H290 1294   0.699   7.019   0.956  0.1988 -3.6534  1.4130
    3MOL   H291 1295   0.919   6.990   1.154  1.1353 -0.6882 -2.5077
    3MOL   H292 1296   0.852   6.845   1.070  1.0868  0.5356 -0.0356
    3MOL   H293 1297   0.711   7.059   1.248 -2.6317 -0.9949  1.0856
    3MOL   H294 1298   0.625   6.938   1.154 -0.5782 -0.8960  0.7456
    3MOL   H295 1299   0.736   6.751   1.260  0.9470 -0.2501  0.0207
    3MOL   H296 1300   0.828   6.857   1.366  0.3516 -0.7577  0.2364
    3MOL   H297 1301   0.511   6.868   1.349  1.3806  0.9062 -2.1322
    3MOL   H298 1302   0.600   6.753   1.451  0.2306 -0.4733 -1.9283
    3MOL   H299 1303   0.562   6.960   1.603 -0.2793 -1.6780 -0.4385
    3MOL   H300 1304   0.731   6.942   1.550 -1.0424 -1.0129  2.3956
    3MOL   H301 1305   0.621   7.062   1.475  0.9930  0.3822 -0.8543
    3MOL   C302 1306   0.662   7.349   0.995  0.6524  0.7075 -1.0957
    3MOL   C303 1307   0.520   7.287   0.965 -0.1996 -0.3543 -0.5849
    3MOL   O304 1308   0.499   7.300   0.825  0.6025  0.1317 -0.4331
    3MOL   C305 1309   0.466   7.180   0.759  0.2435 -0.3345  0.0232
    3MOL   C306 1310   0.377   7.216   0.640  0.4660  0.3431  0.7483
    3MOL   C307 1311   0.257   7.299   0.681  0.4748  0.3118  0.0114
    3MOL   C308 1312   0.148   7.295   0.564 -0.1555  0.2551 -0.1127
    3MOL   C309 1313   0.025   7.389   0.584  0.0325 -0.3737  0.3060
    3MOL   C310 1314   7.711   7.339   0.695  0.6406  0.2286  0.0245
    3MOL   H311 1315   0.682   7.362   1.102 -2.9906  0.2165 -0.2970
    3MOL   H312 1316   0.659   7.448   0.950 -0.7888 -0.3378 -3.4269
    3MOL   H313 1317   0.510   7.186   1.006 -1.0052 -0.2448 -0.4956
    3MOL   H314 1318   0.415   7.103   0.818 -0.8326  0.6784  0.4307
    3MOL   H315 1319   0.556   7.132   0.720 -0.6207 -0.0235 -2.3815
    3MOL   H316 1320   0.352   7.124   0.588 -0.3980  1.2261 -0.4483
    3MOL   H317 1321   0.432   7.271   0.563  1.1768 -1.1702  0.1580
    3MOL   H318 1322   0.212   7.249   0.766 -0.4249  1.1963  0.0528
    3MOL   H319 1323   0.290   7.401   0.701  1.4425  0.4156 -1.9661
    3MOL   H320 1324   0.204   7.322   0.474  2.6924 -0.8292  1.2544
    3MOL   H321 1325   0.119   7.192   0.543 -0.7602  0.1689  1.1113
    3MOL   H322 1326   0.056   7.490   0.608 -0.7696 -0.2247  0.7495
    3MOL   H323 1327   7.749   7.395   0.489 -0.8952  1.5475  0.9181
    3MOL   H324 1328   7.768   7.337   0.788 -0.8604  1.8465  1.0195
    3MOL   H325 1329   7.627   7.409   0.689  1.9382  1.6639 -2.2169
    3MOL   H326 1330   7.671   7.239   0.681 -0.1894  0.4553  0.6981
    3MOL   C327 1331   0.415   7.380   1.031  0.5188  0.2958 -0.1892
    3MOL   C328 1332   0.414   7.385   1.187 -0.1249  0.2779 -0.1505
    3MOL   O329 1333   0.324   7.487   1.218  0.0150  0.2553 -0.2957
    3MOL   C330 1334   0.386   7.610   1.258 -0.3640  0.4896 -0.3013
    3MOL   C331 1335   0.285   7.726   1.243 -0.4434  0.6563 -0.1178
    3MOL   C332 1336   0.191   7.738   1.366  0.1599  0.1683  0.0300
    3MOL   C333 1337   0.116   0.092   1.359 -0.4347 -0.0310  0.1069
    3MOL   C334 1338   0.006   0.085   1.260  0.1624 -0.1751  0.5390
    3MOL   C335 1339   7.702   0.215   1.270  0.3359 -0.0497  0.1358
    3MOL   H336 1340   0.317   7.359   0.989  1.2903 -1.2584 -1.2379
    3MOL   H337 1341   0.430   7.482   0.996  0.0942 -0.3172 -2.2224
    3MOL   H338 1342   0.513   7.403   1.230 -0.0438  0.6387 -0.4782
    3MOL   H339 1343   0.464   7.627   1.183  2.2027 -1.5929  1.8045
    3MOL   H340 1344   0.439   7.605   1.353  1.6430  2.6755 -1.2608
    3MOL   H341 1345   0.232   7.727   1.148  0.0278 -2.8797 -0.4880
    3MOL   H342 1346   0.348   0.037   1.247  1.3039 -0.5094 -1.2260
    3MOL   H343 1347   0.116   7.661   1.381 -1.4790  1.6931 -0.1717
    3MOL   H344 1348   0.257   7.737   1.454  0.3096 -3.9020 -0.0495
    3MOL   H345 1349   0.066   0.113   1.453 -3.2757 -0.3512 -1.2955
    3MOL   H346 1350   0.181   0.179   1.348  0.6388 -0.5699  1.9323
    3MOL   H347 1351   0.053   0.075   1.162  3.2830  1.3236  1.7908
    3MOL   H348 1352   7.720   7.775   1.277  1.9872 -1.3780  1.2857
    3MOL   H349 1353   7.619   0.208   1.200  0.1665  0.1315  0.3177
    3MOL   H350 1354   7.663   0.232   1.371  0.6261 -1.0297  0.4268
    3MOL   H351 1355   7.763   0.300   1.240  0.5573 -0.1928  0.1729
    3MOL   C352 1356   0.355   7.265   1.263 -0.3355 -0.1915  0.4833
    3MOL   C353 1357   0.375   7.275   1.418  0.2593  0.0145 -0.9623
    3MOL   O354 1358   0.514   7.285   1.441  0.1549 -0.1053 -0.1722
    3MOL   C355 1359   0.556   7.365   1.553 -0.2557 -0.0823 -0.9521
    3MOL   C356 1360   0.693   7.428   1.538  0.2857 -0.4025  0.4484
    3MOL   C357 1361   0.808   7.327   1.537 -0.0078  0.1766 -0.4113
    3MOL   C358 1362   0.949   7.376   1.514  0.2584 -0.2306 -0.0788
    3MOL   C359 1363   0.999   7.436   1.374 -0.6914 -0.4313 -0.7681
    3MOL   C360 1364   1.009   7.319   1.280  0.4218 -0.4489  0.6180
    3MOL   H361 1365   0.252   7.259   1.226  0.3988 -2.8065 -1.2489
    3MOL   H362 1366   0.397   7.169   1.233 -1.1798 -0.3578 -0.1859
    3MOL   H363 1367   0.314   7.362   1.443  2.0365  0.9544  0.2154
    3MOL   H364 1368   0.549   7.311   1.648 -0.9356 -1.5494 -1.8311
    3MOL   H365 1369   0.491   7.450   1.573 -0.9954 -1.2528  1.8876
    3MOL   H366 1370   0.722   7.501   1.613 -0.3976 -0.3223  0.6350
    3MOL   H367 1371   0.696   7.483   1.444  0.7008  1.8375  1.7322
    3MOL   H368 1372   0.810   7.282   1.637 -0.0513 -2.9156 -1.7423
    3MOL   H369 1373   0.792   7.238   1.476 -0.5741 -0.8585  1.2072
    3MOL   H370 1374   0.965   7.448   1.595 -1.9661  1.2119 -0.8923
    3MOL   H371 1375   1.010   7.291   1.545 -0.3254  0.3000  2.6841
    3MOL   H372 1376   0.925   7.507   1.336  0.4936  0.0396 -2.2140
    3MOL   H373 1377   1.097   7.484   1.378 -0.0990 -1.6290 -0.6878
    3MOL   H374 1378   1.023   7.340   1.174  1.4405 -0.3593  0.7577
    3MOL   H375 1379   1.090   7.251   1.308  0.5503 -1.5427 -2.2239
    3MOL   H376 1380   0.926   7.249   1.285  0.5104 -0.5823  0.2591
    3MOL   C377 1381   0.308   7.162   1.501  0.6845  0.7040 -0.1786
    3MOL   C378 1382   0.152   7.157   1.507 -0.0030 -0.1776  0.3222
    3MOL   O379 1383   0.123   7.272   1.584  0.0841 -0.6519 -0.7895
    3MOL   C380 1384   7.766   7.314   1.567 -1.5512  0.3797 -0.2082
    3MOL   C381 1385   7.757   7.463   1.604 -0.1120 -0.6193 -0.1109
    3MOL   C382 1386   7.623   7.538   1.597  0.4781 -1.1149  0.3318
    3MOL   C383 1387   7.594   7.660   1.678  0.3223  0.5534  0.2819
    3MOL   C384 1388   7.470   7.728   1.627 -0.7586  0.1816 -0.2916
    3MOL   C385 1389   7.435   0.080   1.701 -0.4024 -0.0585  0.3843
    3MOL   H386 1390   0.346   7.070   1.459 -2.4089 -0.5164 -0.4503
    3MOL   H387 1391   0.332   7.174   1.607 -0.9976  0.2813  0.2687
    3MOL   H388 1392   0.115   7.177   1.406 -0.6532  0.5308  0.7023
    3MOL   H389 1393   7.702   7.257   1.636 -0.4903 -2.2027 -1.2798
    3MOL   H390 1394   7.723   7.293   1.469 -3.0114 -1.8456  0.8369
    3MOL   H391 1395   0.063   7.514   1.554 -1.1607  0.1503 -1.0956
    3MOL   H392 1396   0.013   7.476   1.707 -0.7814 -1.5558  0.2311
    3MOL   H393 1397   7.594   7.561   1.494 -0.2188  0.6064  0.8950
    3MOL   H394 1398   7.553   7.461   1.628 -0.3141 -0.5298  0.0364
    3MOL   H395 1399   7.586   7.635   1.784  0.8338 -1.0601 -0.0403
    3MOL   H396 1400   7.677   7.729   1.661  1.2992 -0.8216 -0.6852
    3MOL   H397 1401   7.478   7.762   1.524  2.6374  0.4724  0.0130
    3MOL   H398 1402   7.381   7.668   1.645 -1.7137  1.2811 -1.2847
    3MOL   H399 1403   7.514   0.153   1.686 -1.0937  0.6821  0.3223
    3MOL   H400 1404   7.345   0.133   1.668 -1.2842 -0.7845  1.5739
    3MOL   H401 1405   7.421   0.076   1.809 -1.0964  0.2482  0.3115
    3MOL   C402 1406   0.093   7.030   1.559 -0.3186  0.1732 -0.5470
    3MOL   C403 1407   0.092   6.903   1.469  0.5301  0.4076  0.1685
    3MOL   O404 1408   7.762   6.909   1.380 -0.1951  0.5103 -0.4418
    3MOL   C405 1409   0.017   6.880   1.246 -0.9210  0.3441  0.1526
    3MOL   C406 1410   7.672   6.908   1.156  0.3764  0.0758  0.4312
    3MOL   C407 1411   7.691   6.885   1.008 -0.2796  0.8925  0.2726
    3MOL   C408 1412   7.602   6.982   0.930  0.3706 -0.6907  0.0248
    3MOL   C409 1413   7.589   6.972   0.775  0.2674 -0.3996  0.8871
    3MOL   C410 1414   7.546   6.829   0.726 -0.6740  0.2372 -0.5602
    3MOL   H411 1415   7.763   7.033   1.581 -0.4124 -2.2950 -0.4806
    3MOL   H412 1416   0.143   7.004   1.652 -1.7785  1.9417  0.7820
    3MOL   H413 1417   0.186   6.898   1.414  0.4991 -1.4810  0.2388
    3MOL   H414 1418   0.040   6.774   1.261 -0.1134  0.7050  1.4796
    3MOL   H415 1419   0.101   6.941   1.213  0.1044 -1.0346  0.1480
    3MOL   H416 1420   7.629   7.004   1.182 -1.5128 -0.0309 -2.1475
    3MOL   H417 1421   7.603   6.828   1.180  0.7778 -0.4545 -0.1423
    3MOL   H418 1422   0.019   6.898   0.983 -0.8304  0.8365 -2.1787
    3MOL   H419 1423   7.660   6.783   0.985  0.5565  0.9905 -1.3466
    3MOL   H420 1424   7.494   6.973   0.946  0.2001 -0.1155 -0.7316
    3MOL   H421 1425   7.622   7.085   0.958  2.8055 -1.8867  2.8767
    3MOL   H422 1426   7.522   7.047   0.733 -0.0477 -1.1921 -0.0441
    3MOL   H423 1427   7.688   7.005   0.741  0.4250 -1.8136 -0.0645
    3MOL   H424 1428   7.441   6.826   0.756 -0.7553 -0.4902 -0.9267
    3MOL   H425 1429   7.558   6.816   0.619 -0.2038  0.4443 -0.5358
    3MOL   H426 1430   7.600   6.751   0.780  0.0129  1.1383  0.0790
    3MOL   C427 1431   0.082   6.754   1.534  0.3126 -1.0392 -0.0164
    3MOL   C428 1432   0.215   6.683   1.576  0.0524  0.1316 -0.1981
    3MOL   O429 1433   0.291   6.672   1.453 -0.2642 -0.1682  0.2031
    3MOL   C430 1434   0.297   6.538   1.397  0.1018 -0.2415  0.9203
    3MOL   C431 1435   0.382   6.543   1.273 -0.0073  0.1267 -0.6774
    3MOL   C432 1436   0.344   6.639   1.165  0.0745  0.0428 -0.9978
    3MOL   C433 1437   0.426   6.622   1.038  0.3969 -0.8174  0.4247
    3MOL   C434 1438   0.399   6.727   0.923 -0.5238  0.3700  0.3225
    3MOL   C435 1439   0.257   6.713   0.875  0.3910  0.4604 -0.0061
    3MOL   H436 1440   0.013   6.764   1.618 -0.8684  1.4115 -1.2189
    3MOL   H437 1441   0.030   6.677   1.476 -0.7015  0.2283 -0.8220
    3MOL   H438 1442   0.178   6.585   1.609 -1.3540  1.0972  1.1778
    3MOL   H439 1443   0.201   6.500   1.364 -0.3316 -1.4925  3.5094
    3MOL   H440 1444   0.340   6.468   1.469 -0.3561 -0.0322  1.3983
    3MOL   H441 1445   0.389   6.440   1.239  1.8110 -0.4375  1.3402
    3MOL   H442 1446   0.483   6.567   1.305 -0.7734  1.2203  0.9939
    3MOL   H443 1447   0.240   6.613   1.150 -0.2132  1.4693 -1.5515
    3MOL   H444 1448   0.357   6.738   1.211  1.2306  0.4103 -2.0759
    3MOL   H445 1449   0.529   6.637   1.070 -0.0867  0.2725  1.4716
    3MOL   H446 1450   0.437   6.521   0.997  0.7144  0.0139 -1.6179
    3MOL   H447 1451   0.417   6.822   0.975 -0.9720  2.0276 -2.4766
    3MOL   H448 1452   0.464   6.724   0.836 -2.9184  1.1514 -1.5417
    3MOL   H449 1453   0.192   6.713   0.962 -0.2340 -4.5472 -0.3420
    3MOL   H450 1454   0.235   6.799   0.812  1.5459 -0.2473 -1.4070
    3MOL   H451 1455   0.244   6.619   0.822  1.7000  0.1253  0.2381
    3MOL   C452 1456   0.307   6.758   1.681  0.4307  0.7582  0.0250
    3MOL   C453 1457   0.263   6.760   1.829  0.0379  0.8475 -0.1183
    3MOL   O454 1458   0.132   6.810   1.829 -0.6891 -0.4470 -0.3334
    3MOL   C455 1459   0.055   6.790   1.948 -0.5903  0.1520  0.4334
    3MOL   C456 1460   7.686   6.822   1.928 -0.2884 -0.1627 -0.2714
    3MOL   C457 1461   7.659   6.968   1.888 -0.3285  0.1560  0.1575
    3MOL   C458 1462   7.713   7.074   1.993 -0.4485 -0.1121 -0.0812
    3MOL   C459 1463   7.716   7.217   1.932 -0.1281 -0.2738 -0.6777
    3MOL   C460 1464   7.580   7.281   1.894 -0.5600 -0.3151 -0.5224
    3MOL   H461 1465   0.404   6.709   1.677  0.5664  0.7992  2.1503
    3MOL   H462 1466   0.325   6.857   1.639  0.8924  0.0854 -1.4146
    3MOL   H463 1467   0.261   6.656   1.859  0.6801  0.8601 -0.0277
    3MOL   H464 1468   0.091   6.835   2.040 -0.9314  1.4082 -0.0409
    3MOL   H465 1469   0.057   6.683   1.971  0.0651 -0.4391 -2.2099
    3MOL   H466 1470   7.630   6.796   2.018  1.4597  0.1246  0.9064
    3MOL   H467 1471   7.647   6.756   1.850 -3.8480 -0.6333  1.7740
    3MOL   H468 1472   7.703   6.991   1.790  3.3936 -3.9523  0.7091
    3MOL   H469 1473   7.552   6.986   1.879 -0.2651 -0.0326 -1.1701
    3MOL   H470 1474   7.661   7.076   2.089  0.0397  0.6836  0.1710
    3MOL   H471 1475   0.038   7.043   2.011 -0.7716 -0.9523  0.3047
    3MOL   H472 1476   7.763   7.281   2.007 -0.6036 -1.8465  0.9964
    3MOL   H473 1477   0.010   7.211   1.850  0.4311 -2.5496 -0.0577
    3MOL   H474 1478   7.534   7.314   1.986 -1.6156 -0.3345 -1.0411
    3MOL   H475 1479   7.597   7.371   1.834  0.8945 -0.0653  0.2338
    3MOL   H476 1480   7.518   7.198   1.860  0.3100 -1.9393  1.7472
    3MOL   C477 1481   0.358   6.842   1.923 -0.3604  0.1331 -0.0982
    3MOL   C478 1482   0.391   6.991   1.896  0.6379 -0.0476 -0.0255
    3MOL   O479 1483   0.496   7.023   1.993 -0.2677  0.0612  0.1751
    3MOL   C480 1484   0.540   7.154   1.979 -0.3303  0.2082 -0.7796
    3MOL   C481 1485   0.689   7.143   1.948 -0.1005  0.0795  0.1243
    3MOL   C482 1486   0.748   7.285   1.927  0.1633  0.3475 -0.3545
    3MOL   C483 1487   0.762   7.366   2.057 -0.5061  0.0343 -0.0515
    3MOL   C484 1488   0.853   7.488   2.052  0.1556  0.0854  0.2898
    3MOL   C485 1489   0.775   7.593   1.968 -0.9361  0.9372 -0.3208
    3MOL   H486 1490   0.326   6.824   2.025 -0.0903 -0.5219 -0.1296
    3MOL   H487 1491   0.452   6.789   1.911 -0.5872 -0.0378 -1.2824
    3MOL   H488 1492   0.433   7.010   1.797  0.5839  0.5470  0.0628
    3MOL   H489 1493   0.524   7.194   2.080 -2.0927 -1.5569 -0.3273
    3MOL   H490 1494   0.474   7.208   1.912 -1.9741  0.5435  1.0581
    3MOL   H491 1495   0.690   7.079   1.860 -1.3820 -0.1991  0.2989
    3MOL   H492 1496   0.757   7.091   2.016 -0.0380  1.1734  0.9052
    3MOL   H493 1497   0.850   7.286   1.889  0.7014 -0.4821  1.0124
    3MOL   H494 1498   0.692   7.344   1.855  2.5674 -0.7304 -3.2280
    3MOL   H495 1499   0.667   7.391   2.103 -0.5661 -0.0882 -0.1068
    3MOL   H496 1500   0.807   7.294   2.125 -0.2250 -0.3017 -0.5889
    3MOL   H497 1501   0.863   7.535   2.150  0.7859  1.5157 -0.4412
    3MOL   H498 1502   0.946   7.478   1.995 -1.3392  0.2834 -2.2944
    3MOL   H499 1503   0.673   7.611   2.001 -1.6464 -1.1804 -1.3141
    3MOL   H500 1504   0.827   7.689   1.972 -0.9625  1.0804 -2.5417
    3MOL   H501 1505   0.779   7.573   1.861 -1.0199 -0.7798 -0.0214
    3MOL   H502 1506   0.304   7.053   1.917  0.9324  0.3440  0.0407
    4MOL     C1 1507   3.927   7.499   7.584  1.2568  0.2888  0.4704
    4MOL     C2 1508   3.815   7.484   7.483 -0.4850 -0.0927  0.3286
    4MOL     O3 1509   3.816   7.351   7.428 -0.3718  0.0200  0.0384
    4MOL     C4 1510   3.804   7.243   7.522  0.0203  0.6444 -0.2497
    4MOL     C5 1511   3.735   7.121   7.463 -0.0220  0.1043  0.2181
    4MOL     C6 1512   3.586   7.148   7.417  0.0467 -0.9180 -0.2695
    4MOL     C7 1513   3.510   7.016   7.372 -0.0880 -0.0488  0.2014
    4MOL     C8 1514   3.594   6.934   7.262  0.0417 -0.1350 -0.3125
    4MOL     C9 1515   3.527   6.794   7.220 -0.0993 -0.0643  0.2602
    4MOL    H10 1516   4.018   7.455   7.544 -0.2491 -2.4023 -0.0735
    4MOL    H11 1517   3.944   7.605   7.603  0.0668 -0.0238  3.4866
    4MOL    H12 1518   3.727   7.512   7.540  0.6045 -0.2866  2.1440
    4MOL    H13 1519   3.764   7.276   7.618  0.7443  0.1687  0.2164
    4MOL    H14 1520   3.906   7.211   7.544  0.3945  2.5013  0.7905
    4MOL    H15 1521   3.730   7.047   7.543 -1.9716 -0.0896 -0.0460
    4MOL    H16 1522   3.788   7.090   7.374  0.4925  1.2610  0.1166
    4MOL    H17 1523   3.524   7.211   7.481  1.4938  0.5861 -0.3235
    4MOL    H18 1524   3.590   7.206   7.325 -0.3014 -2.1377 -1.0665
    4MOL    H19 1525   3.508   6.942   7.452 -1.2826 -2.2527 -1.7821
    4MOL    H20 1526   3.407   7.034   7.341  0.3909  1.6748 -0.4388
    4MOL    H21 1527   3.699   6.913   7.282 -0.2246 -0.8770  0.3174
    4MOL    H22 1528   3.589   6.999   7.174 -0.5167 -0.9058 -0.8561
    4MOL    H23 1529   3.590   6.734   7.154  0.1589  0.0126  0.4369
    4MOL    H24 1530   3.524   6.719   7.299 -2.1922 -0.9006 -0.5619
    4MOL    H25 1531   3.430   6.800   7.170  0.8142  0.0582 -1.5504
    4MOL    H26 1532   3.908   7.466   7.686 -0.3046 -1.6260 -0.4172
    4MOL    C27 1533   3.840   7.577   7.368  0.4782  0.4400 -0.6122
    4MOL    C28 1534   3.710   7.619   7.290  0.4456 -0.2785  0.3869
    4MOL    O29 1535   3.757   7.710   7.191 -0.1393  0.4118 -0.0850
    4MOL    C30 1536   3.694   0.057   7.172 -0.2537  0.5993  0.8556
    4MOL    C31 1537   3.767   0.121   7.054  0.0528  0.4294 -0.2518
    4MOL    C32 1538   3.736   0.074   6.912  0.3632 -0.5490  0.5066
    4MOL    C33 1539   3.595   0.071   6.878 -0.3924 -0.9151  0.4993
    4MOL    C34 1540   3.566   0.024   6.734  0.0823 -1.2545 -0.0292
    4MOL    C35 1541   3.422   7.757   6.718 -0.6515  0.3009 -0.3001
    4MOL    H36 1542   3.876   7.672   7.408  0.0575 -0.7820  2.8432
    4MOL    H37 1543   3.920   7.538   7.305  0.0279 -2.8798  0.7358
    4MOL    H38 1544   3.638   7.662   7.359  0.7903  3.1940 -1.3027
    4MOL    H39 1545   3.708   0.116   7.263  2.2705  0.1120  0.8014
    4MOL    H40 1546   3.586   0.047   7.158 -0.2824  2.4475 -0.4724
    4MOL    H41 1547   3.875   0.122   7.064  0.0621 -1.4116  0.0513
    4MOL    H42 1548   3.731   0.224   7.058  0.4310  0.5928 -0.9442
    4MOL    H43 1549   3.792   0.137   6.843 -1.1641  0.6582  0.3655
    4MOL    H44 1550   3.788   7.756   6.901  1.0541 -0.1506  0.3117
    4MOL    H45 1551   3.551   7.771   6.942  1.8111 -0.9476  2.0585
    4MOL    H46 1552   3.542   0.166   6.883 -1.4551 -1.4040 -0.9882
    4MOL    H47 1553   3.606   0.103   6.672 -0.7287 -0.4599  0.4454
    4MOL    H48 1554   3.616   7.709   6.704  2.4542  0.6750 -2.1568
    4MOL    H49 1555   3.387   7.763   6.615  3.1168  0.6501 -1.6114
    4MOL    H50 1556   3.417   7.654   6.753  1.6943  0.4210  0.4415
    4MOL    H51 1557   3.345   0.023   6.782 -0.0082 -3.1728  3.0638
    4MOL    C52 1558   3.650   7.500   7.213  0.4853  0.3905  0.4043
    4MOL    C53 1559   3.530   7.524   7.122 -0.6197 -0.1656 -0.2247
    4MOL    O54 1560   3.465   7.403   7.107  0.6910 -0.2914  0.1084
    4MOL    C55 1561   3.520   7.318   7.011 -0.3461  0.4121 -0.5476
    4MOL    C56 1562   3.429   7.197   6.989 -0.1449  0.0171 -1.4434
    4MOL    C57 1563   3.463   7.122   6.861 -0.0394  0.3134 -0.5027
    4MOL    C58 1564   3.410   6.984   6.848  0.0659 -0.3404  0.7423
    4MOL    C59 1565   3.467   6.910   6.726  0.5228  0.0353  0.2189
    4MOL    C60 1566   3.396   6.946   6.592 -0.5214 -0.0675  0.3148
    4MOL    H61 1567   3.626   7.421   7.284  4.1271 -1.3299 -0.1738
    4MOL    H62 1568   3.729   7.452   7.155 -1.1284 -0.1120 -1.3968
    4MOL    H63 1569   3.577   7.569   7.035  1.7416  0.7356  1.4521
    4MOL    H64 1570   3.625   7.288   7.018 -0.2637  0.6910 -0.5915
    4MOL    H65 1571   3.514   7.381   6.923 -1.5541  1.2523  0.1311
    4MOL    H66 1572   3.323   7.221   6.989  0.0517  0.9036 -2.4774
    4MOL    H67 1573   3.448   7.130   7.074  1.8721  0.1915 -1.7241
    4MOL    H68 1574   3.445   7.179   6.770 -0.0517  0.9009 -0.1361
    4MOL    H69 1575   3.571   7.113   6.854  0.2862  1.6915  2.0763
    4MOL    H70 1576   3.433   6.932   6.941  0.5453 -1.0626  0.2242
    4MOL    H71 1577   3.301   6.978   6.847  0.1459 -2.0248 -0.7687
    4MOL    H72 1578   3.576   6.911   6.718  0.6182  1.5946  1.6253
    4MOL    H73 1579   3.459   6.802   6.744 -0.9006  0.0261 -0.3585
    4MOL    H74 1580   3.422   6.869   6.520  1.6717  1.7454 -0.8950
    4MOL    H75 1581   3.288   6.949   6.597 -0.6656 -0.5516 -2.2115
    4MOL    H76 1582   3.432   7.041   6.555  1.1642  0.1330  2.3513
    4MOL    C77 1583   3.419   7.611   7.191 -0.3511  0.5412  0.3453
    4MOL    C78 1584   3.317   7.670   7.096 -0.2744 -0.3609 -0.3528
    4MOL    O79 1585   3.253   0.004   7.158 -0.5617 -0.2346  0.4358
    4MOL    C80 1586   3.301   0.139   7.143 -0.8126  0.4468 -0.3289
    4MOL    C81 1587   3.189   0.218   7.094 -0.3653  0.2229  0.6494
    4MOL    C82 1588   3.192   0.368   7.125 -0.1369  0.1843  0.0676
    4MOL    C83 1589   3.097   0.453   7.036  0.4742 -0.8812  0.1136
    4MOL    C84 1590   3.102   0.605   7.069  0.8513  0.1608 -0.5472
    4MOL    C85 1591   3.000   0.671   6.965  0.2254 -0.4479  0.7990
    4MOL    H86 1592   3.458   7.692   7.253  1.4244 -0.2742  0.3333
    4MOL    H87 1593   3.355   7.547   7.251 -1.5302 -0.4564 -1.9093
    4MOL    H88 1594   3.366   7.706   7.005 -0.1258  0.0679 -0.1019
    4MOL    H89 1595   3.377   0.137   7.066 -0.4436  0.0583  0.0418
    4MOL    H90 1596   3.334   0.177   7.240 -1.8112 -0.3498  0.3497
    4MOL    H91 1597   3.091   0.175   7.114  0.6439 -2.3021  0.3482
    4MOL    H92 1598   3.200   0.211   6.986 -1.3622 -0.7037  0.5918
    4MOL    H93 1599   3.154   0.370   7.227  2.9016  0.1364  1.2601
    4MOL    H94 1600   3.287   0.421   7.134  0.5511 -1.2741  1.6675
    4MOL    H95 1601   3.115   0.436   6.930  0.8007  1.9993 -0.3382
    4MOL    H96 1602   2.994   0.422   7.051 -0.5075  0.9184 -2.5296
    4MOL    H97 1603   3.081   0.621   7.175  3.6418  0.6677 -0.0369
    4MOL    H98 1604   3.204   0.637   7.046  0.6861  0.4064 -0.9606
    4MOL    H99 1605   2.904   0.620   6.973  1.0174 -1.8683  1.4151
    4MOL   H100 1606   2.986   0.779   6.974 -0.8934 -0.5543  0.5125
    4MOL   H101 1607   3.043   0.664   6.865  1.3123 -1.2125  1.3172
    4MOL   C102 1608   3.214   7.560   7.050  1.0800  0.2621 -0.2626
    4MOL   C103 1609   3.131   7.589   6.918  0.2762  0.3535  0.2446
    4MOL   O104 1610   3.109   7.462   6.858 -0.6339 -0.4242  0.9079
    4MOL   C105 1611   3.212   7.426   6.764  0.0854  0.3322  0.6567
    4MOL   C106 1612   3.173   7.282   6.730 -0.2266 -0.0406  0.6016
    4MOL   C107 1613   3.038   7.286   6.663 -0.2516 -0.3817 -0.3048
    4MOL   C108 1614   3.017   7.154   6.589  0.3963 -0.3785  0.3564
    4MOL   C109 1615   2.902   7.169   6.487 -0.3013  0.6386 -0.1636
    4MOL   C110 1616   2.890   7.044   6.404 -0.2614  0.2570  0.1330
    4MOL   H111 1617   3.255   7.460   7.048 -0.4092 -0.3931  0.6407
    4MOL   H112 1618   3.144   7.549   7.134  3.0229 -0.5658  1.2829
    4MOL   H113 1619   3.186   7.650   6.846 -0.7304  1.4172  0.3589
    4MOL   H114 1620   3.306   7.425   6.818  0.0076  1.7614  0.8564
    4MOL   H115 1621   3.206   7.488   6.675 -0.1637 -2.4659 -1.3474
    4MOL   H116 1622   3.168   7.215   6.816  1.5313 -0.1938  0.6156
    4MOL   H117 1623   3.250   7.241   6.665 -1.0199  1.2837 -1.2154
    4MOL   H118 1624   2.967   7.307   6.744  0.7456 -0.4784  0.6123
    4MOL   H119 1625   3.032   7.372   6.597  0.6455  1.4203  1.9072
    4MOL   H120 1626   3.110   7.130   6.537  1.1579  1.0343  1.0586
    4MOL   H121 1627   2.996   7.081   6.668  2.2217 -0.6181  0.6260
    4MOL   H122 1628   2.808   7.189   6.540 -0.7872 -1.7784 -0.0509
    4MOL   H123 1629   2.924   7.257   6.428 -2.8940  2.4094  1.3814
    4MOL   H124 1630   2.874   6.960   6.471 -0.3393 -1.6207 -2.1641
    4MOL   H125 1631   2.804   7.066   6.341  0.4583 -0.2222 -1.0406
    4MOL   H126 1632   2.968   7.016   6.333  0.2750 -0.1913  0.8801
    4MOL   C127 1633   3.006   7.665   6.946 -0.4618 -1.3548 -0.0821
    4MOL   C128 1634   2.958   7.742   6.820  0.2172  0.4258 -0.2724
    4MOL   O129 1635   3.064   0.048   6.775 -0.0146  0.6584  0.0875
    4MOL   C130 1636   3.055   0.078   6.633 -0.5000 -0.6171 -1.1289
    4MOL   C131 1637   3.135   0.208   6.623  0.2593 -0.3250 -0.3941
    4MOL   C132 1638   3.130   0.262   6.483 -0.1893  0.1795  0.2372
    4MOL   C133 1639   3.232   0.216   6.375  0.4045 -0.1609  0.2091
    4MOL   C134 1640   3.196   0.266   6.234 -0.4860 -0.2884  0.8620
    4MOL   C135 1641   3.297   0.357   6.189  0.5571  0.0198  0.6538
    4MOL   H136 1642   2.928   7.592   6.970 -1.8504  0.5533  1.3219
    4MOL   H137 1643   3.011   7.744   7.021  0.0346 -0.4554 -1.0553
    4MOL   H138 1644   2.945   7.671   6.739  4.1291 -2.0488  1.1032
    4MOL   H139 1645   2.951   0.099   6.607 -1.0403 -1.2913  0.4155
    4MOL   H140 1646   3.091   7.773   6.572  2.5764 -1.9581  2.2778
    4MOL   H141 1647   3.240   0.197   6.651  0.2909  2.1045  0.5787
    4MOL   H142 1648   3.091   0.285   6.686  0.4844 -0.1424 -0.4572
    4MOL   H143 1649   3.031   0.244   6.441  1.3786 -0.6785 -3.1959
    4MOL   H144 1650   3.133   0.371   6.489  1.9169  0.3442 -2.6889
    4MOL   H145 1651   3.328   0.256   6.406  0.4580  1.0838 -1.5154
    4MOL   H146 1652   3.257   0.110   6.373  1.9921  0.2017  0.5756
    4MOL   H147 1653   3.205   0.181   6.166  2.2664 -0.7893  1.8058
    4MOL   H148 1654   3.094   0.301   6.220 -0.5465 -0.4716  0.8358
    4MOL   H149 1655   3.285   0.376   6.082 -1.6200  2.0941  1.2188
    4MOL   H150 1656   3.282   0.452   6.241 -0.2465  0.2867 -0.0628
    4MOL   H151 1657   3.398   0.320   6.205  0.2592  0.0688  2.7047
    4MOL   C152 1658   2.822   0.044   6.852 -0.7306 -0.2105 -0.0283
    4MOL   C153 1659   2.712   7.746   6.933  0.7237  0.0846 -0.4245
    4MOL   O154 1660   2.668   0.053   7.045  0.6559 -0.7714  0.0954
    4MOL   C155 1661   2.742   0.034   7.165  0.3043 -0.3472  0.7680
    4MOL   C156 1662   2.701   0.140   7.281 -0.3952  0.1250 -0.5261
    4MOL   C157 1663   2.710   0.288   7.228 -0.3885  0.5926  0.2252
    4MOL   C158 1664   2.647   0.390   7.314  0.4300 -0.7108  1.3882
    4MOL   C159 1665   2.493   0.381   7.352 -0.1640 -0.1594 -0.3547
    4MOL   C160 1666   2.432   0.509   7.421 -0.3189 -1.6761 -0.5777
    4MOL   H161 1667   2.861   0.128   6.910  2.6785 -1.7530  0.0772
    4MOL   H162 1668   2.776   0.088   6.764  1.6699  0.3139 -1.0732
    4MOL   H163 1669   2.748   7.653   6.977  1.7467  0.1929 -1.0169
    4MOL   H164 1670   2.845   0.055   7.138  0.7539 -0.2289  2.5125
    4MOL   H165 1671   2.725   7.706   7.188 -3.3551 -0.1191 -0.4946
    4MOL   H166 1672   2.761   0.109   7.366 -1.5576 -2.0672 -0.4620
    4MOL   H167 1673   2.602   0.108   7.314 -0.1239  0.4569  0.6170
    4MOL   H168 1674   2.816   0.315   7.231  0.5197 -2.4521 -1.4778
    4MOL   H169 1675   2.664   0.290   7.129  2.4386 -0.2719 -1.1735
    4MOL   H170 1676   2.694   0.380   7.412  2.1640 -1.1195  0.5461
    4MOL   H171 1677   2.662   0.493   7.285  1.5174 -1.0332  0.7834
    4MOL   H172 1678   2.450   0.352   7.256  0.2747  0.9417 -0.8826
    4MOL   H173 1679   2.481   0.298   7.423 -0.8764 -0.1572 -0.4708
    4MOL   H174 1680   2.466   0.600   7.372 -0.1770 -0.2146  2.1221
    4MOL   H175 1681   2.323   0.500   7.425 -0.6505  0.9522 -2.6720
    4MOL   H176 1682   2.471   0.524   7.522 -0.3703  1.5061 -1.0005
    4MOL   C177 1683   2.584   7.703   6.850 -0.2437 -0.3913  0.1834
    4MOL   C178 1684   2.612   7.591   6.751 -0.0648 -0.8017  0.6177
    4MOL   O179 1685   2.687   7.650   6.644 -0.1227 -0.2019 -0.1416
    4MOL   C180 1686   2.710   7.568   6.531 -0.0813  0.3733 -0.3320
    4MOL   C181 1687   2.801   7.648   6.436 -0.4725  0.7121 -0.3142
    4MOL   C182 1688   2.738   0.004   6.387 -0.3090  0.6097 -0.1660
    4MOL   C183 1689   2.806   0.055   6.260 -0.3686 -0.3114  0.9581
    4MOL   C184 1690   2.772   0.195   6.207 -0.9085  0.1577 -0.0223
    4MOL   C185 1691   2.831   0.205   6.066 -0.3802 -0.1907  0.0903
    4MOL   H186 1692   2.509   7.672   6.922  2.1253  2.1181  3.8890
    4MOL   H187 1693   2.539   0.011   6.800 -0.0893  0.2648  1.1500
    4MOL   H188 1694   2.512   7.569   6.716  0.1498 -1.0951  0.1805
    4MOL   H189 1695   2.617   7.550   6.479 -1.0349 -0.1560  1.4902
    4MOL   H190 1696   2.755   7.469   6.534  1.2571  0.8867 -2.4573
    4MOL   H191 1697   2.834   7.585   6.354 -0.2122 -0.7440  0.9008
    4MOL   H192 1698   2.896   7.671   6.486 -0.2140 -0.7957 -0.0992
    4MOL   H193 1699   2.633   7.763   6.362  0.0966 -0.4405 -1.1577
    4MOL   H194 1700   2.738   0.085   6.459 -1.3757 -1.3097  2.0787
    4MOL   H195 1701   2.914   0.048   6.273 -0.3486 -3.6651 -0.6061
    4MOL   H196 1702   2.781   7.764   6.179  3.0085 -1.3251  0.7080
    4MOL   H197 1703   2.664   0.212   6.207 -0.9847 -0.3296 -0.1585
    4MOL   H198 1704   2.820   0.271   6.269  0.9501  0.2674 -1.5444
    4MOL   H199 1705   2.926   0.154   6.049 -0.6040  0.0018 -1.8530
    4MOL   H200 1706   2.760   0.158   5.998  1.2313  0.0401 -1.7873
    4MOL   H201 1707   2.840   0.308   6.031  2.4468 -0.2791  0.4369
    4MOL   C202 1708   2.683   7.464   6.815 -0.0916 -1.2473  0.2421
    4MOL   C203 1709   2.599   7.389   6.925 -0.0460  0.5034  0.2556
    4MOL   O204 1710   2.671   7.267   6.957  0.0345 -0.4229  0.1277
    4MOL   C205 1711   2.788   7.289   7.036  0.6499 -0.8068  0.8691
    4MOL   C206 1712   2.840   7.159   7.100 -0.0580  0.3708 -0.2670
    4MOL   C207 1713   2.915   7.061   7.006 -0.2318 -0.5640 -0.3873
    4MOL   C208 1714   2.941   6.921   7.068 -0.6480 -0.3685  0.1504
    4MOL   C209 1715   3.052   6.923   7.172  0.6964 -0.1169 -0.1564
    4MOL   C210 1716   3.190   6.936   7.120  0.4526 -0.1599  0.2184
    4MOL   H211 1717   2.693   7.386   6.740 -1.0594 -0.3574 -0.8233
    4MOL   H212 1718   2.784   7.494   6.843 -0.7615  1.2845  0.1425
    4MOL   H213 1719   2.589   7.452   7.014  1.0752  1.7392 -0.4767
    4MOL   H214 1720   2.766   7.359   7.116  3.1618  1.4399 -0.2931
    4MOL   H215 1721   2.860   7.335   6.968 -2.1019 -1.3962 -2.6221
    4MOL   H216 1722   2.756   7.114   7.152  0.1892  0.8330  0.5347
    4MOL   H217 1723   2.909   7.190   7.178  0.1521  0.5542 -0.5243
    4MOL   H218 1724   2.847   7.047   6.922 -0.2533 -2.7683 -0.0345
    4MOL   H219 1725   3.000   7.114   6.963  0.5914 -1.5750 -0.0344
    4MOL   H220 1726   2.850   6.879   7.111 -1.1475 -2.0275 -2.4264
    4MOL   H221 1727   2.972   6.852   6.989 -0.4369 -0.4484  0.3018
    4MOL   H222 1728   3.022   6.993   7.250 -0.6930 -1.7073  0.7879
    4MOL   H223 1729   3.058   6.830   7.229 -1.0419 -0.4417 -0.4746
    4MOL   H224 1730   3.211   7.040   7.094 -2.3217  0.6528  1.0571
    4MOL   H225 1731   3.263   6.910   7.197  0.0826 -0.7533  0.3723
    4MOL   H226 1732   3.202   6.873   7.032  2.5167 -2.0519  1.8041
    4MOL   C227 1733   2.457   7.340   6.884  0.0216  0.0009 -0.3268
    4MOL   C228 1734   2.444   7.207   6.801  0.8864 -1.0923  0.3670
    4MOL   O229 1735   2.306   7.200   6.775 -0.2388 -0.4485 -0.1888
    4MOL   C230 1736   2.238   7.145   6.894  0.4156 -0.2339  0.3600
    4MOL   C231 1737   2.087   7.155   6.854 -0.1508  0.5603 -0.2148
    4MOL   C232 1738   2.049   7.054   6.740  0.3122 -0.6201 -0.1741
    4MOL   C233 1739   1.894   7.060   6.709  0.3788 -0.4108 -0.4303
    4MOL   C234 1740   1.844   6.973   6.604  0.0893 -0.2922  0.6479
    4MOL   C235 1741   1.696   6.993   6.573  0.2901 -0.7248 -0.5803
    4MOL   H236 1742   2.416   7.325   6.984 -0.5209 -1.1172 -0.7062
    4MOL   H237 1743   2.398   7.423   6.844 -0.8657 -0.3780  0.1809
    4MOL   H238 1744   2.475   7.123   6.863  0.8314 -1.6642 -0.3771
    4MOL   H239 1745   2.254   7.210   6.980  0.9076  2.0391 -1.4044
    4MOL   H240 1746   2.250   7.039   6.916  0.4663 -0.1947  0.5212
    4MOL   H241 1747   2.045   7.254   6.837  1.5390  1.0586 -1.5175
    4MOL   H242 1748   2.026   7.119   6.937 -1.5024 -0.9617 -1.8281
    4MOL   H243 1749   2.108   7.076   6.651 -1.6628 -1.5511 -1.7573
    4MOL   H244 1750   2.076   6.954   6.774 -1.0171 -1.1394 -0.5979
    4MOL   H245 1751   1.838   7.044   6.800  1.1445  2.4504  0.6221
    4MOL   H246 1752   1.873   7.159   6.666 -3.1268 -1.3125 -0.9215
    4MOL   H247 1753   1.898   6.982   6.509 -2.4294 -3.8207 -1.2300
    4MOL   H248 1754   1.870   6.870   6.627  1.1225 -0.1151  0.3501
    4MOL   H249 1755   1.651   6.912   6.515 -0.6480  1.6806 -3.3522
    4MOL   H250 1756   1.641   6.991   6.667  0.4785  2.2764 -0.3787
    4MOL   H251 1757   1.679   7.092   6.530  0.0238 -0.4298  0.1934
    4MOL   C252 1758   2.500   7.201   6.665 -0.2790 -0.2084  0.3278
    4MOL   C253 1759   2.489   7.060   6.603 -0.0487  0.5796  0.1788
    4MOL   O254 1760   2.574   6.976   6.688 -0.4056 -0.1433 -0.0471
    4MOL   C255 1761   2.539   6.842   6.695  0.0947  0.0894 -0.5080
    4MOL   C256 1762   2.634   6.783   6.797  0.1335  0.1636  0.6795
    4MOL   C257 1763   2.596   6.644   6.827 -0.3764 -0.0807  0.5604
    4MOL   C258 1764   2.692   6.591   6.938 -0.1718 -0.0035  0.4231
    4MOL   C259 1765   2.665   6.440   6.969 -0.6125 -0.6161 -0.3049
    4MOL   C260 1766   2.516   6.395   6.982  0.0794  0.4516 -0.5063
    4MOL   H261 1767   2.459   7.280   6.602 -0.2458 -0.1392  0.3951
    4MOL   H262 1768   2.606   7.224   6.654 -0.6140  0.3587 -2.0010
    4MOL   H263 1769   2.382   7.039   6.610 -0.0281  0.5964  0.5619
    4MOL   H264 1770   2.555   6.798   6.597  2.6902 -0.3991  0.0835
    4MOL   H265 1771   2.435   6.840   6.727  0.0656  2.4088 -0.3329
    4MOL   H266 1772   2.635   6.843   6.888 -2.2239  0.9236  0.2439
    4MOL   H267 1773   2.737   6.785   6.762 -0.8351  0.2240 -2.2510
    4MOL   H268 1774   2.491   6.648   6.857 -0.9192 -2.2449 -0.9523
    4MOL   H269 1775   2.593   6.578   6.740 -1.3634 -0.0862  0.5982
    4MOL   H270 1776   2.797   6.615   6.924  0.0249 -2.2818 -2.4643
    4MOL   H271 1777   2.657   6.653   7.020 -0.3862 -1.7378  1.6718
    4MOL   H272 1778   2.708   6.382   6.888  0.4691  0.2228 -0.3400
    4MOL   H273 1779   2.717   6.408   7.059 -1.2779 -2.8437 -0.6872
    4MOL   H274 1780   2.532   6.287   6.985  0.8696  0.6027  1.4977
    4MOL   H275 1781   2.477   6.418   7.082 -1.9492 -2.1238 -0.6496
    4MOL   H276 1782   2.447   6.427   6.904 -0.5503  0.1177 -0.0973
    4MOL   C277 1783   2.522   7.054   6.456 -1.2635  0.6181 -0.2203
    4MOL   C278 1784   2.393   7.075   6.367  0.0557  0.1770  0.6641
    4MOL   O279 1785   2.433   7.119   6.237  0.4300 -0.5589  0.1655
    4MOL   C280 1786   2.472   7.267   6.243 -0.7263 -0.3614 -0.6275
    4MOL   C281 1787   2.571   7.284   6.125 -0.5280  0.2801  0.2174
    4MOL   C282 1788   2.516   7.258   5.979  0.3007 -0.2988  0.2453
    4MOL   C283 1789   2.633   7.270   5.884  0.2521  0.8922 -0.0483
    4MOL   C284 1790   2.585   7.248   5.736  0.1574  0.0439  0.1350
    4MOL   C285 1791   2.570   7.106   5.701 -0.3067 -0.3896 -0.3759
    4MOL   H286 1792   2.615   7.106   6.433  0.4364 -2.9951 -1.9051
    4MOL   H287 1793   2.558   6.955   6.428  1.3605  1.6121 -0.5613
    4MOL   H288 1794   2.349   7.162   6.415  1.8379  0.9455  0.9469
    4MOL   H289 1795   2.532   7.282   6.333 -3.0904 -0.7678  1.0778
    4MOL   H290 1796   2.388   7.335   6.259 -0.3648 -0.7352  3.4025
    4MOL   H291 1797   2.653   7.217   6.149  0.7733  1.2130 -1.5158
    4MOL   H292 1798   2.603   7.387   6.142  2.1976 -0.2614 -1.2974
    4MOL   H293 1799   2.465   7.162   5.986 -0.2789  0.0443  0.7803
    4MOL   H294 1800   2.445   7.335   5.951  0.1173 -1.2218 -1.9826
    4MOL   H295 1801   2.667   7.372   5.901 -0.2978  0.9250  0.9011
    4MOL   H296 1802   2.712   7.198   5.905  0.6031  1.0683 -0.7695
    4MOL   H297 1803   2.496   7.308   5.717  0.3839  0.6564  0.9974
    4MOL   H298 1804   2.656   7.297   5.670 -1.0941  1.6370 -0.0676
    4MOL   H299 1805   2.542   7.106   5.596  2.6912 -0.0193 -1.2289
    4MOL   H300 1806   2.666   7.054   5.699  0.6986  1.4238 -2.1238
    4MOL   H301 1807   2.502   7.060   5.772 -0.1991  0.4950  0.3202
    4MOL   C302 1808   2.295   6.956   6.365 -0.2989  0.0275  0.1216
    4MOL   C303 1809   2.173   6.980   6.273 -0.1152  0.0814  0.9392
    4MOL   O304 1810   2.105   7.082   6.351 -0.1178  0.7788 -0.4177
    4MOL   C305 1811   2.096   7.208   6.295 -0.6090  0.5242 -0.3337
    4MOL   C306 1812   2.016   7.300   6.389 -0.1354  0.0288 -0.1228
    4MOL   C307 1813   2.104   7.368   6.492 -0.4212  0.0968 -0.1737
    4MOL   C308 1814   2.181   7.491   6.435 -0.7764 -0.9504 -0.0228
    4MOL   C309 1815   2.290   7.546   6.534 -0.3236  0.1805 -0.5608
    4MOL   C310 1816   2.332   7.693   6.512 -0.0354  0.0193  0.0293
    4MOL   H311 1817   2.347   6.870   6.326  1.0778  0.6610  0.5343
    4MOL   H312 1818   2.262   6.937   6.468 -1.0211  2.8107  0.4762
    4MOL   H313 1819   2.201   7.017   6.174 -2.5945 -0.8308 -0.1658
    4MOL   H314 1820   2.037   7.188   6.205 -1.7444 -1.4805  0.8067
    4MOL   H315 1821   2.195   7.243   6.268 -0.0923 -1.0295 -0.4599
    4MOL   H316 1822   1.941   7.231   6.427 -2.8674  2.2316 -1.2621
    4MOL   H317 1823   1.974   7.378   6.325  0.3232 -0.3189 -0.8449
    4MOL   H318 1824   2.042   7.382   6.581 -1.3680  1.9093 -1.0932
    4MOL   H319 1825   2.180   7.295   6.521  0.6982  1.5058  0.5087
    4MOL   H320 1826   2.216   7.462   6.336 -0.6387  1.4768 -0.7127
    4MOL   H321 1827   2.101   7.562   6.414  1.3458  0.8254 -2.4426
    4MOL   H322 1828   2.240   7.540   6.631 -0.2442  2.0818 -0.3712
    4MOL   H323 1829   2.372   7.474   6.532 -1.0458 -0.7328  1.1816
    4MOL   H324 1830   2.264   7.743   6.581 -0.8514  0.7800 -1.2971
    4MOL   H325 1831   2.435   7.726   6.527  0.4089 -1.4976  0.3065
    4MOL   H326 1832   2.317   7.715   6.406  1.8179 -1.0131 -0.4742
    4MOL   C327 1833   2.099   6.850   6.255  0.2145 -0.5083 -0.4956
    4MOL   C328 1834   1.977   6.864   6.154 -0.2937  0.3275  0.0436
    4MOL   O329 1835   2.022   6.878   6.016  0.0691 -0.0930 -0.3681
    4MOL   C330 1836   2.003   7.005   5.954 -0.1849 -0.0143 -0.3082
    4MOL   C331 1837   2.031   6.994   5.809  0.1075 -0.3956 -0.2283
    4MOL   C332 1838   1.951   6.885   5.737  0.6098 -0.2462 -0.2587
    4MOL   C333 1839   1.982   6.876   5.584  0.1431  0.1880 -0.7408
    4MOL   C334 1840   1.933   6.753   5.520 -0.5539 -0.2756  0.3267
    4MOL   C335 1841   1.946   6.755   5.363 -0.3489  1.2913  0.2381
    4MOL   H336 1842   2.064   6.823   6.354 -2.8496 -0.5571 -1.5382
    4MOL   H337 1843   2.161   6.765   6.226  0.5925 -0.9311  1.5020
    4MOL   H338 1844   1.917   6.950   6.185  1.3094  0.8682  1.8071
    4MOL   H339 1845   2.059   7.087   5.997 -0.7802  0.1627  0.1395
    4MOL   H340 1846   1.903   7.046   5.972  0.3246  1.7943 -1.4730
    4MOL   H341 1847   2.136   6.967   5.795 -0.0182 -1.8196  1.4565
    4MOL   H342 1848   2.026   7.091   5.759  2.6730 -0.0497  0.1148
    4MOL   H343 1849   1.977   6.785   5.774 -3.0221 -1.1454  0.1108
    4MOL   H344 1850   1.845   6.899   5.758  1.3007 -1.4118  4.6982
    4MOL   H345 1851   1.954   6.968   5.532  2.4034  0.7519 -1.0412
    4MOL   H346 1852   2.090   6.867   5.574  0.0920  0.1746 -1.3181
    4MOL   H347 1853   1.991   6.671   5.562  0.7538  0.6942  0.4545
    4MOL   H348 1854   1.827   6.751   5.548 -0.6405  0.3614  0.0645
    4MOL   H349 1855   2.043   6.790   5.329 -0.1036 -1.9557 -2.6595
    4MOL   H350 1856   1.942   6.654   5.323  1.1990  0.8679  1.1300
    4MOL   H351 1857   1.871   6.821   5.318  0.9703  2.3505 -0.4303
    4MOL   C352 1858   1.896   6.737   6.138  0.5322 -0.4947  0.4391
    4MOL   C353 1859   1.770   6.746   6.056 -0.3597  0.2524 -0.4249
    4MOL   O354 1860   1.654   6.771   6.133 -0.0143 -0.1639  0.2290
    4MOL   C355 1861   1.641   6.902   6.174  0.5265 -0.7614 -0.1537
    4MOL   C356 1862   1.491   6.923   6.219  0.4850  0.3315 -0.0586
    4MOL   C357 1863   1.390   6.909   6.101 -0.1627 -0.8766  0.2501
    4MOL   C358 1864   1.249   6.965   6.129  0.2084 -0.4337 -0.3274
    4MOL   C359 1865   1.248   7.105   6.182  0.4172  0.2707 -0.5808
    4MOL   C360 1866   1.109   7.176   6.196 -0.4126  0.0892 -0.2126
    4MOL   H361 1867   1.969   6.658   6.119  0.2511 -0.4653 -0.7829
    4MOL   H362 1868   1.863   6.682   6.226 -0.1308  2.9286  2.4200
    4MOL   H363 1869   1.782   6.813   5.971 -1.7440 -1.4118 -1.9940
    4MOL   H364 1870   1.649   6.977   6.095  0.2847  0.3794  0.8791
    4MOL   H365 1871   1.708   6.928   6.256 -0.3886  1.8970 -0.1776
    4MOL   H366 1872   1.483   7.022   6.264 -0.0093  0.0971  0.3745
    4MOL   H367 1873   1.467   6.852   6.299  1.7942 -1.4884 -1.2382
    4MOL   H368 1874   1.435   6.957   6.014 -1.3245  2.1385  1.2551
    4MOL   H369 1875   1.393   6.803   6.077  1.9107 -0.7380 -0.2363
    4MOL   H370 1876   1.201   6.957   6.031  0.3437  0.7023 -0.4861
    4MOL   H371 1877   1.184   6.902   6.190  1.1142  0.5220  1.6833
    4MOL   H372 1878   1.293   7.110   6.281 -1.3879 -0.1088  0.2842
    4MOL   H373 1879   1.321   7.170   6.134 -0.6565  1.6048 -0.4160
    4MOL   H374 1880   1.125   7.265   6.256 -1.8226  1.8538 -2.3654
    4MOL   H375 1881   1.072   7.206   6.098 -0.8485  2.0777  0.5417
    4MOL   H376 1882   1.032   7.112   6.239  1.0160 -1.9848 -0.6985
    4MOL   C377 1883   1.739   6.604   5.993  0.1464 -0.4100 -0.3125
    4MOL   C378 1884   1.613   6.603   5.901 -0.2368  0.2010 -0.0105
    4MOL   O379 1885   1.578   6.465   5.893 -0.4722 -0.5378 -0.1188
    4MOL   C380 1886   1.484   6.419   5.983 -0.1069 -0.5107 -0.3237
    4MOL   C381 1887   1.431   6.274   5.964 -0.0534  0.8784 -0.4348
    4MOL   C382 1888   1.318   6.244   5.860 -0.5422 -0.2907 -0.6729
    4MOL   C383 1889   1.354   6.269   5.718 -0.3007  0.7009 -0.8776
    4MOL   C384 1890   1.232   6.272   5.626  0.4866 -0.3273  0.2093
    4MOL   C385 1891   1.271   6.303   5.477  0.4787 -0.0906 -0.1455
    4MOL   H386 1892   1.824   6.576   5.932 -1.7072  2.0361 -4.2660
    4MOL   H387 1893   1.735   6.538   6.079 -0.0858 -0.3536 -0.2793
    4MOL   H388 1894   1.531   6.651   5.955 -0.7063 -0.6709  0.0583
    4MOL   H389 1895   1.397   6.485   5.979 -0.7787 -1.4354 -1.3967
    4MOL   H390 1896   1.531   6.429   6.080 -1.2751 -1.4800  0.3523
    4MOL   H391 1897   1.390   6.229   6.055  2.1432  0.2618  0.2919
    4MOL   H392 1898   1.521   6.221   5.930 -1.0287  0.2652 -2.1388
    4MOL   H393 1899   1.284   6.141   5.870  1.1865 -0.9895 -1.7592
    4MOL   H394 1900   1.238   6.310   5.893 -0.1173 -0.6982  1.2304
    4MOL   H395 1901   1.397   6.369   5.713  1.3908 -0.0861 -2.6174
    4MOL   H396 1902   1.427   6.193   5.689 -1.6945 -0.0886 -2.3642
    4MOL   H397 1903   1.186   6.173   5.626 -2.7241  1.1066 -0.3307
    4MOL   H398 1904   1.160   6.345   5.662  0.2934 -0.5981  0.3772
    4MOL   H399 1905   1.323   6.399   5.469 -0.1571  0.4561  1.9932
    4MOL   H400 1906   1.339   6.226   5.439  0.2378 -0.2761 -0.2015
    4MOL   H401 1907   1.182   6.320   5.417  1.7719  0.9060 -1.8247
    4MOL   C402 1908   1.641   6.660   5.760 -0.0265 -0.5204 -0.1693
    4MOL   C403 1909   1.525   6.673   5.663  0.1799  0.5098 -0.0309
    4MOL   O404 1910   1.559   6.671   5.527 -0.0175 -0.0174  0.0111
    4MOL   C405 1911   1.584   6.541   5.473  0.4299  0.3593 -0.0909
    4MOL   C406 1912   1.605   6.548   5.325 -0.4631 -0.2197  0.4519
    4MOL   C407 1913   1.483   6.563   5.238 -0.9854  0.4828 -0.5260
    4MOL   C408 1914   1.511   6.551   5.089 -0.1236 -0.9016  0.0508
    4MOL   C409 1915   1.373   6.537   5.018 -0.3133  0.1069 -0.0379
    4MOL   C410 1916   1.370   6.522   4.868  0.1561 -0.6140  0.1396
    4MOL   H411 1917   1.718   6.588   5.732  1.4047  0.6922  0.6191
    4MOL   H412 1918   1.696   6.753   5.768  1.9939 -1.8999  2.6419
    4MOL   H413 1919   1.467   6.582   5.677  1.1781 -0.0524  0.5237
    4MOL   H414 1920   1.504   6.470   5.497  1.7982 -1.4699 -0.8156
    4MOL   H415 1921   1.675   6.493   5.509 -0.1184 -1.3350 -0.8740
    4MOL   H416 1922   1.651   6.455   5.294 -1.3580 -0.3155 -0.5841
    4MOL   H417 1923   1.675   6.632   5.318 -1.3536  0.5445  0.5303
    4MOL   H418 1924   1.411   6.487   5.266  1.0340 -1.3736 -0.2575
    4MOL   H419 1925   1.441   6.661   5.263 -0.4983  0.9239 -1.4291
    4MOL   H420 1926   1.558   6.644   5.056 -0.5973 -1.1905 -1.4952
    4MOL   H421 1927   1.566   6.466   5.049 -0.7934 -0.6951 -1.3559
    4MOL   H422 1928   1.327   6.449   5.065 -0.7189 -1.1783 -2.7353
    4MOL   H423 1929   1.312   6.621   5.051 -0.3287  0.3065 -0.5734
    4MOL   H424 1930   1.407   6.606   4.809 -2.4704 -0.4868 -1.3759
    4MOL   H425 1931   1.424   6.428   4.852 -1.2081 -1.4565  0.4448
    4MOL   H426 1932   1.268   6.506   4.834  0.1043  0.6728 -0.3398
    4MOL   C427 1933   1.433   6.802   5.688  0.2688  0.5942  0.0781
    4MOL   C428 1934   1.283   6.798   5.635 -0.0584 -0.0213  0.1971
    4MOL   O429 1935   1.231   6.936   5.628 -0.4529  1.2400  0.4341
    4MOL   C430 1936   1.170   6.979   5.743  0.5975  0.7774 -0.1347
    4MOL   C431 1937   1.092   7.109   5.709  0.4705  1.1043  0.5049
    4MOL   C432 1938   1.173   7.233   5.706  0.5049  1.1182 -0.8339
    4MOL   C433 1939   1.097   7.358   5.751  0.7551  0.3807 -0.3135
    4MOL   C434 1940   1.184   7.484   5.752  0.4719  0.2624  0.2115
    4MOL   C435 1941   1.104   7.612   5.785 -0.4798 -0.5847 -0.4044
    4MOL   H436 1942   1.418   6.821   5.795  0.0499 -1.2601  0.3842
    4MOL   H437 1943   1.476   6.893   5.645  1.3085 -0.8215 -1.9210
    4MOL   H438 1944   1.221   6.734   5.696  1.8131 -0.3469  1.8208
    4MOL   H439 1945   1.240   7.014   5.818 -0.5038  1.1044  0.7614
    4MOL   H440 1946   1.112   6.903   5.796  1.2034 -1.2818 -2.3378
    4MOL   H441 1947   1.024   7.127   5.792 -0.7081 -2.1900  0.3376
    4MOL   H442 1948   1.035   7.097   5.617  0.1166  0.9530  0.7428
    4MOL   H443 1949   1.250   7.210   5.780 -0.3786 -1.6942 -0.7220
    4MOL   H444 1950   1.230   7.254   5.616  1.5741 -0.3598 -0.5223
    4MOL   H445 1951   1.002   7.375   5.701  0.1813 -1.3374  0.1560
    4MOL   H446 1952   1.050   7.338   5.848 -1.7725 -1.3520 -1.8665
    4MOL   H447 1953   1.271   7.467   5.816  0.6063 -1.5603 -0.4374
    4MOL   H448 1954   1.235   7.521   5.662  0.7609 -0.3391  0.1231
    4MOL   H449 1955   1.017   7.626   5.722 -0.1443  0.0010 -0.7471
    4MOL   H450 1956   1.066   7.605   5.887 -1.1984 -0.8306 -0.6940
    4MOL   H451 1957   1.175   7.694   5.775  1.3306 -2.2029 -1.1622
    4MOL   C452 1958   1.271   6.755   5.483 -0.0326  0.5806 -0.7807
    4MOL   C453 1959   1.134   6.778   5.420  0.2064  0.1918 -0.0107
    4MOL   O454 1960   1.052   6.693   5.497 -0.1346 -0.1932 -0.4999
    4MOL   C455 1961   0.925   6.759   5.535  1.3299  0.1528 -0.4934
    4MOL   C456 1962   0.841   6.641   5.586  0.5497  0.4475 -0.0094
    4MOL   C457 1963   0.906   6.556   5.694 -1.2562  0.1827  0.2162
    4MOL   C458 1964   0.815   6.439   5.739 -0.1852 -0.1460 -0.3200
    4MOL   C459 1965   0.889   6.329   5.823  0.4432 -0.1200 -0.0493
    4MOL   C460 1966   0.797   6.226   5.897  1.3745  0.1073 -0.4809
    4MOL   H461 1967   1.346   6.818   5.436 -0.2344  1.6018  0.2396
    4MOL   H462 1968   1.304   6.652   5.468 -2.1852 -0.2752  0.1215
    4MOL   H463 1969   1.109   6.884   5.424 -0.9319 -0.1194  1.4470
    4MOL   H464 1970   0.868   6.796   5.450  1.4757 -0.1631 -0.7285
    4MOL   H465 1971   0.939   6.834   5.612 -1.4922 -0.0144  0.2233
    4MOL   H466 1972   0.829   6.575   5.501  1.6984  0.5402 -0.2525
    4MOL   H467 1973   0.745   6.680   5.620  0.6534  0.2043  0.5731
    4MOL   H468 1974   1.000   6.516   5.658 -1.7306 -0.3856 -0.4130
    4MOL   H469 1975   0.914   6.618   5.783 -0.7943 -0.8546  0.9089
    4MOL   H470 1976   0.732   6.479   5.797  0.6807  2.1077 -0.5811
    4MOL   H471 1977   0.785   6.381   5.652 -0.2755  2.0004 -1.7606
    4MOL   H472 1978   0.963   6.280   5.759  1.5008  0.6944  0.5260
    4MOL   H473 1979   0.949   6.381   5.898  1.0161 -0.6906 -0.1074
    4MOL   H474 1980   0.699   6.269   5.913  1.1225 -0.2998 -0.9262
    4MOL   H475 1981   0.792   6.134   5.838 -2.5028 -0.5000  0.7032
    4MOL   H476 1982   0.828   6.205   6.000  1.0599  0.6614 -0.2743
    4MOL   C477 1983   1.131   6.721   5.272 -0.0373  0.4422  0.6218
    4MOL   C478 1984   0.996   6.719   5.198 -0.0198 -0.1862  0.5756
    4MOL   O479 1985   0.936   6.845   5.209 -0.5605  0.7797  0.2568
    4MOL   C480 1986   0.817   6.860   5.131 -0.2214  0.4998  0.5183
    4MOL   C481 1987   0.760   6.997   5.154  0.2894 -0.6225 -0.1958
    4MOL   C482 1988   0.737   7.022   5.300 -0.1096  0.6396 -0.6886
    4MOL   C483 1989   0.669   7.153   5.322 -0.4958 -0.0933 -0.0653
    4MOL   C484 1990   0.610   7.180   5.457  0.6295  0.3616 -0.2496
    4MOL   C485 1991   0.725   7.171   5.574  0.0969  0.5250 -0.0192
    4MOL   H486 1992   1.194   6.775   5.201  0.0235 -2.0199 -1.2734
    4MOL   H487 1993   1.178   6.623   5.262  0.3484  0.5114  1.7271
    4MOL   H488 1994   1.022   6.696   5.095  0.3805 -0.2263  0.6844
    4MOL   H489 1995   0.741   6.787   5.160 -0.4566 -0.6828 -2.8636
    4MOL   H490 1996   0.833   6.837   5.025  2.0178 -1.8111  1.3178
    4MOL   H491 1997   0.669   6.987   5.096 -0.1530  0.6058  0.2593
    4MOL   H492 1998   0.814   7.087   5.123 -2.2236  0.5935 -1.1382
    4MOL   H493 1999   0.668   6.940   5.322  0.9818 -0.1375 -0.0998
    4MOL   H494 2000   0.832   7.015   5.352  0.9927  0.6636 -2.6390
    4MOL   H495 2001   0.745   7.232   5.317 -2.4903  1.9874  1.7187
    4MOL   H496 2002   0.593   7.168   5.245 -0.6160  0.6646  0.2002
    4MOL   H497 2003   0.565   7.279   5.459  0.0657  0.1078 -0.3943
    4MOL   H498 2004   0.529   7.118   5.496 -0.2214  2.7552  1.8793
    4MOL   H499 2005   0.691   7.219   5.666  0.2788  0.3330  0.1473
    4MOL   H500 2006   0.753   7.070   5.601 -2.1343 -0.5721 -1.6837
    4MOL   H501 2007   0.802   7.246   5.554  0.6036  0.6868  2.3738
    4MOL   H502 2008   0.937   6.643   5.248 -0.2974 -0.9190 -0.8479
    5MOL     C1 2009   0.913   4.059   2.417 -0.2983 -0.1916  1.1140
    5MOL     C2 2010   1.040   4.135   2.371 -0.1403 -0.1461  0.6023
    5MOL     O3 2011   0.991   4.246   2.295 -0.1651  0.4212  0.3432
    5MOL     C4 2012   0.989   4.364   2.369 -0.0621 -0.7752  0.0423
    5MOL     C5 2013   0.964   4.474   2.266 -0.9002  0.6040 -0.5416
    5MOL     C6 2014   0.977   4.616   2.325 -0.4659  0.4050 -0.3319
    5MOL     C7 2015   0.936   4.733   2.231  0.0569 -0.4316 -0.2947
    5MOL     C8 2016   0.906   4.861   2.308  0.1203 -0.3990 -0.3709
    5MOL     C9 2017   0.770   4.859   2.394 -0.2435 -0.5487 -0.2246
    5MOL    H10 2018   0.938   3.997   2.503 -0.0465 -0.2631  0.9884
    5MOL    H11 2019   0.840   4.135   2.446 -1.8509 -1.7047  1.2609
    5MOL    H12 2020   1.095   4.164   2.461  1.0015 -1.0299  0.2019
    5MOL    H13 2021   1.087   4.378   2.416 -0.4470  2.7840 -0.0893
    5MOL    H14 2022   0.910   4.360   2.444  0.9785 -1.9166  1.1183
    5MOL    H15 2023   0.869   4.459   2.214 -1.9995 -0.0200  1.5753
    5MOL    H16 2024   1.048   4.467   2.197 -0.8385  2.2447 -0.6706
    5MOL    H17 2025   0.918   4.612   2.416  1.7523 -1.0113  1.0874
    5MOL    H18 2026   1.083   4.620   2.350 -0.0180 -2.3407 -1.6505
    5MOL    H19 2027   1.018   4.755   2.163  0.3934 -0.5133  0.0797
    5MOL    H20 2028   0.848   4.702   2.175 -1.3152  2.0751  0.3895
    5MOL    H21 2029   0.909   4.950   2.245 -0.8396  1.2060  1.7845
    5MOL    H22 2030   0.985   4.881   2.380 -0.3810  1.7726 -0.3947
    5MOL    H23 2031   0.676   4.856   2.341 -0.7728  2.0158  0.4708
    5MOL    H24 2032   0.768   4.783   2.471  1.4231 -1.1603 -0.7625
    5MOL    H25 2033   0.770   4.959   2.437  0.4030  1.6584 -5.0089
    5MOL    H26 2034   0.869   4.001   2.336  0.9246  0.6650 -0.2001
    5MOL    C27 2035   1.126   4.050   2.287 -0.5104  1.0305 -0.1609
    5MOL    C28 2036   1.249   4.122   2.237  0.0967 -0.1738 -0.3997
    5MOL    O29 2037   1.328   4.179   2.348 -0.4448 -0.3675 -0.2779
    5MOL    C30 2038   1.410   4.285   2.313  0.0170  0.4470  0.6379
    5MOL    C31 2039   1.460   4.350   2.444 -0.3112 -0.2172  0.0103
    5MOL    C32 2040   1.549   4.478   2.422 -0.5277  0.4609 -0.6759
    5MOL    C33 2041   1.492   4.593   2.343  0.0006  1.1187  0.2062
    5MOL    C34 2042   1.557   4.730   2.369  0.8010 -0.0752  0.4577
    5MOL    C35 2043   1.499   4.844   2.290  0.0404  0.0262 -0.6618
    5MOL    H36 2044   1.166   3.963   2.338 -1.5759  0.5852 -0.0762
    5MOL    H37 2045   1.067   4.005   2.208 -0.0133 -1.7880  1.0190
    5MOL    H38 2046   1.215   4.199   2.167  0.1733  0.7677  0.5892
    5MOL    H39 2047   1.367   4.362   2.249 -0.7972 -0.9105 -0.4598
    5MOL    H40 2048   1.494   4.257   2.249 -2.2207 -0.7875 -1.8745
    5MOL    H41 2049   1.517   4.281   2.506 -0.4396 -2.0466 -1.8689
    5MOL    H42 2050   1.372   4.374   2.504  1.4778 -0.6196  2.9432
    5MOL    H43 2051   1.594   4.513   2.515 -0.4485  0.1635 -0.6028
    5MOL    H44 2052   1.638   4.446   2.369 -1.1878 -1.7400 -0.4981
    5MOL    H45 2053   1.502   4.560   2.240  0.8977 -0.5580  0.8158
    5MOL    H46 2054   1.384   4.599   2.358  0.0175 -2.3118  2.0845
    5MOL    H47 2055   1.553   4.744   2.477  1.5003  1.3408  0.3107
    5MOL    H48 2056   1.665   4.727   2.362  0.7870  1.1483 -0.4961
    5MOL    H49 2057   1.524   4.841   2.184 -0.8216  0.4523 -0.8805
    5MOL    H50 2058   1.391   4.849   2.307  0.2870 -1.1586  1.4932
    5MOL    H51 2059   1.540   4.941   2.320  2.9189 -1.1753 -0.5812
    5MOL    C52 2060   1.336   4.027   2.159  0.0622 -0.2953 -0.1098
    5MOL    C53 2061   1.288   3.970   2.025  0.2350  0.3422 -0.7934
    5MOL    O54 2062   1.292   4.092   1.948  0.4017  0.1595  0.0472
    5MOL    C55 2063   1.179   4.099   1.866 -0.4788 -0.1428 -0.0103
    5MOL    C56 2064   1.166   4.221   1.770  0.3940 -0.3194 -0.4217
    5MOL    C57 2065   1.165   4.356   1.853  0.1388  0.1077  0.4830
    5MOL    C58 2066   1.185   4.470   1.756  0.1682  0.2317  0.6096
    5MOL    C59 2067   1.202   4.606   1.833  0.3296  0.6991  0.8267
    5MOL    C60 2068   1.071   4.651   1.892  0.3597  0.4477 -0.0775
    5MOL    H61 2069   1.369   3.945   2.222 -1.3069 -1.3291 -0.7291
    5MOL    H62 2070   1.434   4.076   2.158 -0.6678  1.2034  0.3593
    5MOL    H63 2071   1.187   3.934   2.043  0.9310 -0.6788  1.2165
    5MOL    H64 2072   1.091   4.095   1.930 -2.0524 -0.5835 -2.1312
    5MOL    H65 2073   1.166   4.007   1.809 -1.1904 -0.2240  0.2872
    5MOL    H66 2074   1.067   4.225   1.725 -0.9733  0.7151  2.5032
    5MOL    H67 2075   1.242   4.229   1.693 -0.7799  0.9474 -1.4677
    5MOL    H68 2076   1.071   4.365   1.907 -0.9215  2.6821 -1.6742
    5MOL    H69 2077   1.238   4.350   1.934  0.7297  4.0839  0.3756
    5MOL    H70 2078   1.275   4.452   1.698  0.0651  0.4557  0.3776
    5MOL    H71 2079   1.098   4.466   1.690 -0.9827  2.0538  1.9607
    5MOL    H72 2080   1.281   4.596   1.907 -0.2140  1.9808  1.5987
    5MOL    H73 2081   1.236   4.683   1.764  1.5350 -0.5246  0.0138
    5MOL    H74 2082   0.988   4.668   1.823  0.7043 -0.3250 -0.6871
    5MOL    H75 2083   1.037   4.580   1.967  0.9155  0.6256  0.3491
    5MOL    H76 2084   1.091   4.744   1.946  1.1932  0.4226 -0.3400
    5MOL    C77 2085   1.378   3.864   1.964 -0.2496  0.9748  0.3135
    5MOL    C78 2086   1.345   3.721   1.996  1.1016  0.2214 -0.1346
    5MOL    O79 2087   1.463   3.639   1.989  0.5613  0.6538 -0.6204
    5MOL    C80 2088   1.537   3.630   2.115  0.0505 -0.0692 -0.1951
    5MOL    C81 2089   1.659   3.542   2.115 -0.1098  0.1352 -0.1769
    5MOL    C82 2090   1.722   3.507   2.251  0.5771 -0.1063  0.2273
    5MOL    C83 2091   1.643   3.396   2.330 -0.3759 -0.6485  0.7871
    5MOL    C84 2092   1.700   3.348   2.469  0.6016  0.3373 -0.4425
    5MOL    C85 2093   1.695   3.460   2.573 -0.9337  0.6480 -0.1888
    5MOL    H86 2094   1.481   3.887   1.988  0.1052 -0.6410  0.4092
    5MOL    H87 2095   1.371   3.871   1.855  0.4164  0.3368  0.2291
    5MOL    H88 2096   1.293   3.735   2.090 -3.5031 -0.0194 -2.5199
    5MOL    H89 2097   1.469   3.607   2.196 -0.1622 -0.1899 -0.4077
    5MOL    H90 2098   1.567   3.732   2.140  1.6814 -0.6153  0.1632
    5MOL    H91 2099   1.733   3.586   2.048  1.2940 -1.2640  0.4141
    5MOL    H92 2100   1.624   3.455   2.060  2.0135 -0.4812 -0.5852
    5MOL    H93 2101   1.826   3.484   2.231  0.8679  0.5415  0.9478
    5MOL    H94 2102   1.730   3.587   2.325  1.0207 -1.0959  1.2609
    5MOL    H95 2103   1.537   3.421   2.337 -0.8953 -1.8032 -2.2003
    5MOL    H96 2104   1.649   3.308   2.266  1.2806 -0.4484  0.6599
    5MOL    H97 2105   1.643   3.261   2.504  1.0364 -0.1862 -1.0427
    5MOL    H98 2106   1.799   3.306   2.458  1.5018  1.4229  2.9284
    5MOL    H99 2107   1.687   3.414   2.671  2.2696  0.8168  0.2125
    5MOL   H100 2108   1.792   3.509   2.581 -0.2754 -0.4605 -1.2120
    5MOL   H101 2109   1.622   3.541   2.570 -0.5520  0.9765 -0.7638
    5MOL   C102 2110   1.237   3.658   1.902 -0.5296 -1.1973  0.0034
    5MOL   C103 2111   1.160   3.530   1.951  0.2676  0.5014 -0.2487
    5MOL   O104 2112   1.050   3.588   2.030 -0.2635  0.0117  0.1395
    5MOL   C105 2113   1.060   3.579   2.173 -0.8811  1.0636 -0.0782
    5MOL   C106 2114   0.946   3.656   2.237 -0.8062 -0.8849  0.1844
    5MOL   C107 2115   0.813   3.592   2.204 -0.4103 -0.0085  0.6125
    5MOL   C108 2116   0.703   3.653   2.287  0.1088 -0.8873  0.2247
    5MOL   C109 2117   0.563   3.621   2.228 -0.8474  0.5842 -0.2610
    5MOL   C110 2118   0.456   3.675   2.319 -0.2651  0.7192 -0.6983
    5MOL   H111 2119   1.160   3.729   1.872  1.2641  0.8146  0.0852
    5MOL   H112 2120   1.293   3.616   1.819 -1.2044 -0.7550 -0.6842
    5MOL   H113 2121   1.222   3.463   2.010 -0.3368  1.3852  1.4354
    5MOL   H114 2122   1.158   3.612   2.207 -0.3690  0.8680 -1.3365
    5MOL   H115 2123   1.051   3.474   2.204  1.9833  0.5386 -0.8587
    5MOL   H116 2124   0.956   3.759   2.203  2.1686 -0.5805  1.8256
    5MOL   H117 2125   0.954   3.649   2.346 -0.0455  1.5250  0.3134
    5MOL   H118 2126   0.790   3.596   2.097  2.6702  0.3723 -0.0767
    5MOL   H119 2127   0.821   3.487   2.230 -0.5620  0.5106  2.7922
    5MOL   H120 2128   0.706   3.623   2.392  2.2646  1.0297  0.7528
    5MOL   H121 2129   0.711   3.760   2.306  2.1155 -0.8532 -0.7102
    5MOL   H122 2130   0.563   3.669   2.130 -3.2346 -0.5791 -0.8675
    5MOL   H123 2131   0.552   3.513   2.217 -0.5915  0.5436 -0.1202
    5MOL   H124 2132   0.355   3.641   2.296 -0.4711 -1.0159  2.4943
    5MOL   H125 2133   0.475   3.639   2.420 -0.7259  0.8283 -0.5697
    5MOL   H126 2134   0.462   3.784   2.328  0.7268  0.6746 -0.7851
    5MOL   C127 2135   1.101   3.450   1.829  0.2913  0.2777  0.3576
    5MOL   C128 2136   1.053   3.306   1.842  0.0803 -0.0175  0.8394
    5MOL   O129 2137   1.005   3.266   1.709 -0.0989  0.1870 -0.2456
    5MOL   C130 2138   1.098   3.194   1.628  0.4100  0.3425 -0.0031
    5MOL   C131 2139   1.092   3.045   1.648  0.7829  0.4094  0.0164
    5MOL   C132 2140   1.178   2.965   1.550  0.7899 -0.2470 -0.7354
    5MOL   C133 2141   1.190   2.821   1.596  0.8293  0.3965 -0.4223
    5MOL   C134 2142   1.300   2.800   1.695 -0.2996  0.2148  0.3876
    5MOL   C135 2143   1.296   2.679   1.779 -0.3172  0.5463  0.4215
    5MOL   H136 2144   1.020   3.507   1.783 -1.3172  1.1527  4.0752
    5MOL   H137 2145   1.179   3.444   1.753 -2.4806 -0.0737 -2.5208
    5MOL   H138 2146   1.127   3.240   1.885 -1.4401 -2.6392 -0.3860
    5MOL   H139 2147   1.197   3.234   1.651 -0.4358  0.9740  2.7133
    5MOL   H140 2148   1.075   3.215   1.524 -0.2918 -1.3772 -0.1989
    5MOL   H141 2149   0.986   3.020   1.652  0.4764  1.7551  0.7117
    5MOL   H142 2150   1.123   3.026   1.750 -3.4100 -2.0365  0.9614
    5MOL   H143 2151   1.129   2.974   1.453 -1.0692 -1.5122  0.0634
    5MOL   H144 2152   1.274   3.014   1.533  0.2361  0.9429 -0.4787
    5MOL   H145 2153   1.101   2.788   1.650  1.3997  1.8411  1.4958
    5MOL   H146 2154   1.198   2.754   1.511 -0.0395 -0.5097  0.1877
    5MOL   H147 2155   1.396   2.791   1.644 -1.2738  0.6127 -1.5584
    5MOL   H148 2156   1.305   2.890   1.758 -3.1391  1.7470 -1.4684
    5MOL   H149 2157   1.294   2.596   1.709  0.6892  1.5792 -0.8500
    5MOL   H150 2158   1.385   2.664   1.841  1.3993 -0.7983 -2.2559
    5MOL   H151 2159   1.205   2.690   1.839 -0.6532 -0.8062  0.1697
    5MOL   C152 2160   0.927   3.299   1.931 -0.3854  0.1407 -0.0772
    5MOL   C153 2161   0.869   3.156   1.944 -0.0000 -1.0521 -0.1525
    5MOL   O154 2162   0.908   3.105   2.074  0.2488 -0.0445  0.2326
    5MOL   C155 2163   1.015   3.008   2.078 -0.2112  0.2976  0.2597
    5MOL   C156 2164   1.070   2.955   2.207 -0.5025 -0.1127  0.6326
    5MOL   C157 2165   0.979   2.859   2.274  0.6450 -0.0027  0.4169
    5MOL   C158 2166   1.040   2.811   2.406 -0.9252  0.7557 -0.0008
    5MOL   C159 2167   0.969   2.691   2.465  0.4938  0.4403  0.1132
    5MOL   C160 2168   0.838   2.731   2.533 -0.4814  0.0925 -0.5203
    5MOL   H161 2169   0.945   3.334   2.032  0.5963  1.2231 -0.6206
    5MOL   H162 2170   0.866   3.370   1.874  2.3019  0.9123 -2.1195
    5MOL   H163 2171   0.902   3.092   1.862 -1.7267  0.1332 -1.8008
    5MOL   H164 2172   1.099   3.062   2.033  1.5957 -1.3646  1.5269
    5MOL   H165 2173   0.995   2.931   2.003  0.4880 -1.2651  1.6334
    5MOL   H166 2174   1.085   3.050   2.259  1.1778  0.4041 -0.7705
    5MOL   H167 2175   1.162   2.899   2.192  1.7302  2.9642  2.1164
    5MOL   H168 2176   0.885   2.907   2.303 -0.5039 -0.8868 -1.7313
    5MOL   H169 2177   0.963   2.766   2.218  1.1609  0.7834 -1.0632
    5MOL   H170 2178   1.145   2.783   2.399 -1.4758 -1.3372 -0.1668
    5MOL   H171 2179   1.045   2.887   2.484 -1.8200  0.5299  0.2829
    5MOL   H172 2180   0.962   2.606   2.398  0.0858  1.3522 -1.0225
    5MOL   H173 2181   1.039   2.665   2.545  2.1506  0.2749 -1.3644
    5MOL   H174 2182   0.848   2.796   2.619 -0.2953 -0.4562 -0.1210
    5MOL   H175 2183   0.776   2.774   2.454 -1.2091 -0.5348 -0.2948
    5MOL   H176 2184   0.786   2.639   2.560 -1.3728  0.5115 -0.8214
    5MOL   C177 2185   0.713   3.161   1.948 -0.2056  0.4267 -0.0599
    5MOL   C178 2186   0.651   3.019   1.971  0.2822 -0.1489  0.1208
    5MOL   O179 2187   0.511   3.025   1.970  0.2857  0.2340 -0.1865
    5MOL   C180 2188   0.435   3.079   2.078 -0.1592 -0.0049 -0.3733
    5MOL   C181 2189   0.457   3.009   2.219  0.0373  0.0798 -0.0105
    5MOL   C182 2190   0.376   3.057   2.339  0.3643 -0.5825  0.2263
    5MOL   C183 2191   0.375   2.964   2.463  0.1633 -0.0028  0.5599
    5MOL   C184 2192   0.309   2.826   2.450  0.0944 -0.0966 -0.1893
    5MOL   C185 2193   0.298   2.751   2.582  0.3010 -0.2400  0.5694
    5MOL   H186 2194   0.679   3.228   2.027  1.8919 -0.0876  1.3366
    5MOL   H187 2195   0.663   3.209   1.864 -0.4833  0.4036  0.0912
    5MOL   H188 2196   0.686   2.985   2.069  1.0623  0.5227  0.0888
    5MOL   H189 2197   0.333   3.047   2.056  0.1514 -2.7409  1.8455
    5MOL   H190 2198   0.437   3.187   2.087 -2.4151  0.0084  0.1519
    5MOL   H191 2199   0.562   3.007   2.247 -0.0979  0.1721  0.5100
    5MOL   H192 2200   0.427   2.906   2.200 -0.8377  0.1767  0.8257
    5MOL   H193 2201   0.422   3.149   2.374  0.3407 -0.9040  1.1369
    5MOL   H194 2202   0.272   3.075   2.313  0.6494  3.1879  1.4787
    5MOL   H195 2203   0.480   2.954   2.490  0.4356  1.0024 -0.1140
    5MOL   H196 2204   0.329   3.016   2.547 -2.0278  3.5494 -2.7058
    5MOL   H197 2205   0.211   2.844   2.405  0.9721 -0.1184 -2.1792
    5MOL   H198 2206   0.357   2.769   2.371  1.3940  0.1161  0.4313
    5MOL   H199 2207   0.281   2.645   2.567  2.5821 -0.6085  0.2857
    5MOL   H200 2208   0.389   2.761   2.641 -0.5326  1.3407  1.6418
    5MOL   H201 2209   0.224   2.792   2.650  1.2784 -0.4189  1.7692
    5MOL   C202 2210   0.685   2.911   1.866  0.4548 -0.0725 -0.4881
    5MOL   C203 2211   0.616   2.778   1.895 -0.3530  0.0547 -0.7702
    5MOL   O204 2212   0.686   2.705   1.995  0.1188  0.0848  1.0663
    5MOL   C205 2213   0.605   2.673   2.111 -0.2845  0.2774 -0.0569
    5MOL   C206 2214   0.686   2.571   2.194 -0.5729  0.0583 -0.1830
    5MOL   C207 2215   0.605   2.540   2.322  0.1968  0.2473 -0.0802
    5MOL   C208 2216   0.637   2.407   2.398  0.5637  0.4917  1.1111
    5MOL   C209 2217   0.530   2.368   2.504 -0.1447  0.0413 -0.3774
    5MOL   C210 2218   0.553   2.430   2.646 -0.0608  0.2342 -0.1705
    5MOL   H211 2219   0.659   2.948   1.767 -1.7312  0.9526  0.4518
    5MOL   H212 2220   0.793   2.891   1.866  0.1723 -1.6586 -0.6549
    5MOL   H213 2221   0.516   2.803   1.931 -0.0684 -0.7537  0.6417
    5MOL   H214 2222   0.512   2.637   2.067 -2.0869  6.0439 -1.3883
    5MOL   H215 2223   0.601   2.769   2.162  0.2334 -0.1880  0.8714
    5MOL   H216 2224   0.784   2.608   2.223 -0.2588 -0.6943 -0.2759
    5MOL   H217 2225   0.688   2.481   2.133 -1.9157 -0.6738  0.8347
    5MOL   H218 2226   0.631   2.622   2.388 -0.9839  2.3767 -2.1971
    5MOL   H219 2227   0.497   2.535   2.309  0.2535 -3.3988  0.3051
    5MOL   H220 2228   0.631   2.328   2.324 -1.3714  0.9008  0.8215
    5MOL   H221 2229   0.737   2.427   2.437  1.2001  1.6696 -1.0327
    5MOL   H222 2230   0.430   2.392   2.468  0.0734 -0.4025 -1.2888
    5MOL   H223 2231   0.529   2.260   2.518  0.0801  0.1362  0.4234
    5MOL   H224 2232   0.657   2.419   2.676  0.1295  0.2477 -0.8338
    5MOL   H225 2233   0.524   2.535   2.646  0.5282  0.3990 -0.0205
    5MOL   H226 2234   0.495   2.376   2.721 -0.4417 -0.1059 -0.7085
    5MOL   C227 2235   0.598   2.690   1.774 -0.2280 -0.5529 -0.6304
    5MOL   C228 2236   0.465   2.711   1.691  0.2881 -0.7278 -0.2174
    5MOL   O229 2237   0.465   2.823   1.612 -0.3626 -0.0869  0.7226
    5MOL   C230 2238   0.364   2.920   1.637 -0.0024 -0.3925 -0.4838
    5MOL   C231 2239   0.388   3.057   1.565  0.6250  0.3832  0.3128
    5MOL   C232 2240   0.522   3.120   1.589 -0.3230  0.6002 -0.4438
    5MOL   C233 2241   0.540   3.257   1.530  0.0442 -0.3306  0.4433
    5MOL   C234 2242   0.683   3.308   1.551  0.5195 -0.5661  0.2566
    5MOL   C235 2243   0.701   3.452   1.492  0.2703 -0.3084 -0.1155
    5MOL   H236 2244   0.680   2.701   1.703 -0.2213  0.9468 -0.4016
    5MOL   H237 2245   0.595   2.588   1.811 -0.4612 -0.5236 -0.5672
    5MOL   H238 2246   0.382   2.702   1.761  0.5839  0.6220  0.3250
    5MOL   H239 2247   0.344   2.930   1.744  2.7730 -0.3769  0.0724
    5MOL   H240 2248   0.272   2.874   1.601  0.3922 -0.7682 -1.0234
    5MOL   H241 2249   0.304   3.123   1.589 -1.3563  0.2431 -5.4829
    5MOL   H242 2250   0.380   3.043   1.457  0.5554 -0.0947  0.3788
    5MOL   H243 2251   0.540   3.130   1.696  1.5317  1.6082 -0.8223
    5MOL   H244 2252   0.593   3.043   1.558 -0.6479  0.1353 -0.0319
    5MOL   H245 2253   0.517   3.261   1.424  1.8009  1.6676  0.1035
    5MOL   H246 2254   0.465   3.320   1.576  0.3928  1.1891 -1.0318
    5MOL   H247 2255   0.690   3.302   1.660  1.0724  0.8049  0.3052
    5MOL   H248 2256   0.762   3.237   1.524  0.1614 -0.3414 -1.4043
    5MOL   H249 2257   0.705   3.432   1.385  1.5609  1.6660 -0.4685
    5MOL   H250 2258   0.620   3.523   1.512  0.7904  0.7967 -1.8564
    5MOL   H251 2259   0.793   3.503   1.520  1.4210 -1.9023 -0.9812
    5MOL   C252 2260   0.451   2.593   1.584  0.4332 -0.4436  0.0975
    5MOL   C253 2261   0.337   2.603   1.483  0.0178 -0.4762 -0.0424
    5MOL   O254 2262   0.296   2.471   1.436  0.0237 -0.0540  0.4417
    5MOL   C255 2263   0.173   2.437   1.492 -0.1639  0.4085 -0.4318
    5MOL   C256 2264   0.139   2.295   1.440 -0.0038  0.4589  0.5821
    5MOL   C257 2265   0.029   2.228   1.526  0.5908  1.3631  0.1580
    5MOL   C258 2266   7.771   2.089   1.479  0.2111 -0.0749 -0.7693
    5MOL   C259 2267   7.684   2.009   1.577 -0.1243 -0.2512 -0.6607
    5MOL   C260 2268   7.673   1.862   1.549 -0.6810  0.6698  0.6174
    5MOL   H261 2269   0.545   2.571   1.533  0.5047 -1.7662  0.7572
    5MOL   H262 2270   0.427   2.500   1.637 -1.4950  1.3351  2.4563
    5MOL   H263 2271   0.256   2.656   1.533  0.5842  0.4913 -0.1471
    5MOL   H264 2272   0.095   2.509   1.467 -1.1259 -0.8272 -1.0576
    5MOL   H265 2273   0.184   2.425   1.600 -1.1002 -0.3894 -0.4219
    5MOL   H266 2274   0.230   2.236   1.452  2.4697  3.6494 -1.7509
    5MOL   H267 2275   0.100   2.295   1.339 -0.6301 -1.9423  0.7807
    5MOL   H268 2276   0.056   2.225   1.632 -0.1915  0.1089  0.3272
    5MOL   H269 2277   7.714   2.287   1.527  0.8345  1.7471  0.3524
    5MOL   H270 2278   7.726   2.104   1.380 -0.6927  1.3267 -0.1647
    5MOL   H271 2279   0.088   2.043   1.452  0.2141  1.1842 -3.0571
    5MOL   H272 2280   7.727   2.025   1.676  0.4032 -0.9855 -0.7618
    5MOL   H273 2281   7.591   2.063   1.566  0.5719  0.6400 -2.4242
    5MOL   H274 2282   7.768   1.808   1.557 -0.4313  1.2030  1.2508
    5MOL   H275 2283   7.602   1.811   1.613 -1.8600  0.4715 -0.8087
    5MOL   H276 2284   7.631   1.859   1.448  0.8713  0.4376 -0.0509
    5MOL   C277 2285   0.371   2.690   1.360  0.0979  0.6713  0.0102
    5MOL   C278 2286   0.252   2.713   1.267  0.5777  0.5086  0.5233
    5MOL   O279 2287   0.161   2.807   1.334  0.4870  0.4705  0.6906
    5MOL   C280 2288   0.025   2.784   1.297  0.0397  0.0770 -0.1443
    5MOL   C281 2289   7.720   2.907   1.348 -0.0737 -0.0008  0.2773
    5MOL   C282 2290   7.764   3.042   1.289 -0.6197  0.7036  0.9808
    5MOL   C283 2291   7.661   3.154   1.306  0.1133 -0.0587 -0.2850
    5MOL   C284 2292   7.702   3.301   1.274  0.1779 -0.2806  0.0417
    5MOL   C285 2293   7.597   3.399   1.342  0.3462  0.2744  0.7675
    5MOL   H286 2294   0.408   2.791   1.381  0.8438  0.8648 -2.1049
    5MOL   H287 2295   0.447   2.627   1.313 -2.6584 -1.5701 -1.5499
    5MOL   H288 2296   0.201   2.618   1.251  0.4940  0.6527 -0.1018
    5MOL   H289 2297   7.758   2.691   1.335  0.8984 -0.0869  0.4653
    5MOL   H290 2298   0.032   2.778   1.188 -2.5236 -0.1111 -0.3431
    5MOL   H291 2299   7.730   2.905   1.457 -2.2532  0.4858  0.5050
    5MOL   H292 2300   7.615   2.902   1.321 -0.7913  2.1191  2.4703
    5MOL   H293 2301   0.079   3.062   1.343 -0.4990  0.1018  0.9984
    5MOL   H294 2302   0.019   3.020   1.188  0.4671  0.0797  1.4645
    5MOL   H295 2303   7.575   3.137   1.242  1.0231 -1.4506 -1.1497
    5MOL   H296 2304   7.620   3.145   1.407  1.9234  2.2463  0.7159
    5MOL   H297 2305   0.019   3.329   1.321 -0.4087  1.2498  0.3285
    5MOL   H298 2306   7.707   3.325   1.168 -0.6840  2.5241  0.5962
    5MOL   H299 2307   7.585   3.396   1.450 -2.5693 -0.1922  0.4543
    5MOL   H300 2308   7.626   3.503   1.325  0.7260  0.0170 -0.1965
    5MOL   H301 2309   7.498   3.384   1.299 -0.4253  1.0471  2.2605
    5MOL   C302 2310   0.298   2.762   1.127 -0.3058 -0.3921 -0.1417
    5MOL   C303 2311   0.275   2.674   1.012 -0.3823 -0.3934  0.7225
    5MOL   O304 2312   0.384   2.581   1.033  0.0053 -0.4015  0.0289
    5MOL   C305 2313   0.342   2.453   1.054 -0.0521  0.7450 -0.2539
    5MOL   C306 2314   0.468   2.372   1.037  0.1061 -0.5227 -0.3506
    5MOL   C307 2315   0.576   2.420   1.134 -0.0914 -0.5330 -0.5474
    5MOL   C308 2316   0.714   2.349   1.127 -0.1871 -0.4750  0.5190
    5MOL   C309 2317   0.710   2.198   1.162 -0.7775 -0.3691  1.0092
    5MOL   C310 2318   0.848   2.124   1.156 -0.4005  0.5688 -0.2266
    5MOL   H311 2319   0.244   2.855   1.107  1.6755  1.1726  1.5463
    5MOL   H312 2320   0.401   2.796   1.130  0.0663 -1.4382 -0.9295
    5MOL   H313 2321   0.179   2.623   1.022 -0.8800  0.3493 -0.2208
    5MOL   H314 2322   0.275   2.410   0.979 -0.4416 -0.6594  0.8572
    5MOL   H315 2323   0.303   2.448   1.155  0.1440  0.8539 -0.1731
    5MOL   H316 2324   0.518   2.373   0.940  0.6956 -0.5642 -0.0541
    5MOL   H317 2325   0.447   2.270   1.070 -0.8526  0.1032  0.9927
    5MOL   H318 2326   0.580   2.527   1.115 -0.2599 -0.3190  0.5735
    5MOL   H319 2327   0.547   2.402   1.238 -0.7219 -1.4269 -0.8630
    5MOL   H320 2328   0.763   2.367   1.032  0.5877 -0.2030  0.9642
    5MOL   H321 2329   0.786   2.395   1.195  1.1740 -1.5425 -0.1805
    5MOL   H322 2330   0.673   2.192   1.264 -0.7708  1.9314  1.1620
    5MOL   H323 2331   0.650   2.147   1.086  0.2498 -0.3632  0.1750
    5MOL   H324 2332   0.902   2.141   1.062 -1.2909 -1.7070 -1.1746
    5MOL   H325 2333   0.911   2.164   1.236 -1.8474  1.2501  0.5816
    5MOL   H326 2334   0.830   2.017   1.164 -1.8469  0.7093 -1.3326
    5MOL   C327 2335   0.301   2.740   0.879 -0.3609  0.1471 -0.1079
    5MOL   C328 2336   0.257   2.665   0.753  0.1415  0.6221  0.7498
    5MOL   O329 2337   0.341   2.548   0.737 -0.2339  0.1343 -0.2788
    5MOL   C330 2338   0.470   2.574   0.679 -0.3565 -0.5891 -0.0962
    5MOL   C331 2339   0.488   2.497   0.552 -0.6114 -0.2131  0.6562
    5MOL   C332 2340   0.393   2.537   0.440  0.1932  0.6791 -0.1027
    5MOL   C333 2341   0.396   2.426   0.332  0.1745 -1.0721  0.1424
    5MOL   C334 2342   0.278   2.460   0.233 -0.0742 -1.0833  0.8326
    5MOL   C335 2343   0.150   2.377   0.260 -0.2439 -0.5727  0.2117
    5MOL   H336 2344   0.408   2.758   0.871 -0.4884  0.8512 -0.2901
    5MOL   H337 2345   0.247   2.835   0.882 -1.2364 -0.2825 -1.4114
    5MOL   H338 2346   0.270   2.740   0.675  0.1940  0.0171  0.1743
    5MOL   H339 2347   0.551   2.539   0.743  0.2533  1.6631  0.4104
    5MOL   H340 2348   0.488   2.681   0.665  0.8902 -0.4429  2.3949
    5MOL   H341 2349   0.473   2.390   0.569 -0.5713  0.0137  2.1470
    5MOL   H342 2350   0.590   2.509   0.516 -0.1759  1.2264  2.3043
    5MOL   H343 2351   0.293   2.553   0.479  0.3101  1.6491 -0.2062
    5MOL   H344 2352   0.430   2.629   0.395  0.6060  1.3073  1.4798
    5MOL   H345 2353   0.493   2.441   0.286 -0.4173  0.6637 -0.6108
    5MOL   H346 2354   0.385   2.323   0.364  0.5425 -1.4786 -1.0394
    5MOL   H347 2355   0.254   2.567   0.237  2.3121 -0.5605  2.3844
    5MOL   H348 2356   0.310   2.443   0.130 -0.6520 -0.9686  0.6290
    5MOL   H349 2357   0.123   2.377   0.365 -0.4694  1.6262  0.1835
    5MOL   H350 2358   0.072   2.418   0.196 -0.1453  0.3822  0.6904
    5MOL   H351 2359   0.159   2.273   0.228 -1.7295 -1.7991  3.6061
    5MOL   C352 2360   0.106   2.623   0.733  0.6385  0.3604  0.4585
    5MOL   C353 2361   7.769   2.722   0.742  0.2596  0.2288  1.4099
    5MOL   O354 2362   7.757   2.783   0.872  0.7151  0.5130 -0.3078
    5MOL   C355 2363   7.746   2.923   0.870  0.2604 -1.1551  0.4882
    5MOL   C356 2364   7.638   2.984   0.959  0.0737 -0.0494  0.2339
    5MOL   C357 2365   7.507   2.980   0.895  0.3456 -0.3439 -0.3136
    5MOL   C358 2366   7.383   2.991   0.980  0.2384 -0.0206 -0.4995
    5MOL   C359 2367   7.250   2.958   0.911 -0.0355 -0.1967 -0.1102
    5MOL   C360 2368   7.137   2.967   1.011 -0.4859 -0.0457  0.2553
    5MOL   H361 2369   0.118   2.560   0.644 -0.8458 -0.0167  0.5221
    5MOL   H362 2370   0.083   2.552   0.812  1.3263  0.8586  1.1199
    5MOL   H363 2371   0.013   2.799   0.668 -0.5766  0.0588  0.9892
    5MOL   H364 2372   7.739   2.961   0.768  0.0956 -1.7680  0.2727
    5MOL   H365 2373   0.061   2.962   0.915 -0.7932 -0.5436  2.1867
    5MOL   H366 2374   7.669   3.086   0.979  0.1930  0.1162 -0.7680
    5MOL   H367 2375   7.633   2.925   1.050 -1.1035 -1.8715 -0.9654
    5MOL   H368 2376   7.500   3.066   0.828 -2.2599 -0.6895 -0.5094
    5MOL   H369 2377   7.491   2.902   0.820  1.1610  1.3205 -2.2793
    5MOL   H370 2378   7.395   2.932   1.071 -2.6180  1.9802  1.2420
    5MOL   H371 2379   7.371   3.091   1.022  3.6901  0.2994 -0.1128
    5MOL   H372 2380   7.235   3.024   0.826  1.6768  0.3353 -0.0179
    5MOL   H373 2381   7.238   2.858   0.869 -1.6949 -0.1240  0.1539
    5MOL   H374 2382   7.150   2.902   1.097  0.7412  0.0315  0.1378
    5MOL   H375 2383   7.122   3.068   1.051 -0.6107 -0.0127  0.1295
    5MOL   H376 2384   7.045   2.947   0.955 -0.4381  0.7378 -0.1154
    5MOL   C377 2385   7.639   2.655   0.697  0.1397  0.1931 -0.0881
    5MOL   C378 2386   7.629   2.590   0.565  0.1895  0.2892 -0.4369
    5MOL   O379 2387   7.618   2.693   0.465 -0.3276  0.0959  0.2257
    5MOL   C380 2388   7.722   2.681   0.373  0.0068 -0.5599 -0.0094
    5MOL   C381 2389   7.708   2.774   0.262 -0.1314  0.0434  0.3293
    5MOL   C382 2390   0.064   2.792   0.182 -0.2255  0.4420 -0.1686
    5MOL   C383 2391   0.050   2.912   0.082 -0.1809 -0.2098 -0.5251
    5MOL   C384 2392   0.174   2.945   0.002 -0.0818  0.1177  0.3632
    5MOL   C385 2393   0.201   2.843   7.670  0.0896 -0.0538 -0.0666
    5MOL   H386 2394   7.625   2.581   0.776  0.5009  1.0775  0.7982
    5MOL   H387 2395   7.566   2.736   0.702  0.3266  0.3021  0.9037
    5MOL   H388 2396   7.712   2.523   0.539 -1.8839 -2.6341  0.2799
    5MOL   H389 2397   7.715   2.583   0.325  0.2238 -1.0763  1.0049
    5MOL   H390 2398   0.042   2.691   0.421  0.6550 -0.8250 -1.2335
    5MOL   H391 2399   7.683   2.871   0.304  0.8131  0.5016 -0.1360
    5MOL   H392 2400   7.627   2.740   0.198  0.5110  1.1263 -1.0888
    5MOL   H393 2401   0.151   2.800   0.248  0.3675  0.1911 -0.9062
    5MOL   H394 2402   0.085   2.703   0.124 -1.1719  0.7654 -1.0188
    5MOL   H395 2403   7.746   2.888   0.014 -1.1898  0.6258  0.3584
    5MOL   H396 2404   0.016   2.998   0.140  0.5774 -0.2283 -0.0462
    5MOL   H397 2405   0.160   3.039   7.726  1.7720  1.7802  2.7045
    5MOL   H398 2406   0.255   2.970   0.070  0.2787 -0.7447  0.2511
    5MOL   H399 2407   0.110   2.837   7.610 -0.3412  2.7798  0.2402
    5MOL   H400 2408   0.284   2.866   7.603 -0.5699 -0.3153 -0.9764
    5MOL   H401 2409   0.215   2.750   7.725 -1.3622  1.0157  2.1881
    5MOL   C402 2410   7.500   2.505   0.548 -0.5367  0.2282  0.7182
    5MOL   C403 2411   7.518   2.369   0.624 -0.0818 -0.3028 -0.2024
    5MOL   O404 2412   7.644   2.319   0.577 -0.2200  0.0555 -0.3541
    5MOL   C405 2413   7.726   2.277   0.690 -0.0716 -0.0858  0.3072
    5MOL   C406 2414   0.087   2.259   0.637 -0.2143  0.2031  0.2145
    5MOL   C407 2415   0.183   2.196   0.739  0.4401 -0.3004 -0.7166
    5MOL   C408 2416   0.314   2.144   0.679 -0.1509 -0.1921  0.2023
    5MOL   C409 2417   0.401   2.085   0.793 -0.5113 -0.5318  0.1583
    5MOL   C410 2418   0.549   2.104   0.783 -0.1533 -0.3737 -0.7027
    5MOL   H411 2419   7.490   2.486   0.441  1.1212 -0.0101  0.5973
    5MOL   H412 2420   7.413   2.554   0.591  0.6678  1.6217  1.6419
    5MOL   H413 2421   7.510   2.384   0.732  1.6031  0.4679 -0.1579
    5MOL   H414 2422   7.681   2.185   0.728 -0.3023  0.0034  0.2445
    5MOL   H415 2423   7.730   2.353   0.768 -0.4242 -0.2534  0.4876
    5MOL   H416 2424   0.123   2.347   0.584  1.1445 -1.3508 -1.4974
    5MOL   H417 2425   0.067   2.185   0.560  0.6606  0.5056 -0.3145
    5MOL   H418 2426   0.214   2.273   0.810 -0.1897 -0.0783 -0.6859
    5MOL   H419 2427   0.140   2.114   0.796  1.2634 -0.5293 -0.4138
    5MOL   H420 2428   0.295   2.073   0.598  0.5981  2.0277 -1.9846
    5MOL   H421 2429   0.361   2.234   0.639 -1.1987  0.5630  0.6306
    5MOL   H422 2430   0.354   2.120   0.885 -1.5653 -1.3012 -0.0678
    5MOL   H423 2431   0.389   1.977   0.781  0.7752 -0.8739  1.7300
    5MOL   H424 2432   0.565   2.212   0.785 -0.9275 -0.2310 -2.0810
    5MOL   H425 2433   0.606   2.055   0.862 -0.4481 -1.1332 -0.9646
    5MOL   H426 2434   0.600   2.065   0.695  0.6584 -0.5340 -0.1685
    5MOL   C427 2435   7.392   2.285   0.594  0.8498 -0.3117  0.7338
    5MOL   C428 2436   7.377   2.149   0.672 -0.5650  0.5559 -0.1159
    5MOL   O429 2437   7.369   2.187   0.809 -0.0110  0.0599  0.0676
    5MOL   C430 2438   7.442   2.097   0.883 -0.1214 -0.1547 -0.9368
    5MOL   C431 2439   7.436   2.154   1.020 -0.2545  0.2767 -0.0343
    5MOL   C432 2440   7.544   2.257   1.028 -0.5315 -0.6215  0.3204
    5MOL   C433 2441   7.571   2.294   1.174 -0.0644 -0.6604 -0.0714
    5MOL   C434 2442   7.640   2.431   1.197 -0.4745 -1.3581  0.7879
    5MOL   C435 2443   7.759   2.453   1.101 -0.5078  0.0615 -0.3920
    5MOL   H436 2444   7.303   2.347   0.600 -0.1107 -1.6785  0.9003
    5MOL   H437 2445   7.407   2.269   0.487 -1.9909  0.4196  0.1844
    5MOL   H438 2446   7.456   2.076   0.653  0.2090  1.2293  0.4586
    5MOL   H439 2447   7.545   2.078   0.854 -0.8386 -1.2271 -2.8699
    5MOL   H440 2448   7.378   2.009   0.888  1.9595 -1.6003  2.1319
    5MOL   H441 2449   7.465   2.071   1.085  0.9787  1.7146  1.2984
    5MOL   H442 2450   7.334   2.190   1.032 -0.6398 -1.0675  0.9835
    5MOL   H443 2451   7.636   2.209   0.994 -1.9078 -3.2881  0.2130
    5MOL   H444 2452   7.508   2.339   0.967 -0.0733  0.5361  1.5791
    5MOL   H445 2453   7.489   2.267   1.241 -1.5092 -0.4220 -1.7276
    5MOL   H446 2454   7.636   2.221   1.222 -0.6757 -0.7566  0.6184
    5MOL   H447 2455   7.569   2.506   1.163  0.2117 -1.2860 -0.5265
    5MOL   H448 2456   7.666   2.455   1.300  1.3512  2.6211 -0.5077
    5MOL   H449 2457   0.071   2.427   1.159 -0.5269  0.6773 -0.0840
    5MOL   H450 2458   7.762   2.400   1.006  1.3432 -1.8593  0.6776
    5MOL   H451 2459   7.771   2.561   1.090 -0.5312  0.0278 -0.7595
    5MOL   C452 2460   7.237   2.085   0.633  0.0616  0.5520  0.6405
    5MOL   C453 2461   7.200   1.944   0.681 -0.4766  0.5679  0.3934
    5MOL   O454 2462   7.120   1.885   0.577  1.0059  0.3474 -0.6298
    5MOL   C455 2463   7.195   1.812   0.482 -0.1967 -0.0921  0.0179
    5MOL   C456 2464   7.086   1.746   0.395  0.5532 -0.3970 -0.4021
    5MOL   C457 2465   7.149   1.642   0.302 -0.1317 -0.0487  1.1744
    5MOL   C458 2466   7.081   1.634   0.162 -0.4982  0.2030  0.1993
    5MOL   C459 2467   7.135   1.504   0.094  0.1394 -0.0203  0.2099
    5MOL   C460 2468   7.048   1.472   7.746 -0.5686  0.0692  0.0646
    5MOL   H461 2469   7.162   2.156   0.668  0.2957  0.6933  0.8618
    5MOL   H462 2470   7.227   2.087   0.525  0.0210 -1.9387  0.5829
    5MOL   H463 2471   7.292   1.887   0.695 -0.3583  0.9280  1.0661
    5MOL   H464 2472   7.261   1.741   0.530  0.0456  1.4669  2.0740
    5MOL   H465 2473   7.259   1.887   0.436  2.1400 -0.9385  1.7965
    5MOL   H466 2474   7.039   1.816   0.327 -1.6692 -1.0537  0.4139
    5MOL   H467 2475   7.012   1.693   0.455  1.0006 -0.3673  0.1945
    5MOL   H468 2476   7.255   1.657   0.281  0.0304 -2.8311 -0.2580
    5MOL   H469 2477   7.145   1.542   0.344 -1.8169 -0.3561  0.3239
    5MOL   H470 2478   6.973   1.631   0.173 -0.2286  1.4449  4.0362
    5MOL   H471 2479   7.116   1.715   0.097  1.1871 -0.7799 -0.1526
    5MOL   H472 2480   7.236   1.510   0.054  0.2671  0.6246  0.6414
    5MOL   H473 2481   7.121   1.419   0.161 -0.0223 -0.8867 -0.8939
    5MOL   H474 2482   7.080   1.380   7.697  0.9349  1.1850 -1.0863
    5MOL   H475 2483   6.943   1.466   7.773 -0.6607  0.2603 -0.2642
    5MOL   H476 2484   7.061   1.560   7.684 -0.1639 -0.2979 -0.3746
    5MOL   C477 2485   7.107   1.952   0.807  0.9320 -0.1474 -0.9519
    5MOL   C478 2486   7.072   1.813   0.883 -0.3544  0.0590 -0.3988
    5MOL   O479 2487   7.073   1.821   1.026 -0.0334 -0.2654  0.0905
    5MOL   C480 2488   6.973   1.903   1.088 -0.9825  0.8938  0.4973
    5MOL   C481 2489   7.016   1.921   1.242  0.1566 -0.0043  0.2440
    5MOL   C482 2490   7.126   2.021   1.250 -0.3832 -0.2129 -0.1994
    5MOL   C483 2491   7.168   2.048   1.396 -0.0196  0.4472 -0.2051
    5MOL   C484 2492   7.270   2.163   1.414  0.7653  0.4661 -0.2491
    5MOL   C485 2493   7.316   2.187   1.557 -0.0600 -0.6593 -0.0720
    5MOL   H486 2494   7.151   2.008   0.889 -1.4437 -0.7863  0.8098
    5MOL   H487 2495   7.013   1.999   0.779 -0.0860 -1.3533  0.3558
    5MOL   H488 2496   6.975   1.774   0.853  1.8155 -3.2004 -3.4808
    5MOL   H489 2497   6.879   1.852   1.068  0.2049 -1.5068  0.8992
    5MOL   H490 2498   6.962   2.001   1.041  3.7948  1.2502 -0.0735
    5MOL   H491 2499   7.038   1.822   1.281  0.0229 -0.1653 -0.0874
    5MOL   H492 2500   6.925   1.951   1.294 -1.2796 -0.5460 -1.8933
    5MOL   H493 2501   7.208   1.980   1.192 -0.7766 -0.0961 -0.8396
    5MOL   H494 2502   7.101   2.114   1.200 -0.3955 -0.5717 -0.8698
    5MOL   H495 2503   7.076   2.078   1.446 -0.0296  1.3570 -0.7533
    5MOL   H496 2504   7.203   1.955   1.439 -2.7858  0.1940  1.6013
    5MOL   H497 2505   7.363   2.144   1.360  1.4424  0.1180  1.0170
    5MOL   H498 2506   7.221   2.250   1.371  1.6173  0.5249 -1.1406
    5MOL   H499 2507   7.370   2.282   1.554 -1.2557  0.0514  0.5714
    5MOL   H500 2508   7.236   2.189   1.631 -0.6294  0.3854 -0.6841
    5MOL   H501 2509   7.397   2.128   1.598  1.1997  0.6599 -0.6058
    5MOL   H502 2510   7.155   1.744   0.868 -0.1531 -0.3369  2.2744
    6MOL     C1 2511   5.459   5.816   1.064  0.7182  0.4313 -0.4382
    6MOL     C2 2512   5.591   5.842   0.998  0.1386 -0.2454 -0.8925
    6MOL     O3 2513   5.694   5.761   1.047  0.3377  0.4457 -0.4085
    6MOL     C4 2514   5.815   5.734   0.964 -0.4045  0.0699  0.8263
    6MOL     C5 2515   5.844   5.582   0.998 -0.0950 -0.2457  0.4831
    6MOL     C6 2516   5.860   5.551   1.145 -0.5186 -0.0936 -0.6557
    6MOL     C7 2517   5.869   5.404   1.172 -0.3258  0.5742  0.1193
    6MOL     C8 2518   5.906   5.389   1.317 -0.5407 -0.0475 -0.4300
    6MOL     C9 2519   5.913   5.250   1.372 -0.2156 -0.4618 -0.0362
    6MOL    H10 2520   5.417   5.717   1.050 -0.3711  0.4840  2.1584
    6MOL    H11 2521   5.462   5.830   1.172 -1.5446 -1.5082 -0.1087
    6MOL    H12 2522   5.569   5.815   0.895 -0.7355  0.0729 -0.7963
    6MOL    H13 2523   5.905   5.792   0.985  0.5456 -0.9206 -0.4798
    6MOL    H14 2524   5.792   5.754   0.859  0.7152  0.3649  0.6334
    6MOL    H15 2525   5.927   5.535   0.945  1.5440  1.4325  1.5028
    6MOL    H16 2526   5.768   5.524   0.945  1.4860 -0.5807 -1.4746
    6MOL    H17 2527   5.956   5.595   1.173 -0.9717  0.5363 -0.0754
    6MOL    H18 2528   5.778   5.589   1.205  1.1180 -0.5074  1.9450
    6MOL    H19 2529   5.768   5.364   1.165  0.0094 -0.8443  2.5252
    6MOL    H20 2530   5.930   5.342   1.108 -2.2729 -0.7618 -0.4919
    6MOL    H21 2531   5.842   5.442   1.388 -0.9218  1.2401 -1.7141
    6MOL    H22 2532   6.003   5.439   1.323  1.2632 -3.5659  2.0171
    6MOL    H23 2533   5.821   5.196   1.394 -1.1846  1.0897 -0.2175
    6MOL    H24 2534   5.969   5.182   1.308 -0.4918 -1.7980  1.1265
    6MOL    H25 2535   5.969   5.256   1.466 -1.0036 -2.1962  0.5619
    6MOL    H26 2536   5.391   5.896   1.035 -0.1962  0.3886  1.5429
    6MOL    C27 2537   5.629   5.989   1.013  0.0391  0.3126  0.3012
    6MOL    C28 2538   5.732   6.051   0.921 -0.2416 -0.2453  0.0228
    6MOL    O29 2539   5.677   6.046   0.789  0.2141 -0.3597 -0.4489
    6MOL    C30 2540   5.771   6.039   0.688  0.9047 -0.4995  0.0192
    6MOL    C31 2541   5.711   6.085   0.549  0.2985 -0.1368 -0.1532
    6MOL    C32 2542   5.711   6.231   0.528 -0.0986  0.2509 -0.8974
    6MOL    C33 2543   5.629   6.272   0.401  0.2592  0.4407  0.2131
    6MOL    C34 2544   5.675   6.406   0.327  0.1504  0.2871  0.6116
    6MOL    C35 2545   5.627   6.431   0.186  0.8325 -0.6231 -0.1805
    6MOL    H36 2546   5.537   6.047   1.003 -1.3935 -2.0479 -0.6184
    6MOL    H37 2547   5.667   6.001   1.115 -1.5440  0.2710  0.9128
    6MOL    H38 2548   5.826   5.996   0.923  0.4320  0.9296  1.6140
    6MOL    H39 2549   5.813   5.938   0.684  1.2176 -0.4642  1.9395
    6MOL    H40 2550   5.859   6.103   0.695  1.7383 -1.7808  1.6508
    6MOL    H41 2551   5.610   6.044   0.546  0.0146  0.6853 -3.1388
    6MOL    H42 2552   5.774   6.036   0.474 -0.6509 -0.5680 -0.6854
    6MOL    H43 2553   5.685   6.293   0.614  0.5739  1.9977 -1.9429
    6MOL    H44 2554   5.813   6.264   0.507 -0.8080  2.5180 -0.9264
    6MOL    H45 2555   5.653   6.195   0.327 -1.2797  1.9374 -1.8919
    6MOL    H46 2556   5.522   6.264   0.419 -0.0734 -1.3068 -2.2147
    6MOL    H47 2557   5.644   6.483   0.398 -3.0005 -0.2229 -0.1339
    6MOL    H48 2558   5.783   6.405   0.323  0.2851 -0.2643  3.4192
    6MOL    H49 2559   5.668   6.527   0.154  0.4309 -0.4975 -0.3343
    6MOL    H50 2560   5.649   6.343   0.127 -1.8884 -1.1810 -0.4626
    6MOL    H51 2561   5.521   6.457   0.187  0.7887 -0.7463 -1.3765
    6MOL    C52 2562   5.762   6.200   0.959  0.3111  0.5756 -0.3799
    6MOL    C53 2563   5.858   6.213   1.081 -0.1284  0.3980 -0.1065
    6MOL    O54 2564   5.991   6.223   1.021  0.3748  0.1399  0.1863
    6MOL    C55 2565   6.097   6.194   1.108  0.5132 -0.3332 -0.3517
    6MOL    C56 2566   6.120   6.047   1.103 -0.1666 -0.0296  0.3779
    6MOL    C57 2567   6.241   6.012   1.188  0.8780  0.2856 -0.0738
    6MOL    C58 2568   6.272   5.864   1.193  0.0847 -0.1338 -0.1990
    6MOL    C59 2569   6.407   5.833   1.260 -0.1444  0.0648  0.5519
    6MOL    C60 2570   6.399   5.871   1.407  0.4579 -0.4634 -0.4374
    6MOL    H61 2571   5.665   6.247   0.975 -1.4340 -2.1691 -2.4451
    6MOL    H62 2572   5.800   6.256   0.874 -1.1707  0.2146 -1.2956
    6MOL    H63 2573   5.851   6.118   1.134  0.4771  0.9772  1.0618
    6MOL    H64 2574   6.072   6.238   1.205  0.6033 -1.5344  0.2305
    6MOL    H65 2575   6.179   6.261   1.085 -1.3482  3.0748  2.3952
    6MOL    H66 2576   6.133   6.020   0.998 -0.9010  0.5459  0.1342
    6MOL    H67 2577   6.026   6.001   1.135 -1.1605  0.5426 -1.5817
    6MOL    H68 2578   6.332   6.064   1.156  2.0149 -2.4211 -1.3542
    6MOL    H69 2579   6.224   6.038   1.293  1.3714 -1.3269  0.4083
    6MOL    H70 2580   6.192   5.812   1.246  2.3237 -3.3449  0.1917
    6MOL    H71 2581   6.274   5.821   1.093  1.0376  1.9278 -1.0836
    6MOL    H72 2582   6.421   5.725   1.250 -1.1604  0.1112 -1.6817
    6MOL    H73 2583   6.491   5.887   1.217 -1.3809  0.7628 -1.0290
    6MOL    H74 2584   6.310   5.826   1.450 -2.6496  2.3737 -3.6439
    6MOL    H75 2585   6.489   5.851   1.466  0.5005 -0.2440 -0.4251
    6MOL    H76 2586   6.368   5.974   1.422 -2.0726 -1.1599 -0.6672
    6MOL    C77 2587   5.832   6.348   1.158  0.3414  0.0256 -0.0102
    6MOL    C78 2588   5.694   6.359   1.232 -1.3751  0.3237  0.2412
    6MOL    O79 2589   5.680   6.498   1.264  0.6794  0.3974  0.3965
    6MOL    C80 2590   5.607   6.576   1.166  0.5442 -0.3868  0.2362
    6MOL    C81 2591   5.575   6.713   1.225 -0.0936 -0.3175  0.3274
    6MOL    C82 2592   5.505   6.707   1.368 -0.2834  0.0495  0.3419
    6MOL    C83 2593   5.464   6.832   1.439  0.1911  0.4153 -0.2164
    6MOL    C84 2594   5.375   6.800   1.564  0.1030  0.2812 -0.0411
    6MOL    C85 2595   5.455   6.764   1.698  0.2729 -0.1325 -0.1379
    6MOL    H86 2596   5.844   6.440   1.101  1.9361  1.8064  3.0721
    6MOL    H87 2597   5.915   6.377   1.222  2.5334  1.6338 -3.4232
    6MOL    H88 2598   5.619   6.333   1.157  0.2065 -0.5846 -1.0542
    6MOL    H89 2599   5.513   6.525   1.146 -0.0288  0.5700  0.4506
    6MOL    H90 2600   5.665   6.580   1.073  0.3646  0.5117  0.1587
    6MOL    H91 2601   5.512   6.767   1.154  1.1599 -1.3264 -1.6208
    6MOL    H92 2602   5.671   6.764   1.231 -1.1981  1.6462  1.8508
    6MOL    H93 2603   5.416   6.649   1.343  0.9344 -1.2826 -1.0327
    6MOL    H94 2604   5.565   6.641   1.431 -0.5178 -0.9788 -0.5013
    6MOL    H95 2605   5.543   6.900   1.470 -0.2738  0.3044  1.2297
    6MOL    H96 2606   5.410   6.894   1.368 -0.7455  1.9327  1.7693
    6MOL    H97 2607   5.317   6.890   1.579 -1.9780 -1.4535  2.7868
    6MOL    H98 2608   5.302   6.721   1.548  1.2833 -0.6708 -0.8621
    6MOL    H99 2609   5.531   6.838   1.723  1.7164 -2.0502  1.3151
    6MOL   H100 2610   5.388   6.753   1.783  0.7525  0.2019  0.2916
    6MOL   H101 2611   5.508   6.669   1.691 -0.2294 -0.3015 -1.9461
    6MOL   C102 2612   5.664   6.280   1.360 -0.1287  0.2103 -0.7443
    6MOL   C103 2613   5.515   6.276   1.405 -0.1349 -0.5493  0.1508
    6MOL   O104 2614   5.439   6.188   1.323 -0.0155 -0.0481  0.3507
    6MOL   C105 2615   5.326   6.246   1.255  0.5268 -0.1677  0.1026
    6MOL   C106 2616   5.265   6.158   1.152  0.1361  0.6089  0.0466
    6MOL   C107 2617   5.175   6.050   1.209  0.0466 -0.3362 -0.3809
    6MOL   C108 2618   5.097   5.976   1.102 -0.5343  0.2084  0.6236
    6MOL   C109 2619   5.008   5.867   1.170 -0.3578 -0.6209  0.9525
    6MOL   C110 2620   4.868   5.904   1.218 -0.2180  0.0280  0.3598
    6MOL   H111 2621   5.699   6.177   1.350  1.1659  0.6401 -0.7487
    6MOL   H112 2622   5.736   6.317   1.433  1.4323 -2.3182 -0.9366
    6MOL   H113 2623   5.472   6.376   1.408  0.4448 -0.2146 -1.8242
    6MOL   H114 2624   5.348   6.342   1.210  0.8343 -0.7431 -1.0037
    6MOL   H115 2625   5.254   6.253   1.336 -1.2017 -0.2660 -1.3719
    6MOL   H116 2626   5.341   6.102   1.097 -1.1199 -2.8123  1.6318
    6MOL   H117 2627   5.219   6.220   1.075  1.0444 -0.3497 -1.2815
    6MOL   H118 2628   5.231   5.983   1.275 -0.8939 -2.0579 -1.2910
    6MOL   H119 2629   5.093   6.086   1.271 -1.9792 -1.9407 -2.0549
    6MOL   H120 2630   5.032   6.045   1.049  2.3839  1.2728 -1.7061
    6MOL   H121 2631   5.161   5.920   1.034 -1.5556  0.0343 -0.1941
    6MOL   H122 2632   4.999   5.788   1.096  0.5142 -1.5622  1.8170
    6MOL   H123 2633   5.051   5.808   1.252 -0.2377 -1.5840  0.1988
    6MOL   H124 2634   4.808   5.815   1.236 -0.7904  0.1760 -0.7445
    6MOL   H125 2635   4.875   5.967   1.306 -1.3390  0.0179  0.4596
    6MOL   H126 2636   4.819   5.968   1.144 -0.6573  0.1839  0.7870
    6MOL   C127 2637   5.513   6.224   1.545 -0.0671  0.0208  0.1521
    6MOL   C128 2638   5.381   6.193   1.616 -0.8259 -0.1840  0.4389
    6MOL   O129 2639   5.319   6.323   1.644  0.1771  0.2366 -0.1389
    6MOL   C130 2640   5.180   6.331   1.650  0.0450 -0.3112 -1.1175
    6MOL   C131 2641   5.144   6.474   1.692  0.1617  0.7221  0.5233
    6MOL   C132 2642   4.994   6.498   1.712  0.0966 -0.1054  0.6761
    6MOL   C133 2643   4.959   6.643   1.708  0.0358  0.4724  0.6084
    6MOL   C134 2644   4.809   6.656   1.726  1.0591 -0.2692 -0.0448
    6MOL   C135 2645   4.775   6.808   1.734  0.3803 -0.2745 -0.4583
    6MOL   H136 2646   5.575   6.134   1.542  1.0989  0.8253 -0.0503
    6MOL   H137 2647   5.565   6.291   1.614 -1.0133  1.1158 -0.2053
    6MOL   H138 2648   5.314   6.149   1.542 -1.1379  0.6228  0.2417
    6MOL   H139 2649   5.130   6.256   1.712  0.5573 -0.8706 -1.3662
    6MOL   H140 2650   5.146   6.313   1.548  0.7958 -0.5666 -1.3255
    6MOL   H141 2651   5.169   6.545   1.614 -1.5099  1.5646  0.7296
    6MOL   H142 2652   5.205   6.504   1.777  0.0446 -0.0494  0.8815
    6MOL   H143 2653   4.929   6.454   1.636 -1.5310  1.0817  1.3578
    6MOL   H144 2654   4.958   6.450   1.804 -0.1338 -1.4217 -0.0747
    6MOL   H145 2655   5.016   6.689   1.789  0.9964 -0.3616  0.4271
    6MOL   H146 2656   4.998   6.692   1.619 -0.9412 -3.2503 -2.0299
    6MOL   H147 2657   4.770   6.616   1.633  0.3819  0.4046 -0.0566
    6MOL   H148 2658   4.780   6.595   1.812 -0.4457 -1.9043 -1.6657
    6MOL   H149 2659   4.683   6.820   1.791  0.6790  0.0479 -0.0396
    6MOL   H150 2660   4.855   6.874   1.768 -0.7005 -0.2580  2.1600
    6MOL   H151 2661   4.747   6.833   1.631  0.8649  0.9828 -0.2964
    6MOL   C152 2662   5.387   6.110   1.742  0.0636  0.4469 -0.0461
    6MOL   C153 2663   5.334   5.966   1.719 -0.4075 -0.2403 -0.2906
    6MOL   O154 2664   5.435   5.918   1.631 -0.2424  0.0607  0.3331
    6MOL   C155 2665   5.386   5.841   1.523 -0.6756  0.0539 -0.0697
    6MOL   C156 2666   5.491   5.747   1.484 -0.0795  0.0135  0.1728
    6MOL   C157 2667   5.515   5.641   1.590 -0.4653 -0.5013  0.1908
    6MOL   C158 2668   5.641   5.551   1.585  0.8545  0.0574 -0.5793
    6MOL   C159 2669   5.655   5.457   1.705  0.1896 -0.0865 -0.1581
    6MOL   C160 2670   5.757   5.346   1.668  0.8210  0.1328 -0.2870
    6MOL   H161 2671   5.491   6.099   1.774  0.2701  0.0206 -0.8306
    6MOL   H162 2672   5.328   6.156   1.821  0.2949 -1.1910  1.1091
    6MOL   H163 2673   5.240   5.965   1.664  0.6888  1.0428 -2.2827
    6MOL   H164 2674   5.369   5.900   1.433 -2.0607  3.7346  2.4614
    6MOL   H165 2675   5.302   5.775   1.543 -0.5676  0.1839  0.8171
    6MOL   H166 2676   5.577   5.814   1.473  0.5182 -0.1652  3.3078
    6MOL   H167 2677   5.487   5.706   1.383  2.8220 -3.8202  1.5096
    6MOL   H168 2678   5.517   5.685   1.690  0.8141 -0.8887  0.3445
    6MOL   H169 2679   5.428   5.576   1.589 -2.6727  2.3628 -2.1411
    6MOL   H170 2680   5.637   5.500   1.489  0.0750  0.6131 -0.8450
    6MOL   H171 2681   5.731   5.610   1.604  2.0703 -1.8318 -0.3712
    6MOL   H172 2682   5.676   5.512   1.797  0.5065 -2.1287  1.0255
    6MOL   H173 2683   5.561   5.408   1.731  1.9416 -3.3918  0.1978
    6MOL   H174 2684   5.781   5.267   1.738 -1.0956  1.0076  1.4232
    6MOL   H175 2685   5.720   5.298   1.577  0.9724 -1.3657  0.4368
    6MOL   H176 2686   5.851   5.391   1.636 -0.4660  0.7526 -3.3362
    6MOL   C177 2687   5.340   5.877   1.852  0.9001 -0.3872  0.0544
    6MOL   C178 2688   5.216   5.789   1.887 -0.3072 -0.3615 -0.6783
    6MOL   O179 2689   5.103   5.868   1.917 -0.1187  0.3935 -0.5179
    6MOL   C180 2690   5.084   5.888   2.053  0.3886  0.0514 -0.0277
    6MOL   C181 2691   4.954   5.969   2.075  0.2313 -0.0322 -0.1511
    6MOL   C182 2692   4.933   6.101   1.994  0.1863  0.0808  0.0351
    6MOL   C183 2693   4.794   6.167   2.019 -0.3654 -0.0626  0.1533
    6MOL   C184 2694   4.784   6.313   1.974 -0.2179 -0.1459  0.1217
    6MOL   C185 2695   4.658   6.367   2.016  0.1380  0.9984 -0.5558
    6MOL   H186 2696   5.424   5.807   1.842  2.0153  0.9749 -0.2796
    6MOL   H187 2697   5.349   5.937   1.942 -0.1858  2.0451 -1.4288
    6MOL   H188 2698   5.243   5.729   1.974 -1.6269  1.9457  1.3636
    6MOL   H189 2699   5.167   5.933   2.108  0.4625  2.1979 -1.8145
    6MOL   H190 2700   5.061   5.793   2.102 -1.7181  0.7088  0.3079
    6MOL   H191 2701   4.951   5.991   2.182  0.2597  0.1212 -0.1815
    6MOL   H192 2702   4.865   5.910   2.052  0.3849  0.4174 -1.9416
    6MOL   H193 2703   5.011   6.162   2.041  2.1207 -2.0760 -0.2513
    6MOL   H194 2704   4.951   6.084   1.888  0.8692 -1.9363  0.4488
    6MOL   H195 2705   4.719   6.110   1.965 -0.9421  0.4371  0.4169
    6MOL   H196 2706   4.764   6.157   2.123 -4.1706  0.6861 -0.8021
    6MOL   H197 2707   4.871   6.361   2.017 -0.5122 -2.0752  3.0004
    6MOL   H198 2708   4.790   6.315   1.865 -0.4753 -1.5165  0.0694
    6MOL   H199 2709   4.589   6.289   1.983 -0.1070  1.0062 -0.0531
    6MOL   H200 2710   4.660   6.388   2.123  0.3232 -1.8160  0.0360
    6MOL   H201 2711   4.635   6.455   1.956  1.0492  0.2587 -2.0294
    6MOL   C202 2712   5.184   5.695   1.776  0.3196 -0.1105  0.2986
    6MOL   C203 2713   5.108   5.568   1.822  0.4981  0.1255 -0.6631
    6MOL   O204 2714   5.194   5.458   1.807  0.3265 -0.3067 -0.4433
    6MOL   C205 2715   5.306   5.465   1.896  0.3960  0.3591  0.4885
    6MOL   C206 2716   5.365   5.325   1.901  0.6263  0.1444 -0.3071
    6MOL   C207 2717   5.279   5.237   1.984  0.2301  0.4551 -0.3962
    6MOL   C208 2718   5.324   5.084   1.981  0.2639 -0.3158 -0.2529
    6MOL   C209 2719   5.461   5.048   2.046 -0.0814 -0.2575 -0.1973
    6MOL   C210 2720   5.514   4.911   2.016 -0.2180  0.0006  0.4818
    6MOL   H211 2721   5.133   5.756   1.702  0.4235  0.6319  0.8270
    6MOL   H212 2722   5.280   5.671   1.730 -0.1147 -1.6541  0.1645
    6MOL   H213 2723   5.080   5.584   1.926  3.0076  1.4783 -0.1482
    6MOL   H214 2724   5.284   5.502   1.996 -1.2825 -0.3462  0.3924
    6MOL   H215 2725   5.391   5.528   1.868 -0.1089  1.2042  0.8213
    6MOL   H216 2726   5.465   5.324   1.944  0.4121 -1.6074  0.1943
    6MOL   H217 2727   5.376   5.282   1.801 -1.4597  0.4766 -0.7082
    6MOL   H218 2728   5.272   5.275   2.086  1.4857 -0.7274  0.1590
    6MOL   H219 2729   5.175   5.249   1.954 -0.4852  3.7669  3.0470
    6MOL   H220 2730   5.259   5.028   2.048  1.8091 -1.0545  0.6592
    6MOL   H221 2731   5.319   5.044   1.880 -0.7841 -1.0568  0.0944
    6MOL   H222 2732   5.537   5.108   1.996 -1.8577  1.3288 -1.0978
    6MOL   H223 2733   5.464   5.060   2.154 -2.9470 -0.9656 -0.0035
    6MOL   H224 2734   5.448   4.827   2.038  1.0138 -0.7797  1.2217
    6MOL   H225 2735   5.547   4.896   1.913 -2.0615  1.1397 -0.2957
    6MOL   H226 2736   5.599   4.893   2.082 -0.9538 -0.6046  1.2827
    6MOL   C227 2737   4.985   5.522   1.745  0.6351 -0.0159 -0.5794
    6MOL   C228 2738   4.896   5.424   1.820  0.0788  0.8403 -1.8419
    6MOL   O229 2739   4.826   5.505   1.912 -0.0009  0.4194  0.0643
    6MOL   C230 2740   4.759   5.434   2.008  0.6705  0.0829 -0.3813
    6MOL   C231 2741   4.740   5.533   2.120  0.2856 -0.0744 -0.5731
    6MOL   C232 2742   4.590   5.560   2.146 -0.0280  0.6594  0.3180
    6MOL   C233 2743   4.564   5.672   2.246 -0.5750 -0.2807  0.1596
    6MOL   C234 2744   4.416   5.674   2.296  0.0261  0.2766 -0.3448
    6MOL   C235 2745   4.400   5.767   2.418  0.3771  0.4207 -0.0543
    6MOL   H236 2746   4.926   5.612   1.725  0.5158 -0.4632 -2.3601
    6MOL   H237 2747   5.013   5.482   1.647 -1.3056 -1.5588 -0.5288
    6MOL   H238 2748   4.973   5.358   1.861 -1.8872  1.0411  2.4538
    6MOL   H239 2749   4.821   5.355   2.051  0.0511  0.9176  2.1658
    6MOL   H240 2750   4.666   5.383   1.986  0.0359  0.8269  0.5627
    6MOL   H241 2751   4.791   5.628   2.106  0.7756 -0.3925 -0.9259
    6MOL   H242 2752   4.776   5.489   2.213  0.0080 -2.1239 -1.4159
    6MOL   H243 2753   4.554   5.597   2.049 -0.5652  0.1311  0.3138
    6MOL   H244 2754   4.544   5.464   2.170  2.5615 -0.0531  2.6297
    6MOL   H245 2755   4.638   5.657   2.324  0.5463  2.4656 -0.3273
    6MOL   H246 2756   4.592   5.772   2.213 -2.0048  0.0700 -0.0514
    6MOL   H247 2757   4.347   5.701   2.216 -1.6938 -1.0919  0.6569
    6MOL   H248 2758   4.378   5.579   2.334 -0.8075  0.8632  0.3037
    6MOL   H249 2759   4.441   5.867   2.402 -0.1883  1.0729  2.3656
    6MOL   H250 2760   4.296   5.781   2.446 -0.8905 -5.9746 -0.8053
    6MOL   H251 2761   4.446   5.731   2.510 -2.1449 -1.5143  0.5207
    6MOL   C252 2762   4.808   5.358   1.713  0.9331  0.0697  0.7675
    6MOL   C253 2763   4.877   5.225   1.649  0.3519  0.4076 -0.0429
    6MOL   O254 2764   4.778   5.168   1.567 -0.0465  0.1102 -0.5881
    6MOL   C255 2765   4.783   5.225   1.436 -0.3958 -0.2418 -0.1848
    6MOL   C256 2766   4.684   5.165   1.336 -0.0986 -0.1384  0.0127
    6MOL   C257 2767   4.696   5.018   1.314  0.7947 -0.0072  0.2252
    6MOL   C258 2768   4.581   4.971   1.217  0.3970  0.2499  0.8159
    6MOL   C259 2769   4.603   4.824   1.194 -0.0813 -0.6602  0.8180
    6MOL   C260 2770   4.520   4.756   1.082  0.0646  0.4660 -0.5470
    6MOL   H261 2771   4.717   5.320   1.759 -0.0640 -1.9447 -2.6959
    6MOL   H262 2772   4.793   5.434   1.637  1.5056 -0.3653  0.2061
    6MOL   H263 2773   4.969   5.257   1.599 -0.7367  1.2882 -1.5219
    6MOL   H264 2774   4.884   5.201   1.403 -0.5762  1.8162 -2.3550
    6MOL   H265 2775   4.792   5.333   1.428 -1.9725 -0.1985 -1.5029
    6MOL   H266 2776   4.687   5.207   1.236  1.3326  0.1292  0.1495
    6MOL   H267 2777   4.587   5.193   1.376  0.1364 -0.6223  0.9403
    6MOL   H268 2778   4.795   4.992   1.275  0.6700  0.4441 -0.4037
    6MOL   H269 2779   4.700   4.963   1.408  2.1950  0.5438  0.5075
    6MOL   H270 2780   4.491   4.999   1.272  0.5950 -2.0400  2.3881
    6MOL   H271 2781   4.575   5.030   1.126 -1.0454 -0.5369  0.3821
    6MOL   H272 2782   4.707   4.808   1.165  0.3388 -0.1177  2.0072
    6MOL   H273 2783   4.591   4.782   1.294  1.5791 -1.1331  0.8264
    6MOL   H274 2784   4.527   4.800   0.982 -0.6197  3.4637  0.6717
    6MOL   H275 2785   4.539   4.649   1.078 -0.6588  0.3447 -0.9040
    6MOL   H276 2786   4.414   4.760   1.110 -0.1525 -1.0890 -1.1105
    6MOL   C277 2787   4.896   5.113   1.755  0.4573 -0.5715  0.6895
    6MOL   C278 2788   4.994   5.007   1.707  0.0223 -0.0033  0.2531
    6MOL   O279 2789   5.125   5.066   1.693 -0.0633 -0.1928 -1.0063
    6MOL   C280 2790   5.198   5.015   1.584  0.4024  0.1712  0.0484
    6MOL   C281 2791   5.340   5.079   1.570  0.4294  0.0064  0.7073
    6MOL   C282 2792   5.403   5.036   1.442 -0.5328 -0.0347 -0.0960
    6MOL   C283 2793   5.555   5.054   1.459  0.3723  0.0559 -0.1315
    6MOL   C284 2794   5.614   4.920   1.513 -0.2957 -0.5343 -0.6172
    6MOL   C285 2795   5.765   4.930   1.516 -0.2935  0.3175  0.3747
    6MOL   H286 2796   4.920   5.147   1.855 -0.4857  1.0045  0.4036
    6MOL   H287 2797   4.802   5.062   1.775 -0.3928  0.3990 -0.7316
    6MOL   H288 2798   4.948   4.972   1.615 -0.5475 -0.9713  0.8833
    6MOL   H289 2799   5.140   5.029   1.493 -0.9671 -0.6370  0.7786
    6MOL   H290 2800   5.211   4.907   1.592 -1.5452 -0.0188  1.0076
    6MOL   H291 2801   5.393   5.048   1.659  0.0116 -1.8474  0.3225
    6MOL   H292 2802   5.338   5.187   1.584  3.5658  0.1861  0.0978
    6MOL   H293 2803   5.376   4.933   1.417 -2.0084 -0.1801  1.9134
    6MOL   H294 2804   5.353   5.100   1.370 -0.8462 -0.9915 -0.7377
    6MOL   H295 2805   5.604   5.069   1.363 -0.2842 -0.7335 -0.5915
    6MOL   H296 2806   5.574   5.133   1.532 -0.4262 -0.9180  1.1637
    6MOL   H297 2807   5.587   4.907   1.618  0.7728 -2.2137 -0.5421
    6MOL   H298 2808   5.575   4.833   1.461 -0.8438  0.0617 -1.2046
    6MOL   H299 2809   5.801   4.988   1.431  2.1963 -1.0683  0.4486
    6MOL   H300 2810   5.807   4.968   1.609  2.7938  0.2632 -0.9445
    6MOL   H301 2811   5.795   4.826   1.513 -1.1737  0.1040 -2.1304
    6MOL   C302 2812   5.000   4.891   1.810  0.2046 -0.0526  0.8567
    6MOL   C303 2813   4.879   4.795   1.810 -0.2936 -0.0203  0.2703
    6MOL   O304 2814   4.868   4.730   1.935  0.1510  0.3208 -0.0748
    6MOL   C305 2815   4.813   4.795   2.047 -0.5984  0.3450 -0.6290
    6MOL   C306 2816   4.848   4.715   2.174  0.1821 -0.6019 -0.2699
    6MOL   C307 2817   4.763   4.591   2.193  0.3307  0.9790 -0.1718
    6MOL   C308 2818   4.767   4.528   2.339 -0.0787  0.5847 -0.0116
    6MOL   C309 2819   4.700   4.398   2.343  0.1667 -0.0936  0.3297
    6MOL   C310 2820   4.722   4.318   2.469  0.1419 -0.4014 -0.4425
    6MOL   H311 2821   5.082   4.820   1.799  1.2428  1.3061 -0.3970
    6MOL   H312 2822   5.004   4.929   1.912 -1.5284 -1.2003  1.3837
    6MOL   H313 2823   4.788   4.855   1.801 -0.2035 -0.0694 -1.1429
    6MOL   H314 2824   4.712   4.834   2.037 -1.0836 -0.7739 -0.1751
    6MOL   H315 2825   4.853   4.895   2.063  1.8621 -0.4865 -1.2838
    6MOL   H316 2826   4.848   4.784   2.259  1.3406 -1.4866  0.4619
    6MOL   H317 2827   4.952   4.684   2.174 -0.3526 -2.4432  0.2758
    6MOL   H318 2828   4.662   4.611   2.157  0.4813 -0.2334 -1.2884
    6MOL   H319 2829   4.799   4.519   2.120 -2.2191  0.1499 -0.6580
    6MOL   H320 2830   4.866   4.520   2.381  0.5038  2.3531 -0.9687
    6MOL   H321 2831   4.725   4.598   2.411  0.5896  1.2968 -0.2994
    6MOL   H322 2832   4.594   4.413   2.322  0.6478  0.7910 -1.5739
    6MOL   H323 2833   4.738   4.331   2.266  0.3552  1.5970 -1.0846
    6MOL   H324 2834   4.639   4.250   2.491  1.3743 -1.5387  0.8706
    6MOL   H325 2835   4.818   4.266   2.462  0.5356  0.2336  0.1682
    6MOL   H326 2836   4.710   4.393   2.547  1.6937  0.5296 -1.0857
    6MOL   C327 2837   4.886   4.690   1.698 -0.2034 -0.2871  1.2378
    6MOL   C328 2838   4.782   4.574   1.711 -0.3475 -0.9351 -0.1064
    6MOL   O329 2839   4.647   4.612   1.719  0.5373  0.8557 -0.3244
    6MOL   C330 2840   4.590   4.701   1.617  0.3232  0.6898 -0.2514
    6MOL   C331 2841   4.459   4.765   1.665  0.1410 -0.1412  0.5206
    6MOL   C332 2842   4.486   4.856   1.783 -0.1350  0.1831  0.1188
    6MOL   C333 2843   4.364   4.919   1.842 -0.4364  0.2384  0.0091
    6MOL   C334 2844   4.388   5.039   1.937 -0.0086  0.6302 -0.5315
    6MOL   C335 2845   4.394   5.173   1.868  0.0667 -0.1627  0.1566
    6MOL   H336 2846   4.981   4.637   1.689 -0.4115 -0.4584 -0.0408
    6MOL   H337 2847   4.873   4.743   1.604  1.0604  1.7744  2.1863
    6MOL   H338 2848   4.806   4.508   1.795  0.0928 -0.7200 -0.0600
    6MOL   H339 2849   4.572   4.639   1.529  0.1636 -1.0029  0.9523
    6MOL   H340 2850   4.659   4.781   1.591  2.0261 -0.5466  0.3420
    6MOL   H341 2851   4.399   4.678   1.693 -1.2660  0.0581 -1.7292
    6MOL   H342 2852   4.415   4.813   1.577  2.0523  3.7091  1.5541
    6MOL   H343 2853   4.532   4.793   1.858 -1.2291 -2.4215 -1.3260
    6MOL   H344 2854   4.557   4.930   1.746 -0.4844  0.3251 -0.2802
    6MOL   H345 2855   4.301   4.964   1.764 -0.7164 -0.9509 -0.4587
    6MOL   H346 2856   4.308   4.837   1.886  3.3954 -2.1128  0.6711
    6MOL   H347 2857   4.301   5.049   2.002  1.7240 -2.0820  2.2698
    6MOL   H348 2858   4.473   5.013   2.000 -0.3911 -0.8195 -0.5967
    6MOL   H349 2859   4.389   5.248   1.947  1.3572  1.1057 -0.9308
    6MOL   H350 2860   4.487   5.171   1.812  1.1827 -0.2200  1.9936
    6MOL   H351 2861   4.310   5.188   1.800  1.1381  1.0312 -0.9362
    6MOL   C352 2862   4.787   4.475   1.588 -0.1648 -0.3310 -0.6529
    6MOL   C353 2863   4.701   4.350   1.602  0.5348  0.4669  0.5042
    6MOL   O354 2864   4.749   4.270   1.709  0.8834 -0.0642  0.1362
    6MOL   C355 2865   4.656   4.253   1.817  0.2765 -0.1357  0.1104
    6MOL   C356 2866   4.731   4.175   1.935 -0.0797  0.1521 -0.2683
    6MOL   C357 2867   4.727   4.024   1.915  0.1335  0.1932  0.0764
    6MOL   C358 2868   4.805   3.945   2.026 -0.4220 -0.2603  0.7704
    6MOL   C359 2869   4.837   3.804   1.981 -0.5575 -0.8163 -0.2369
    6MOL   C360 2870   4.716   3.719   1.949  0.7010  0.4226  0.5813
    6MOL   H361 2871   4.763   4.531   1.497 -0.4334  0.2792 -0.2150
    6MOL   H362 2872   4.891   4.445   1.579 -0.1761 -0.1035 -1.6066
    6MOL   H363 2873   4.593   4.365   1.609  0.5873  1.8350 -1.2764
    6MOL   H364 2874   4.561   4.209   1.786  0.0227  0.5062 -0.0291
    6MOL   H365 2875   4.636   4.356   1.848 -1.7258 -0.3691 -0.3237
    6MOL   H366 2876   4.677   4.199   2.027 -1.0023 -1.5631 -0.3406
    6MOL   H367 2877   4.829   4.208   1.968  0.0759  0.7347 -1.3140
    6MOL   H368 2878   4.622   3.999   1.910  0.0453  0.7252 -0.9398
    6MOL   H369 2879   4.774   4.003   1.818  0.4349  1.4873 -0.0657
    6MOL   H370 2880   4.902   3.988   2.049  0.1410 -0.0988 -1.8041
    6MOL   H371 2881   4.748   3.948   2.119  0.8946 -2.2208  1.6769
    6MOL   H372 2882   4.893   3.813   1.888 -0.7335  2.5184 -0.1091
    6MOL   H373 2883   4.898   3.752   2.055 -1.2928 -3.0463 -1.1916
    6MOL   H374 2884   4.650   3.701   2.034 -1.9163 -2.1479 -1.8848
    6MOL   H375 2885   4.652   3.768   1.875 -0.9144 -0.8502  1.0853
    6MOL   H376 2886   4.747   3.624   1.905  0.1818  0.6629 -0.3264
    6MOL   C377 2887   4.723   4.268   1.469 -0.1392  0.1954 -0.0503
    6MOL   C378 2888   4.636   4.303   1.339  0.4777 -0.6555 -0.0367
    6MOL   O379 2889   4.700   4.407   1.257  0.2808 -0.0920 -0.7744
    6MOL   C380 2890   4.764   4.358   1.141 -0.4702 -0.5436  0.0083
    6MOL   C381 2891   4.862   4.460   1.083 -0.4735 -0.2865 -0.6522
    6MOL   C382 2892   4.942   4.394   0.968 -0.3378 -0.8079  0.5508
    6MOL   C383 2893   5.023   4.496   0.877 -0.8235  0.1101 -0.4978
    6MOL   C384 2894   5.076   4.448   0.745 -0.3517 -0.6118 -0.0391
    6MOL   C385 2895   5.073   4.562   0.638  0.2678 -0.5174  0.0402
    6MOL   H386 2896   4.825   4.250   1.434 -0.4640 -2.5321  0.3495
    6MOL   H387 2897   4.695   4.167   1.496 -0.8502 -0.4042 -2.8201
    6MOL   H388 2898   4.630   4.206   1.289  0.2859  0.4329 -2.1987
    6MOL   H389 2899   4.689   4.322   1.070 -1.6285 -0.9423  1.4164
    6MOL   H390 2900   4.809   4.265   1.174 -0.6369 -0.0450  1.6488
    6MOL   H391 2901   4.926   4.481   1.168 -1.0850 -3.0368  0.5349
    6MOL   H392 2902   4.814   4.558   1.070 -0.9852 -0.6454 -1.5650
    6MOL   H393 2903   5.018   4.324   1.004  1.1503  0.8923  0.8161
    6MOL   H394 2904   4.866   4.350   0.903 -0.9528  0.0536  0.6709
    6MOL   H395 2905   4.954   4.578   0.855 -1.0701 -0.3020 -1.3007
    6MOL   H396 2906   5.106   4.535   0.935 -0.4208 -3.3808  1.4051
    6MOL   H397 2907   5.174   4.402   0.757 -0.2888 -0.8119 -1.2832
    6MOL   H398 2908   5.016   4.372   0.694 -1.0286  0.9208 -1.5933
    6MOL   H399 2909   5.122   4.655   0.665  0.2673  0.0024 -1.6960
    6MOL   H400 2910   5.104   4.520   0.542  1.3935  0.8140 -0.1840
    6MOL   H401 2911   4.975   4.609   0.630  1.5382  2.0488 -1.0307
    6MOL   C402 2912   4.492   4.346   1.380  0.2932  0.2717  0.6403
    6MOL   C403 2913   4.407   4.352   1.252 -0.5629 -0.9485 -0.0536
    6MOL   O404 2914   4.276   4.399   1.304  0.1332  0.3221  0.5269
    6MOL   C405 2915   4.231   4.530   1.286  0.2391 -0.0401 -0.3725
    6MOL   C406 2916   4.101   4.552   1.360  0.0555 -0.1819 -0.2078
    6MOL   C407 2917   4.128   4.591   1.502  0.6435 -0.0696  0.8269
    6MOL   C408 2918   3.999   4.611   1.584  0.2872 -0.1716 -0.2729
    6MOL   C409 2919   4.027   4.616   1.739  0.1154  0.0132 -0.7669
    6MOL   C410 2920   3.898   4.656   1.809  0.0365  0.2219 -0.2496
    6MOL   H411 2921   4.494   4.447   1.422  0.5703 -0.1269  1.5992
    6MOL   H412 2922   4.451   4.266   1.441  0.5028  0.8348  1.5262
    6MOL   H413 2923   4.444   4.438   1.195  1.9595 -1.3550  0.8700
    6MOL   H414 2924   4.227   4.548   1.178  1.3178  1.0993 -0.2331
    6MOL   H415 2925   4.307   4.597   1.326 -0.4205 -0.0071  0.8273
    6MOL   H416 2926   4.045   4.459   1.367 -0.1102  0.0281  1.4858
    6MOL   H417 2927   4.031   4.617   1.309 -0.5954 -0.1698  0.6945
    6MOL   H418 2928   4.203   4.520   1.537  0.4013 -1.3805 -1.2514
    6MOL   H419 2929   4.185   4.684   1.501  3.5688 -1.7963 -1.1634
    6MOL   H420 2930   3.949   4.705   1.561  1.2343  1.5102  4.0946
    6MOL   H421 2931   3.928   4.533   1.560  0.2237 -0.1944 -0.0061
    6MOL   H422 2932   4.066   4.517   1.763  2.5347  0.4801 -2.5414
    6MOL   H423 2933   4.106   4.687   1.765  0.4341 -0.3504 -0.7439
    6MOL   H424 2934   3.866   4.575   1.875  0.6306 -0.3143 -0.6104
    6MOL   H425 2935   3.906   4.750   1.862 -0.1596  0.5571 -0.8050
    6MOL   H426 2936   3.814   4.659   1.740  0.7041 -0.9577 -1.1393
    6MOL   C427 2937   4.383   4.219   1.174 -0.1853  0.3463  0.4543
    6MOL   C428 2938   4.293   4.252   1.047 -0.0464  0.1491 -0.1297
    6MOL   O429 2939   4.371   4.312   0.940 -0.5267  0.4777  0.2253
    6MOL   C430 2940   4.319   4.435   0.896 -0.5967 -0.6132  0.6155
    6MOL   C431 2941   4.390   4.478   0.768 -0.8292  0.1056  0.2745
    6MOL   C432 2942   4.546   4.462   0.772  0.2669 -0.1866  0.4769
    6MOL   C433 2943   4.625   4.505   0.648 -0.9030 -0.8659  0.3281
    6MOL   C434 2944   4.647   4.658   0.633  0.0868  0.5671 -0.1716
    6MOL   C435 2945   4.678   4.696   0.493  0.3811 -0.2706  0.0771
    6MOL   H436 2946   4.472   4.170   1.133 -1.0516  0.8842 -2.1312
    6MOL   H437 2947   4.335   4.144   1.237  1.4672 -2.0263 -0.9967
    6MOL   H438 2948   4.208   4.314   1.075  0.8581  1.2859  0.1435
    6MOL   H439 2949   4.331   4.513   0.972  1.2677 -1.8180  1.6036
    6MOL   H440 2950   4.212   4.438   0.877 -0.7891 -2.2902  1.4214
    6MOL   H441 2951   4.386   4.585   0.750  2.1435  0.0074 -1.1916
    6MOL   H442 2952   4.341   4.413   0.695 -0.1912  0.3813 -0.3984
    6MOL   H443 2953   4.574   4.530   0.853 -0.3712  0.2186  0.3628
    6MOL   H444 2954   4.579   4.361   0.792  1.7284 -0.4739 -3.0813
    6MOL   H445 2955   4.723   4.457   0.644 -0.9822 -1.1340  1.3998
    6MOL   H446 2956   4.571   4.458   0.567  0.7362 -2.4289  0.1048
    6MOL   H447 2957   4.566   4.726   0.659  0.2042  0.9326 -0.7400
    6MOL   H448 2958   4.731   4.685   0.696 -1.1766  1.0271  1.3621
    6MOL   H449 2959   4.760   4.633   0.460 -0.6560 -1.8040  0.3660
    6MOL   H450 2960   4.595   4.688   0.423 -0.8127 -0.0245  1.4165
    6MOL   H451 2961   4.698   4.803   0.487  1.1101 -0.4092 -0.0147
    6MOL   C452 2962   4.248   4.109   0.992 -0.1039 -0.0708  0.3758
    6MOL   C453 2963   4.139   4.127   0.874 -0.5819  0.8373 -0.1063
    6MOL   O454 2964   4.037   4.203   0.936  0.0392  0.1564 -0.9008
    6MOL   C455 2965   3.960   4.273   0.838 -0.5684 -0.1375 -0.6313
    6MOL   C456 2966   3.828   4.315   0.903  0.5347  0.3848  0.8458
    6MOL   C457 2967   3.845   4.435   1.001  0.2474 -0.6238 -0.2736
    6MOL   C458 2968   3.711   4.482   1.053  0.0906 -0.3611 -0.1826
    6MOL   C459 2969   3.730   4.607   1.140  0.0917  0.4588  0.5638
    6MOL   C460 2970   3.599   4.671   1.186  0.3415  0.4859 -0.4575
    6MOL   H461 2971   4.335   4.047   0.972 -0.0547 -0.2430  1.1065
    6MOL   H462 2972   4.191   4.055   1.067  0.3948 -1.1917 -0.0445
    6MOL   H463 2973   4.189   4.179   0.792  0.0877 -0.2815 -0.4175
    6MOL   H464 2974   3.935   4.200   0.762 -0.6921  1.0170 -1.7078
    6MOL   H465 2975   4.001   4.368   0.804 -0.4041  0.7096  1.8199
    6MOL   H466 2976   3.779   4.233   0.957  0.8509 -0.5867 -0.3168
    6MOL   H467 2977   3.764   4.342   0.819  1.1145 -0.3520  0.1611
    6MOL   H468 2978   3.918   4.405   1.077 -0.5370 -2.1365 -0.0913
    6MOL   H469 2979   3.887   4.524   0.954  0.4677  0.6440  2.2223
    6MOL   H470 2980   3.642   4.507   0.972  1.2591  0.2797 -1.0034
    6MOL   H471 2981   3.666   4.395   1.101 -0.8695 -1.1478 -2.4472
    6MOL   H472 2982   3.788   4.573   1.226 -1.0521  0.2612  1.2664
    6MOL   H473 2983   3.787   4.692   1.102  0.5968 -0.2459 -0.2612
    6MOL   H474 2984   3.617   4.737   1.271 -0.6992  1.6850 -1.1411
    6MOL   H475 2985   3.555   4.727   1.103  0.0420  1.6189  0.4544
    6MOL   H476 2986   3.529   4.597   1.223  0.0391  1.3436  0.6898
    6MOL   C477 2987   4.084   3.990   0.836 -0.1305 -0.3281  0.3023
    6MOL   C478 2988   4.186   3.891   0.762  0.0501 -0.8840  0.3204
    6MOL   O479 2989   4.137   3.760   0.760  0.0574  0.3869 -0.0076
    6MOL   C480 2990   4.226   3.669   0.688  0.0520 -0.2083 -0.8526
    6MOL   C481 2991   4.150   3.535   0.706  0.7007 -0.6145  0.1691
    6MOL   C482 2992   4.211   3.422   0.636 -0.1658 -0.5685  0.1790
    6MOL   C483 2993   4.180   3.442   0.484 -0.0709 -0.2854 -1.2418
    6MOL   C484 2994   4.236   3.338   0.392 -0.2066  1.0680 -0.3289
    6MOL   C485 2995   4.184   3.356   0.250  0.0122  0.3232 -0.3916
    6MOL   H486 2996   4.049   3.945   0.928  2.9893 -1.0951  1.2025
    6MOL   H487 2997   4.007   4.005   0.760 -0.4486  3.1638  1.2354
    6MOL   H488 2998   4.199   3.926   0.659 -0.1425 -1.6375  0.0381
    6MOL   H489 2999   4.322   3.678   0.739  0.5832 -0.3852 -1.7895
    6MOL   H490 3000   4.228   3.700   0.583 -2.0072 -2.8443 -1.7245
    6MOL   H491 3001   4.045   3.542   0.679  1.2718  0.1372 -1.9107
    6MOL   H492 3002   4.141   3.511   0.813  0.4280 -0.0915  0.2646
    6MOL   H493 3003   4.314   3.396   0.657 -0.0159 -0.0057  0.1407
    6MOL   H494 3004   4.161   3.331   0.669  0.2997 -0.9019 -0.0397
    6MOL   H495 3005   4.073   3.425   0.471 -0.4407  0.4723  0.7914
    6MOL   H496 3006   4.199   3.541   0.442 -2.6280  1.3499  1.3092
    6MOL   H497 3007   4.344   3.330   0.403 -0.4357 -0.1440  1.3005
    6MOL   H498 3008   4.204   3.240   0.428  3.0566  0.7634  1.9089
    6MOL   H499 3009   4.136   3.270   0.204  0.7655  0.3909 -1.3050
    6MOL   H500 3010   4.104   3.428   0.228 -2.0767 -1.4719  1.0756
    6MOL   H501 3011   4.266   3.386   0.185  1.6155 -1.7007  0.6521
    6MOL   H502 3012   4.280   3.904   0.816  0.0168  1.6278 -0.1406
    7MOL     C1 3013   1.765   5.134   2.284 -0.8847  0.2165  0.5643
    7MOL     C2 3014   1.776   5.060   2.148  0.6127 -0.5738 -0.6808
    7MOL     O3 3015   1.914   5.062   2.110  0.2817 -0.0378  0.2865
    7MOL     C4 3016   1.984   4.942   2.151 -0.6098 -0.6140 -0.1216
    7MOL     C5 3017   2.104   4.900   2.058  0.3491 -0.1511 -0.0212
    7MOL     C6 3018   2.060   4.861   1.915  0.9388 -0.2229 -0.4153
    7MOL     C7 3019   2.171   4.846   1.817  0.3252 -0.4609  0.5207
    7MOL     C8 3020   2.120   4.791   1.686  0.2586  0.1503 -0.2436
    7MOL     C9 3021   2.235   4.778   1.583 -0.0093 -0.6498 -0.8614
    7MOL    H10 3022   1.816   5.071   2.357  0.7437 -4.1304 -4.0079
    7MOL    H11 3023   1.805   5.235   2.282 -0.7501  0.1561  0.2513
    7MOL    H12 3024   1.724   4.964   2.147 -2.5156  1.0391  0.1246
    7MOL    H13 3025   1.921   4.853   2.162  0.4448 -0.9748  3.7010
    7MOL    H14 3026   2.029   4.967   2.247 -0.1093 -1.2157 -0.1982
    7MOL    H15 3027   2.159   4.817   2.103 -0.3623 -0.9657 -0.6282
    7MOL    H16 3028   2.174   4.984   2.061 -1.4306  1.3389  0.7659
    7MOL    H17 3029   2.009   4.765   1.923 -1.4905  1.1194  0.9110
    7MOL    H18 3030   1.989   4.935   1.877 -0.4754 -1.0678  0.5107
    7MOL    H19 3031   2.227   4.937   1.798 -0.1536 -0.0813  0.9245
    7MOL    H20 3032   2.242   4.780   1.867  0.3469 -0.8045  0.0401
    7MOL    H21 3033   2.056   4.870   1.645 -0.4252 -0.0739  0.3861
    7MOL    H22 3034   2.061   4.700   1.691 -1.1828  1.0508 -0.3772
    7MOL    H23 3035   2.290   4.686   1.601 -0.7428 -0.6091  1.7650
    7MOL    H24 3036   2.198   4.775   1.481  2.3922  1.0914 -1.8367
    7MOL    H25 3037   2.307   4.860   1.582  0.6668 -1.1962  0.9440
    7MOL    H26 3038   1.664   5.134   2.325 -1.0747  0.0172  0.0954
    7MOL    C27 3039   1.712   5.144   2.033  0.0548 -0.0321  0.5577
    7MOL    C28 3040   1.696   5.068   1.893  0.0638 -0.5750 -0.2962
    7MOL    O29 3041   1.607   4.956   1.915 -0.8078  1.0085  0.5263
    7MOL    C30 3042   1.676   4.838   1.875 -0.3180  0.2768  0.1987
    7MOL    C31 3043   1.588   4.719   1.856  0.1769 -0.0862  0.0762
    7MOL    C32 3044   1.675   4.588   1.846 -0.1713 -0.5614 -0.2842
    7MOL    C33 3045   1.605   4.465   1.785  0.3899  0.1665 -0.4596
    7MOL    C34 3046   1.558   4.362   1.893 -0.1279 -0.5416  0.3978
    7MOL    C35 3047   1.673   4.287   1.974  0.5942  0.1732 -0.1695
    7MOL    H36 3048   1.617   5.192   2.057 -0.0626 -1.5234  3.3767
    7MOL    H37 3049   1.780   5.227   2.015 -0.4106  0.3076  0.3650
    7MOL    H38 3050   1.793   5.053   1.846  0.7652 -0.5725  1.1328
    7MOL    H39 3051   1.752   4.813   1.949 -0.5394  0.1398  0.3815
    7MOL    H40 3052   1.723   4.854   1.778 -0.6749 -2.0557 -0.4097
    7MOL    H41 3053   1.528   4.743   1.769  1.3100  0.8592 -0.4669
    7MOL    H42 3054   1.508   4.718   1.930 -1.0486 -1.3441 -1.2267
    7MOL    H43 3055   1.765   4.606   1.787  0.2894  1.6889  1.0335
    7MOL    H44 3056   1.707   4.557   1.945 -0.1724  2.8746  0.8551
    7MOL    H45 3057   1.506   4.497   1.751 -0.4190 -0.2112  1.4971
    7MOL    H46 3058   1.663   4.409   1.712  0.2152 -2.4443  1.3505
    7MOL    H47 3059   1.494   4.409   1.967 -0.8941 -0.9935  0.0323
    7MOL    H48 3060   1.498   4.285   1.844  1.0949 -1.7270  0.7382
    7MOL    H49 3061   1.752   4.254   1.906  2.0557 -0.9799  2.0067
    7MOL    H50 3062   1.712   4.357   2.047 -1.3516 -1.1122  2.1677
    7MOL    H51 3063   1.630   4.205   2.031  3.3134 -1.4644 -0.3983
    7MOL    C52 3064   1.615   5.150   1.797  0.0457  0.2209 -0.5049
    7MOL    C53 3065   1.578   5.084   1.661  0.2250  0.8274  0.0027
    7MOL    O54 3066   1.437   5.089   1.631 -0.5674  0.6509  0.5374
    7MOL    C55 3067   1.358   5.020   1.728  0.3726  0.2104  0.7728
    7MOL    C56 3068   1.222   5.085   1.727 -0.1989 -0.1117  0.4105
    7MOL    C57 3069   1.124   4.993   1.795 -0.0552 -0.7100 -0.2969
    7MOL    C58 3070   0.993   5.072   1.802 -0.5099  0.5818 -0.1436
    7MOL    C59 3071   0.886   4.983   1.853  0.1911  0.2247 -0.1752
    7MOL    C60 3072   0.754   5.055   1.864  0.4999  0.1572 -0.1534
    7MOL    H61 3073   1.670   5.242   1.780 -0.5707  0.4146 -1.4878
    7MOL    H62 3074   1.523   5.188   1.841  0.7561  1.7922 -0.3558
    7MOL    H63 3075   1.602   4.978   1.666 -1.1330  0.4076 -1.5921
    7MOL    H64 3076   1.398   5.024   1.829  1.2874  1.8794  0.3652
    7MOL    H65 3077   1.346   4.915   1.700  0.8556 -0.4881  3.1065
    7MOL    H66 3078   1.187   5.126   1.632 -0.6863 -0.8005  0.2810
    7MOL    H67 3079   1.225   5.167   1.799 -0.4396 -0.2030  0.5279
    7MOL    H68 3080   1.123   4.889   1.761  0.6024 -0.8019 -0.0546
    7MOL    H69 3081   1.168   4.984   1.894 -0.9644  0.2804  0.2099
    7MOL    H70 3082   1.010   5.154   1.872 -0.6139  0.9730 -0.5759
    7MOL    H71 3083   0.969   5.126   1.711 -3.8032 -0.4202  0.0519
    7MOL    H72 3084   0.885   4.896   1.787  2.3756  0.4277 -0.5080
    7MOL    H73 3085   0.923   4.948   1.950 -0.0160  1.0062  0.1864
    7MOL    H74 3086   0.760   5.156   1.905 -2.3136 -0.5730  2.2036
    7MOL    H75 3087   0.711   5.078   1.766 -0.1135 -1.8852 -0.3763
    7MOL    H76 3088   0.686   4.990   1.919 -1.5142  1.2718 -1.2794
    7MOL    C77 3089   1.653   5.137   1.532 -0.3148  0.3248  0.3344
    7MOL    C78 3090   1.807   5.121   1.532 -0.0734 -0.9387  0.5781
    7MOL    O79 3091   1.854   5.234   1.609 -0.5147  0.2981 -0.6559
    7MOL    C80 3092   1.982   5.212   1.673  0.2742  0.2832  0.7744
    7MOL    C81 3093   1.985   5.313   1.788 -0.3303  0.6810 -0.2492
    7MOL    C82 3094   2.123   5.315   1.860 -0.1774  0.5943 -0.0711
    7MOL    C83 3095   2.111   5.359   2.008  0.3491 -0.4204 -0.1913
    7MOL    C84 3096   2.233   5.388   2.105  0.6928  0.0543 -0.2747
    7MOL    C85 3097   2.306   5.253   2.138  0.2180  0.6993 -0.4869
    7MOL    H86 3098   1.625   5.240   1.510 -1.1120  0.0514  0.0550
    7MOL    H87 3099   1.620   5.078   1.446 -0.2405  1.0924 -0.2253
    7MOL    H88 3100   1.841   5.026   1.572  3.7371 -0.0478 -0.3417
    7MOL    H89 3101   2.061   5.239   1.603  1.1760  1.0867  2.0781
    7MOL    H90 3102   1.991   5.106   1.696 -0.6410  0.2566  1.0581
    7MOL    H91 3103   1.900   5.287   1.851 -0.2319  0.5445 -0.1742
    7MOL    H92 3104   1.969   5.414   1.750  0.6017  2.1576  3.0981
    7MOL    H93 3105   2.160   5.214   1.846  1.8867  1.2152  0.7441
    7MOL    H94 3106   2.183   5.381   1.798 -0.0999  0.0841 -0.5380
    7MOL    H95 3107   2.071   5.461   2.003  0.5233 -0.3610 -0.3620
    7MOL    H96 3108   2.034   5.303   2.062  0.4537 -0.4153 -0.0344
    7MOL    H97 3109   2.298   5.465   2.064  2.0218 -0.6107  0.5440
    7MOL    H98 3110   2.209   5.439   2.198 -0.7800 -0.5796 -0.2801
    7MOL    H99 3111   2.391   5.262   2.206 -1.8568 -0.4976  2.3778
    7MOL   H100 3112   2.234   5.190   2.190  1.6171 -0.8025 -0.3104
    7MOL   H101 3113   2.343   5.201   2.050 -0.6184  0.0010 -0.4331
    7MOL   C102 3114   1.871   5.132   1.391  0.3883  0.0788 -0.3132
    7MOL   C103 3115   1.853   5.005   1.308 -0.2961 -0.6827 -0.2359
    7MOL   O104 3116   1.880   5.033   1.168 -0.4712 -0.1063 -0.7248
    7MOL   C105 3117   1.765   5.066   1.095  0.0244  0.4843  0.0311
    7MOL   C106 3118   1.797   5.081   0.949  0.9205  0.0623  0.6397
    7MOL   C107 3119   1.820   4.949   0.883  0.7927  0.0539  0.6582
    7MOL   C108 3120   1.832   4.958   0.729 -0.3267 -0.0166  1.0051
    7MOL   C109 3121   1.956   5.034   0.681 -0.0015 -0.0643  0.3272
    7MOL   C110 3122   1.942   5.061   0.536  0.2580  0.1550 -0.6837
    7MOL   H111 3123   1.823   5.208   1.329  1.1998 -0.0597 -1.1198
    7MOL   H112 3124   1.976   5.162   1.397  0.2134  1.1271 -2.0847
    7MOL   H113 3125   1.755   4.959   1.323 -0.5135 -0.0947  0.1419
    7MOL   H114 3126   1.714   5.156   1.130 -2.6881  0.2809 -3.1898
    7MOL   H115 3127   1.693   4.985   1.109 -1.2051  1.7952  1.5580
    7MOL   H116 3128   1.877   5.155   0.945 -1.0093  2.1990  0.5501
    7MOL   H117 3129   1.717   5.133   0.896  0.6238 -1.8203 -0.7926
    7MOL   H118 3130   1.901   4.903   0.939  1.9499  0.8342 -0.3346
    7MOL   H119 3131   1.732   4.887   0.891 -0.3257  1.4320 -0.6139
    7MOL   H120 3132   1.828   4.859   0.681 -2.6887  0.4953  0.0355
    7MOL   H121 3133   1.736   5.001   0.699  1.9014  3.2918 -1.7322
    7MOL   H122 3134   1.952   5.131   0.729 -1.2768 -1.2847  2.7765
    7MOL   H123 3135   2.048   4.985   0.713  0.1706 -0.8767 -1.3777
    7MOL   H124 3136   1.939   4.969   0.478  0.4118 -1.4546  1.7707
    7MOL   H125 3137   1.867   5.132   0.504 -0.2424 -1.2234 -2.6239
    7MOL   H126 3138   2.028   5.113   0.492 -1.0133  0.0481 -3.3772
    7MOL   C127 3139   1.954   4.895   1.352 -0.6114 -0.3201  0.4144
    7MOL   C128 3140   1.946   4.762   1.273 -0.0369 -0.2153 -0.8082
    7MOL   O129 3141   1.997   4.652   1.352 -0.7827  0.0673  0.1743
    7MOL   C130 3142   1.908   4.577   1.429  0.4835 -0.2381  0.4234
    7MOL   C131 3143   1.971   4.442   1.471 -0.1235  0.8062  0.3160
    7MOL   C132 3144   1.963   4.347   1.353  0.0592  0.3499  0.4104
    7MOL   C133 3145   1.982   4.200   1.405 -0.0688 -0.1503 -0.5817
    7MOL   C134 3146   1.967   4.097   1.293  0.2277  0.3777 -0.0606
    7MOL   C135 3147   2.067   4.116   1.178  1.1516 -0.0225 -0.1425
    7MOL   H136 3148   2.050   4.947   1.357 -0.5346 -0.2779 -1.1932
    7MOL   H137 3149   1.925   4.869   1.454 -1.2930 -1.1692  0.0084
    7MOL   H138 3150   1.840   4.747   1.251  0.2076 -1.7070 -1.0220
    7MOL   H139 3151   1.818   4.559   1.371  0.5144 -0.4327  0.4333
    7MOL   H140 3152   1.872   4.630   1.517 -1.3543  0.1958 -0.5661
    7MOL   H141 3153   1.911   4.396   1.550 -0.8098  2.6450  0.8912
    7MOL   H142 3154   2.070   4.446   1.516 -0.0926 -0.3374  0.3575
    7MOL   H143 3155   1.878   4.366   1.288 -0.1668  1.0006  0.8993
    7MOL   H144 3156   2.045   4.374   1.287 -2.3911  0.4473 -2.6998
    7MOL   H145 3157   2.082   4.180   1.444 -0.5941 -0.7958  0.4492
    7MOL   H146 3158   1.913   4.170   1.484  2.8969 -2.5519  1.2271
    7MOL   H147 3159   1.972   4.005   1.351  0.1682  1.7659  2.2364
    7MOL   H148 3160   1.865   4.103   1.256  0.8162 -0.1420 -1.8029
    7MOL   H149 3161   2.062   4.219   1.144  0.8773  1.0938  3.1202
    7MOL   H150 3162   2.168   4.083   1.205  1.0705 -0.7293 -0.6952
    7MOL   H151 3163   2.040   4.044   1.101 -0.2079  0.2239  0.0856
    7MOL   C152 3164   2.047   4.765   1.150  0.0183  0.0002  0.3304
    7MOL   C153 3165   2.026   4.667   1.038 -0.0337  0.3880 -0.3320
    7MOL   O154 3166   2.106   4.557   1.056  0.8188  0.0892  0.6319
    7MOL   C155 3167   2.230   4.574   0.997  0.5714  0.3001  0.4644
    7MOL   C156 3168   2.318   4.470   1.064  0.4343 -0.1916  0.2202
    7MOL   C157 3169   2.373   4.517   1.203 -0.1597  0.0908  0.1749
    7MOL   C158 3170   2.473   4.422   1.263 -0.3285 -0.6341  0.4521
    7MOL   C159 3171   2.420   4.351   1.383 -0.3439  0.2205 -0.1702
    7MOL   C160 3172   2.521   4.261   1.456 -0.3066  0.1338 -0.2189
    7MOL   H161 3173   2.038   4.867   1.114 -0.3535 -0.2785 -0.3646
    7MOL   H162 3174   2.148   4.753   1.190  0.1876  0.5470  0.0742
    7MOL   H163 3175   2.052   4.722   0.948  0.5055  0.6976  0.0059
    7MOL   H164 3176   2.279   4.671   0.995 -0.0309  0.6055  0.1862
    7MOL   H165 3177   2.232   4.550   0.891  0.8991  2.2868  0.0084
    7MOL   H166 3178   2.406   4.460   1.000  0.4847 -0.6950  0.3603
    7MOL   H167 3179   2.268   4.375   1.085  0.6384 -0.5137 -0.7246
    7MOL   H168 3180   2.429   4.609   1.183 -1.6459  0.5080 -2.2033
    7MOL   H169 3181   2.294   4.548   1.271  0.0217  1.4538 -0.2153
    7MOL   H170 3182   2.501   4.348   1.187  0.2043  0.6742 -0.6537
    7MOL   H171 3183   2.567   4.468   1.293  2.0669 -4.9092 -0.0542
    7MOL   H172 3184   2.378   4.426   1.450 -0.7264 -0.7355  0.6972
    7MOL   H173 3185   2.331   4.287   1.372 -1.3080  0.9520  2.8446
    7MOL   H174 3186   2.483   4.203   1.540  0.7690 -0.1979  0.0516
    7MOL   H175 3187   2.557   4.181   1.392 -0.5853 -0.6834  0.6393
    7MOL   H176 3188   2.609   4.322   1.477  1.3858 -2.1281 -0.5529
    7MOL   C177 3189   1.884   4.602   1.026 -0.0820 -0.6627  0.3934
    7MOL   C178 3190   1.860   4.500   0.907 -0.0005  0.4787 -0.3125
    7MOL   O179 3191   1.742   4.424   0.930  0.9773  0.5936  0.2669
    7MOL   C180 3192   1.768   4.308   1.002 -0.4130  0.1286  0.4228
    7MOL   C181 3193   1.653   4.206   0.987 -0.2087  0.5566  0.0910
    7MOL   C182 3194   1.612   4.198   0.842  0.1215 -0.8272 -0.1292
    7MOL   C183 3195   1.490   4.105   0.822  0.8757  0.5330  0.6126
    7MOL   C184 3196   1.418   4.109   0.684  0.0816  0.5423  0.3814
    7MOL   C185 3197   1.309   3.999   0.678  0.2447 -0.1410  0.0081
    7MOL   H186 3198   1.877   4.539   1.115  2.5719 -1.0391  0.3533
    7MOL   H187 3199   1.801   4.671   1.011  1.5793  1.3287  0.1384
    7MOL   H188 3200   1.946   4.442   0.875  1.0567  1.4473  0.6841
    7MOL   H189 3201   1.767   4.331   1.109  0.3822 -1.0689  0.7010
    7MOL   H190 3202   1.866   4.263   0.983 -1.0027 -1.1025  0.2650
    7MOL   H191 3203   1.572   4.222   1.057 -0.6764 -0.6839 -0.1567
    7MOL   H192 3204   1.683   4.104   1.010  3.7862  2.1679  2.5370
    7MOL   H193 3205   1.580   4.298   0.812  1.4589  0.3667  2.2851
    7MOL   H194 3206   1.691   4.163   0.776  0.2708  1.3183 -1.1396
    7MOL   H195 3207   1.529   4.004   0.834 -1.9908 -0.7784 -0.6602
    7MOL   H196 3208   1.423   4.125   0.906 -0.3478 -0.7563 -0.0339
    7MOL   H197 3209   1.370   4.205   0.671  0.1314  0.6442  0.9277
    7MOL   H198 3210   1.494   4.092   0.607  1.1206  0.7012  1.3572
    7MOL   H199 3211   1.351   3.904   0.714 -0.2041 -0.6930 -0.9181
    7MOL   H200 3212   1.236   4.038   0.750  0.1294 -1.1555  0.4529
    7MOL   H201 3213   1.245   3.986   0.591 -0.0198  1.0243  0.0300
    7MOL   C202 3214   1.845   4.575   0.775 -0.0273  0.6816 -0.4504
    7MOL   C203 3215   1.813   4.497   0.642  0.0446  0.5816  0.0297
    7MOL   O204 3216   1.936   4.446   0.593  0.0562  0.1280 -0.1132
    7MOL   C205 3217   1.940   4.316   0.538  0.6740  0.0838  0.3026
    7MOL   C206 3218   2.080   4.288   0.491  0.2220  0.0131 -0.3010
    7MOL   C207 3219   2.175   4.244   0.604  0.3031 -0.7444  0.0901
    7MOL   C208 3220   2.126   4.129   0.697 -1.1878 -0.2055 -0.4834
    7MOL   C209 3221   2.236   4.084   0.797 -0.2729 -0.3420  0.2339
    7MOL   C210 3222   2.184   3.959   0.869 -0.1457  0.1349  0.2975
    7MOL   H211 3223   1.772   4.653   0.796 -0.1452 -0.1975  2.7148
    7MOL   H212 3224   1.934   4.634   0.756 -0.1694  1.3451  0.8330
    7MOL   H213 3225   1.750   4.409   0.656  1.2008 -0.2663 -0.0906
    7MOL   H214 3226   1.861   4.306   0.463  0.8961  0.5698  0.0050
    7MOL   H215 3227   1.910   4.251   0.621 -1.4707  0.4062 -0.1800
    7MOL   H216 3228   2.113   4.375   0.434  1.6997  0.8406  1.7629
    7MOL   H217 3229   2.080   4.209   0.415  1.4409 -0.3698  0.0868
    7MOL   H218 3230   2.271   4.214   0.561  0.0722 -2.0865  0.5030
    7MOL   H219 3231   2.210   4.327   0.666 -2.8463  1.6878 -1.2136
    7MOL   H220 3232   2.033   4.158   0.746 -1.4776 -0.4852 -0.8651
    7MOL   H221 3233   2.114   4.038   0.639  0.0818 -0.4209 -0.4320
    7MOL   H222 3234   2.327   4.057   0.743 -0.0972 -0.6005  0.6625
    7MOL   H223 3235   2.240   4.159   0.876 -1.3380  1.3156 -1.2270
    7MOL   H224 3236   2.221   3.946   0.970 -1.0253  0.3115  0.6508
    7MOL   H225 3237   2.076   3.963   0.887  0.0955 -1.0873  2.1208
    7MOL   H226 3238   2.181   3.867   0.810 -0.3937  1.8716 -2.4979
    7MOL   C227 3239   1.740   4.582   0.531  0.3166  0.1786 -0.2746
    7MOL   C228 3240   1.613   4.656   0.563 -0.2685 -0.1028 -0.2384
    7MOL   O229 3241   1.554   4.707   0.445 -0.8644 -0.3960 -0.1837
    7MOL   C230 3242   1.627   4.814   0.383  0.2151 -0.1561  0.2630
    7MOL   C231 3243   1.539   4.863   0.264  0.0711  1.1102  0.8386
    7MOL   C232 3244   1.585   4.995   0.194  0.9432  0.0033 -0.2060
    7MOL   C233 3245   1.538   5.122   0.274  0.0221  0.2176  0.7627
    7MOL   C234 3246   1.550   5.258   0.198  0.0468 -0.6796  0.1664
    7MOL   C235 3247   1.551   5.395   0.269 -0.5164 -0.4847 -0.0572
    7MOL   H236 3248   1.809   4.663   0.509  3.4194 -1.4769  2.6978
    7MOL   H237 3249   1.735   4.533   0.434 -0.8001  1.7041 -1.0137
    7MOL   H238 3250   1.644   4.740   0.625 -0.5375 -0.5423  0.4889
    7MOL   H239 3251   1.726   4.785   0.348  0.6528 -0.0308  1.4071
    7MOL   H240 3252   1.644   4.897   0.452 -0.6146 -1.4912  2.0940
    7MOL   H241 3253   1.434   4.867   0.293  0.0349 -0.7178  0.9887
    7MOL   H242 3254   1.551   4.786   0.188 -0.7628  2.4379 -0.6937
    7MOL   H243 3255   1.691   4.987   0.169  1.2077 -1.6033  1.3481
    7MOL   H244 3256   1.531   5.000   0.100  2.2022 -0.6397 -0.9697
    7MOL   H245 3257   1.437   5.108   0.311 -0.3357  2.5629  0.7367
    7MOL   H246 3258   1.610   5.124   0.356 -0.3054  0.8080  1.0382
    7MOL   H247 3259   1.654   5.253   0.165  0.2324  3.4238 -0.0535
    7MOL   H248 3260   1.477   5.253   0.117 -0.0110 -0.8984  0.2308
    7MOL   H249 3261   1.479   5.398   0.350  0.8780  2.2678  1.1289
    7MOL   H250 3262   1.652   5.412   0.305 -0.8820  1.0765  0.2500
    7MOL   H251 3263   1.529   5.480   0.205 -0.7071 -0.7159 -0.3017
    7MOL   C252 3264   1.510   4.577   0.643 -0.5652 -0.1992 -0.5540
    7MOL   C253 3265   1.388   4.653   0.678  0.9918  0.0905 -0.2535
    7MOL   O254 3266   1.420   4.759   0.770 -0.2530  0.1017 -0.2757
    7MOL   C255 3267   1.343   4.876   0.749  0.1085  0.8066  0.2804
    7MOL   C256 3268   1.410   4.970   0.850  0.4910  0.0418 -1.2737
    7MOL   C257 3269   1.346   5.117   0.855 -0.8258 -0.3235 -0.1247
    7MOL   C258 3270   1.392   5.208   0.968  0.3102 -0.2632 -0.1063
    7MOL   C259 3271   1.359   5.165   1.114 -0.5566  0.4149  0.0012
    7MOL   C260 3272   1.416   5.249   1.225 -0.7765  0.1940  0.4584
    7MOL   H261 3273   1.488   4.478   0.604 -2.0079 -0.9885  2.1444
    7MOL   H262 3274   1.542   4.543   0.742 -0.9985  0.2640 -0.2537
    7MOL   H263 3275   1.345   4.700   0.590 -1.2367 -0.5869  0.4257
    7MOL   H264 3276   1.239   4.858   0.775 -0.0484  0.6700 -0.4516
    7MOL   H265 3277   1.352   4.907   0.645  0.3761  1.0543  0.3745
    7MOL   H266 3278   1.517   4.972   0.833  0.3753  0.4297 -2.0032
    7MOL   H267 3279   1.395   4.922   0.946  3.0584 -0.1360 -0.9426
    7MOL   H268 3280   1.367   5.167   0.761 -0.2623 -1.0340 -0.3788
    7MOL   H269 3281   1.237   5.116   0.864 -0.7768  0.1781  0.5222
    7MOL   H270 3282   1.498   5.231   0.967  0.0282  1.0898 -1.1379
    7MOL   H271 3283   1.348   5.307   0.955  5.1850  2.1066  0.2802
    7MOL   H272 3284   1.250   5.158   1.119 -0.6007  1.6034  0.8698
    7MOL   H273 3285   1.399   5.064   1.126 -1.5044  0.2311  1.6577
    7MOL   H274 3286   1.422   5.214   1.328  0.1818  1.5250  0.8681
    7MOL   H275 3287   1.519   5.275   1.200  0.0359 -1.5124  1.9855
    7MOL   H276 3288   1.388   5.354   1.232  2.9061  1.3011 -0.2437
    7MOL   C277 3289   1.279   4.558   0.740  0.2632  0.2981  0.0748
    7MOL   C278 3290   1.179   4.515   0.634 -0.4573  0.3402  0.3767
    7MOL   O279 3291   1.242   4.453   0.522  0.9914  0.9345  0.5864
    7MOL   C280 3292   1.262   4.541   0.408 -0.1082  0.0496  0.1558
    7MOL   C281 3293   1.323   4.446   0.292 -0.3461 -0.1481 -0.0728
    7MOL   C282 3294   1.250   4.320   0.273  0.0139  0.0686 -0.7314
    7MOL   C283 3295   1.306   4.248   0.149  0.2731  0.4970  0.1237
    7MOL   C284 3296   1.256   4.105   0.143 -0.1793  0.8046  0.4288
    7MOL   C285 3297   1.336   4.023   0.047 -0.1421  0.7983  0.4959
    7MOL   H286 3298   1.318   4.468   0.788 -0.4501  0.5792  1.2085
    7MOL   H287 3299   1.228   4.618   0.816  0.8954 -0.2479  0.9430
    7MOL   H288 3300   1.123   4.599   0.593  0.2788  0.9268  0.5642
    7MOL   H289 3301   1.330   4.627   0.409  0.6336 -0.5094 -0.8250
    7MOL   H290 3302   1.171   4.590   0.375  1.3510  2.1808 -0.8694
    7MOL   H291 3303   1.428   4.428   0.311  0.1371  1.1510 -1.3338
    7MOL   H292 3304   1.334   4.507   0.202  1.3899  0.5873  0.6115
    7MOL   H293 3305   1.250   4.258   0.363 -2.0896 -1.4660 -1.7433
    7MOL   H294 3306   1.143   4.341   0.263  0.3458  0.4823 -3.9566
    7MOL   H295 3307   1.279   4.306   0.061  0.7238  1.2981  0.5018
    7MOL   H296 3308   1.414   4.263   0.153 -0.0334  2.4701  1.3140
    7MOL   H297 3309   1.275   4.059   0.240  1.5918  0.2367 -0.1762
    7MOL   H298 3310   1.152   4.091   0.113 -0.1396 -0.1098  0.6903
    7MOL   H299 3311   1.316   3.918   0.071 -4.5590  0.9755 -1.9395
    7MOL   H300 3312   1.305   4.039   7.721  0.8090  0.8428  0.2084
    7MOL   H301 3313   1.445   4.025   0.054 -0.2266  1.3420  1.9852
    7MOL   C302 3314   1.080   4.408   0.697 -0.0135 -0.2075  0.1507
    7MOL   C303 3315   0.954   4.376   0.613 -0.2532 -0.5684  0.7503
    7MOL   O304 3316   0.863   4.324   0.709 -0.3083 -0.0473  0.2309
    7MOL   C305 3317   0.736   4.390   0.722  0.7251 -0.1079  0.3967
    7MOL   C306 3318   0.741   4.510   0.826 -0.3834  0.1330  0.3856
    7MOL   C307 3319   0.609   4.581   0.836  0.7475 -0.4918 -0.0556
    7MOL   C308 3320   0.628   4.698   0.933  0.7958  0.7034  0.7425
    7MOL   C309 3321   0.502   4.787   0.945  0.0987  0.2274  0.0742
    7MOL   C310 3322   0.514   4.867   1.079 -0.0765  0.5913  0.4780
    7MOL   H311 3323   1.129   4.313   0.717  1.4624  0.6528  0.6919
    7MOL   H312 3324   1.053   4.451   0.793  1.2125 -1.7485  1.2023
    7MOL   H313 3325   0.908   4.459   0.560 -1.4487 -1.8841 -0.3213
    7MOL   H314 3326   0.665   4.315   0.758 -0.6831  1.0080 -0.0473
    7MOL   H315 3327   0.704   4.415   0.621  1.3614  1.9537  0.6782
    7MOL   H316 3328   0.829   4.571   0.805  1.4200 -2.0641  1.3542
    7MOL   H317 3329   0.780   4.468   0.918  2.2260 -0.6360 -1.0224
    7MOL   H318 3330   0.581   4.632   0.744  0.4517  1.0425  0.8543
    7MOL   H319 3331   0.519   4.525   0.861  1.5915 -2.6685 -1.8016
    7MOL   H320 3332   0.655   4.655   1.030  0.1561 -0.7509  0.2936
    7MOL   H321 3333   0.716   4.756   0.906  0.7193  0.0139 -1.0364
    7MOL   H322 3334   0.485   4.851   0.859 -0.2555  0.2906  0.1904
    7MOL   H323 3335   0.413   4.724   0.952  1.6767 -1.8983  1.8817
    7MOL   H324 3336   0.589   4.946   1.080  0.1088  0.4138  0.5480
    7MOL   H325 3337   0.414   4.910   1.087 -0.2697  0.2802 -0.2700
    7MOL   H326 3338   0.529   4.798   1.162  1.9195  0.3759 -0.0516
    7MOL   C327 3339   0.970   4.263   0.505  0.2939  0.8061 -0.3048
    7MOL   C328 3340   0.843   4.214   0.426 -0.1230  0.1479  0.1842
    7MOL   O329 3341   0.849   4.288   0.310 -0.1707  0.2111  0.4824
    7MOL   C330 3342   0.720   4.311   0.246  0.1980 -0.2145  0.0611
    7MOL   C331 3343   0.711   4.464   0.222  0.0732 -0.5686  0.4305
    7MOL   C332 3344   0.591   4.519   0.140  0.1532 -0.8280  0.5893
    7MOL   C333 3345   0.605   4.673   0.135  0.7023  0.0404 -0.1852
    7MOL   C334 3346   0.519   4.746   0.032  0.3711 -0.4087  0.0553
    7MOL   C335 3347   0.375   4.762   0.073 -0.2362  0.7533 -0.4481
    7MOL   H336 3348   1.009   4.174   0.554 -0.8858  1.2707  1.5489
    7MOL   H337 3349   1.053   4.281   0.437  0.6645  3.5972  0.7892
    7MOL   H338 3350   0.758   4.254   0.481 -0.5885 -1.7488  0.8693
    7MOL   H339 3351   0.637   4.283   0.311  1.4019  1.0268  2.1853
    7MOL   H340 3352   0.712   4.255   0.153  1.5137  0.6310 -0.5661
    7MOL   H341 3353   0.799   4.505   0.172  0.2223 -0.5407  0.7134
    7MOL   H342 3354   0.713   4.514   0.319  1.9139 -2.5969  1.5095
    7MOL   H343 3355   0.586   4.475   0.040 -0.0800 -3.0029  1.5254
    7MOL   H344 3356   0.502   4.485   0.193 -0.6221  2.7059  1.6331
    7MOL   H345 3357   0.601   4.718   0.234  2.6741 -0.3897  0.1134
    7MOL   H346 3358   0.706   4.704   0.109  0.2104  1.4320 -0.4342
    7MOL   H347 3359   0.571   4.836   0.001 -1.4399  0.3898 -0.7101
    7MOL   H348 3360   0.519   4.686   7.718  0.3669 -0.0635 -0.1713
    7MOL   H349 3361   0.312   4.677   0.048 -0.7319  1.1132 -0.4296
    7MOL   H350 3362   0.366   4.786   0.179 -1.1082 -1.1253 -0.0905
    7MOL   H351 3363   0.344   4.853   0.021  0.6625  1.6279  0.5273
    7MOL   C352 3364   0.831   4.062   0.399 -0.1252 -0.0048 -0.3537
    7MOL   C353 3365   0.704   3.993   0.457  0.3108 -0.4489 -0.2098
    7MOL   O354 3366   0.601   4.073   0.402 -0.3191 -0.0039  0.4510
    7MOL   C355 3367   0.470   4.013   0.405  0.3938  0.2529  0.6007
    7MOL   C356 3368   0.388   4.097   0.307  0.4662 -0.3334  0.8177
    7MOL   C357 3369   0.448   4.097   0.168 -0.7470  0.6019  0.8019
    7MOL   C358 3370   0.361   4.177   0.072 -0.5603  0.5461 -0.6473
    7MOL   C359 3371   0.401   4.158   7.696  0.6051 -0.2534 -0.1927
    7MOL   C360 3372   0.555   4.137   7.655  0.8201  0.0353  0.0374
    7MOL   H361 3373   0.823   4.046   0.292  2.2412  0.5656 -0.6413
    7MOL   H362 3374   0.929   4.017   0.417 -0.0933  0.4903  0.7475
    7MOL   H363 3375   0.701   3.888   0.427  1.1402 -0.6704  0.4525
    7MOL   H364 3376   0.424   4.008   0.504  0.1405 -2.9616  0.3785
    7MOL   H365 3377   0.478   3.910   0.373 -1.9987 -0.3300  1.7347
    7MOL   H366 3378   0.393   4.196   0.351 -0.2909 -0.3518  0.9431
    7MOL   H367 3379   0.285   4.063   0.300  0.0657  0.6685  1.7660
    7MOL   H368 3380   0.556   4.114   0.160 -0.7715  0.6907  0.6548
    7MOL   H369 3381   0.454   3.994   0.134  0.3995  1.5387 -2.0455
    7MOL   H370 3382   0.260   4.144   0.095 -1.0714  1.8381 -1.0400
    7MOL   H371 3383   0.369   4.278   0.113  1.0478 -0.1681  0.8857
    7MOL   H372 3384   0.333   4.081   7.659 -0.3450  2.3311 -4.0396
    7MOL   H373 3385   0.356   4.227   7.625 -0.4242 -1.9717 -1.2508
    7MOL   H374 3386   0.585   4.033   7.665  0.9936  0.0678 -0.1368
    7MOL   H375 3387   0.564   4.164   7.550 -0.6129  1.1033  0.1625
    7MOL   H376 3388   0.619   4.200   7.717  0.7169  0.5575 -0.3796
    7MOL   C377 3389   0.689   3.995   0.615  0.0342  0.1193 -0.1043
    7MOL   C378 3390   0.809   3.956   0.704  0.2177 -0.1947 -0.0888
    7MOL   O379 3391   0.856   3.829   0.664  0.2624 -0.1590  0.1562
    7MOL   C380 3392   0.996   3.810   0.678 -0.3785 -0.0370  0.1918
    7MOL   C381 3393   1.035   3.663   0.658 -0.2536  0.3889 -0.9856
    7MOL   C382 3394   1.008   3.581   0.786 -0.0289  0.0147 -0.0822
    7MOL   C383 3395   1.079   3.440   0.779  0.3307  0.1997 -0.0897
    7MOL   C384 3396   1.060   3.349   0.655 -0.5104  0.1709  0.0390
    7MOL   C385 3397   0.908   3.309   0.643 -0.3449 -0.0451 -0.1084
    7MOL   H386 3398   0.646   4.090   0.645  1.0339  0.6984 -0.4589
    7MOL   H387 3399   0.617   3.915   0.631  0.1079  0.1671  0.4597
    7MOL   H388 3400   0.884   4.033   0.686 -0.8880  1.1785  1.0808
    7MOL   H389 3401   1.040   3.856   0.767 -0.5722 -1.2347  0.9142
    7MOL   H390 3402   1.042   3.866   0.596  0.7487 -1.8115 -0.4180
    7MOL   H391 3403   1.142   3.668   0.638  0.0935 -0.2789  0.6428
    7MOL   H392 3404   0.972   3.632   0.576  1.1524 -1.6482 -1.3278
    7MOL   H393 3405   1.034   3.634   0.877  1.5525 -1.7179  0.5055
    7MOL   H394 3406   0.903   3.558   0.805 -0.7252  2.5741 -0.6496
    7MOL   H395 3407   1.182   3.475   0.786  0.9130 -1.5494  0.5001
    7MOL   H396 3408   1.067   3.374   0.865 -0.2708  0.5587  0.1045
    7MOL   H397 3409   1.085   3.406   0.566  0.3841  0.4632  0.4697
    7MOL   H398 3410   1.122   3.260   0.672 -1.0264 -0.8275 -3.0372
    7MOL   H399 3411   0.906   3.205   0.612 -0.1407 -0.0534 -0.0998
    7MOL   H400 3412   0.855   3.332   0.736  1.6205 -0.7998  1.2391
    7MOL   H401 3413   0.863   3.372   0.566  0.4794  2.8504  1.6996
    7MOL   C402 3414   0.759   3.945   0.850 -0.0113 -0.5888  0.4682
    7MOL   C403 3415   0.866   3.935   0.955 -0.1336  0.1912  0.0091
    7MOL   O404 3416   0.801   3.934   1.082 -0.0501  0.0352  0.3001
    7MOL   C405 3417   0.733   3.810   1.119 -0.1366 -0.1901 -0.0528
    7MOL   C406 3418   0.697   3.834   1.263  0.2973  0.2320  0.0224
    7MOL   C407 3419   0.580   3.930   1.285  0.0808  0.0118 -0.2520
    7MOL   C408 3420   0.572   4.009   1.419 -0.0542 -0.5257 -0.0432
    7MOL   C409 3421   0.575   3.927   1.550  0.3939  0.7297  0.2966
    7MOL   C410 3422   0.452   3.834   1.570  0.4753  0.3722  0.6135
    7MOL   H411 3423   0.684   3.866   0.851 -2.0795  1.2712 -0.5600
    7MOL   H412 3424   0.695   4.032   0.869  0.7590  0.8124 -2.9907
    7MOL   H413 3425   0.916   3.839   0.946  4.2009  2.2858  0.6121
    7MOL   H414 3426   0.798   3.723   1.116  1.6968  1.1173  1.1387
    7MOL   H415 3427   0.648   3.784   1.055  1.7519 -3.3901 -1.3321
    7MOL   H416 3428   0.789   3.871   1.308  1.0453 -1.7991  0.1984
    7MOL   H417 3429   0.681   3.740   1.315 -1.1939  1.4084  1.7153
    7MOL   H418 3430   0.578   4.003   1.204  1.2876  1.6199  1.1375
    7MOL   H419 3431   0.488   3.873   1.276 -1.3200  2.1192  0.2710
    7MOL   H420 3432   0.657   4.076   1.427 -1.6453  1.5227 -0.0833
    7MOL   H421 3433   0.500   4.090   1.417  2.1393  1.4678  0.5425
    7MOL   H422 3434   0.667   3.867   1.557  1.3804  2.0731 -0.8234
    7MOL   H423 3435   0.586   3.994   1.635  0.0415  1.1508  0.0057
    7MOL   H424 3436   0.421   3.816   1.673  0.8609 -3.9066  0.0612
    7MOL   H425 3437   0.360   3.873   1.528 -0.1445 -2.6207 -0.9496
    7MOL   H426 3438   0.467   3.738   1.520  1.4027  1.3549 -1.0724
    7MOL   C427 3439   0.975   4.048   0.960  1.1813  0.5136 -0.6488
    7MOL   C428 3440   1.075   4.028   1.074 -0.5945 -0.2349  0.8300
    7MOL   O429 3441   1.167   3.920   1.028  0.6865  0.1624 -0.8641
    7MOL   C430 3442   1.210   3.821   1.123 -0.0512  0.0607 -1.1251
    7MOL   C431 3443   1.323   3.733   1.079 -0.3499 -0.4722 -0.0448
    7MOL   C432 3444   1.460   3.797   1.071  0.0845 -0.4878  0.5869
    7MOL   C433 3445   1.573   3.697   1.047 -0.3720  0.2554  0.4981
    7MOL   C434 3446   1.712   3.759   1.020  0.0870 -0.0459  0.6320
    7MOL   C435 3447   1.760   3.817   1.158  0.2066 -0.0625  0.5609
    7MOL   H436 3448   1.033   4.057   0.868  0.2580 -1.6105 -1.4908
    7MOL   H437 3449   0.921   4.142   0.971  0.9410  0.4377 -1.1680
    7MOL   H438 3450   1.008   3.997   1.154  0.2815 -0.5580  1.4416
    7MOL   H439 3451   1.121   3.761   1.141 -1.0335  1.9363  0.4443
    7MOL   H440 3452   1.233   3.870   1.218  0.7421  1.1681 -1.8832
    7MOL   H441 3453   1.305   3.688   0.982  1.6706  0.7989 -1.0445
    7MOL   H442 3454   1.328   3.648   1.146  1.5788  0.6696  1.3132
    7MOL   H443 3455   1.458   3.872   0.991 -2.0729 -0.4292  0.6741
    7MOL   H444 3456   1.474   3.851   1.164  0.6546  1.8421 -0.7925
    7MOL   H445 3457   1.562   3.637   1.138  0.8174 -0.9310 -0.1192
    7MOL   H446 3458   1.541   3.627   0.970 -0.3585  1.3940 -0.5499
    7MOL   H447 3459   1.780   3.691   0.969 -0.2916 -0.4931  0.7146
    7MOL   H448 3460   1.684   3.832   0.944  2.4719  0.4492  0.1890
    7MOL   H449 3461   1.696   3.901   1.183 -0.1956 -0.2919  0.3245
    7MOL   H450 3462   1.747   3.737   1.231  1.0680 -1.6382 -0.9690
    7MOL   H451 3463   1.867   3.837   1.155  0.3845 -0.9787  0.5432
    7MOL   C452 3464   1.157   4.153   1.101 -0.6685 -0.2430  0.0230
    7MOL   C453 3465   1.083   4.271   1.170  1.2119  0.0853  0.5041
    7MOL   O454 3466   1.174   4.377   1.173 -0.3526  0.0418  0.7375
    7MOL   C455 3467   1.175   4.457   1.057 -0.6530  0.0517 -0.3363
    7MOL   C456 3468   1.224   4.588   1.120  0.0514  0.4085  0.3367
    7MOL   C457 3469   1.364   4.581   1.189  0.2111  0.4222  0.2995
    7MOL   C458 3470   1.409   4.719   1.246 -0.4236  0.4939 -0.4556
    7MOL   C459 3471   1.491   4.722   1.373  0.0811 -0.9052 -0.6674
    7MOL   C460 3472   1.420   4.670   1.492  0.0652  0.1861 -0.5020
    7MOL   H461 3473   1.236   4.113   1.164 -2.4714 -3.1852  0.5318
    7MOL   H462 3474   1.200   4.188   1.007  2.0818 -1.6592  0.7238
    7MOL   H463 3475   0.990   4.298   1.120 -0.1122 -0.0832  2.7747
    7MOL   H464 3476   1.076   4.485   1.023 -0.4320  0.0553 -0.9697
    7MOL   H465 3477   1.236   4.420   0.975  0.1784  0.6215  0.0025
    7MOL   H466 3478   1.145   4.626   1.184 -1.5023 -0.5464 -0.9817
    7MOL   H467 3479   1.234   4.662   1.040  0.7769  0.2169  0.2492
    7MOL   H468 3480   1.361   4.511   1.273 -0.6130 -1.1886 -1.0504
    7MOL   H469 3481   1.451   4.550   1.131  0.2510  1.0069  0.0444
    7MOL   H470 3482   1.460   4.779   1.171 -0.4458 -0.5922 -1.3548
    7MOL   H471 3483   1.323   4.785   1.259 -1.6735 -1.1510 -0.1736
    7MOL   H472 3484   1.574   4.657   1.348  0.6674 -0.4367  0.0513
    7MOL   H473 3485   1.536   4.821   1.380  1.8478 -1.8497  2.0919
    7MOL   H474 3486   1.368   4.576   1.472  0.5201 -0.0559 -0.5768
    7MOL   H475 3487   1.487   4.667   1.578  0.9587  0.5680 -1.1748
    7MOL   H476 3488   1.356   4.752   1.523 -0.5892  0.5611 -2.7657
    7MOL   C477 3489   1.053   4.240   1.311 -0.0276  0.6894 -0.3441
    7MOL   C478 3490   1.021   4.370   1.394  0.1224  0.6634  0.2028
    7MOL   O479 3491   0.959   4.350   1.526 -0.1260  0.0866  0.5812
    7MOL   C480 3492   0.818   4.321   1.529 -0.6816 -0.1120 -0.4470
    7MOL   C481 3493   0.766   4.301   1.676 -0.1425  1.1281 -0.7950
    7MOL   C482 3494   0.747   4.437   1.752  1.0417 -0.7734 -0.1131
    7MOL   C483 3495   0.683   4.426   1.886  0.7118 -0.1659  1.1599
    7MOL   C484 3496   0.626   4.555   1.934  0.1507 -0.5795 -0.6041
    7MOL   C485 3497   0.578   4.571   2.080  0.5153 -0.4336 -0.8498
    7MOL   H486 3498   0.968   4.172   1.316 -0.4260  1.2995  1.6653
    7MOL   H487 3499   1.127   4.178   1.362  0.0336  0.3646 -0.8180
    7MOL   H488 3500   1.116   4.411   1.426 -0.1385  1.1398  0.3768
    7MOL   H489 3501   0.791   4.238   1.464  0.3927 -2.6002  2.2089
    7MOL   H490 3502   0.774   4.412   1.488 -0.9542 -0.8626 -1.8549
    7MOL   H491 3503   0.829   4.229   1.729 -1.6661  2.4390  2.9596
    7MOL   H492 3504   0.671   4.248   1.667  0.1924  0.5771 -1.0812
    7MOL   H493 3505   0.835   4.499   1.761  0.7828 -0.5418  0.8326
    7MOL   H494 3506   0.684   4.503   1.692  0.0760  0.6513  2.4220
    7MOL   H495 3507   0.600   4.355   1.888  0.9345 -0.4160  1.8311
    7MOL   H496 3508   0.758   4.386   1.955 -0.3781 -2.0649  1.2687
    7MOL   H497 3509   0.701   4.634   1.930 -0.4262  0.2073  2.5514
    7MOL   H498 3510   0.543   4.576   1.866 -2.0457 -0.9173  1.9028
    7MOL   H499 3511   0.533   4.667   2.106 -1.0590 -1.3281 -0.1436
    7MOL   H500 3512   0.499   4.497   2.097 -0.7836  1.7141  3.1900
    7MOL   H501 3513   0.660   4.559   2.151  0.6086  2.0633 -0.4931
    7MOL   H502 3514   0.982   4.452   1.334 -0.9999 -0.4753 -0.6658
    8MOL     C1 3515   4.992   3.277   4.755  0.7451 -0.5550 -0.2078
    8MOL     C2 3516   4.926   3.316   4.895 -0.1436 -1.0846  0.3866
    8MOL     O3 3517   4.905   3.463   4.890 -0.1416  0.3609 -0.3739
    8MOL     C4 3518   4.787   3.495   4.826 -0.0738  0.3304 -0.0386
    8MOL     C5 3519   4.756   3.646   4.824 -0.0888 -0.0801  0.1057
    8MOL     C6 3520   4.665   3.692   4.711  0.3124 -0.4760  0.8648
    8MOL     C7 3521   4.624   3.833   4.736 -0.2880  0.4039 -0.2887
    8MOL     C8 3522   4.557   3.908   4.618  0.6284 -0.4291 -0.3158
    8MOL     C9 3523   4.526   4.060   4.628  0.6488  0.7278 -0.1213
    8MOL    H10 3524   5.098   3.303   4.753  0.6161 -0.1234 -1.4807
    8MOL    H11 3525   4.979   3.170   4.737 -1.8685  0.0390 -2.0135
    8MOL    H12 3526   4.824   3.278   4.894 -0.4897 -0.1737  0.2878
    8MOL    H13 3527   4.698   3.464   4.880 -0.9246  1.9909 -0.4615
    8MOL    H14 3528   4.781   3.448   4.727 -0.6852 -1.6102  0.8879
    8MOL    H15 3529   4.845   3.710   4.823 -0.6221  0.7235  1.9848
    8MOL    H16 3530   4.710   3.667   4.920 -2.2055  1.9922 -1.2877
    8MOL    H17 3531   4.715   3.684   4.614  0.4251 -3.5660  1.1037
    8MOL    H18 3532   4.572   3.635   4.700 -2.4708  3.6385  1.9616
    8MOL    H19 3533   4.554   3.835   4.819  0.1909 -1.0127  0.1672
    8MOL    H20 3534   4.707   3.899   4.761 -0.2082 -0.1129  0.8058
    8MOL    H21 3535   4.466   3.850   4.612  0.0333  0.5133 -0.5719
    8MOL    H22 3536   4.610   3.900   4.523 -2.0514 -1.3943 -1.7669
    8MOL    H23 3537   4.476   4.100   4.539  1.6344  0.0137 -1.0043
    8MOL    H24 3538   4.464   4.070   4.717 -0.5751 -1.1714 -0.7435
    8MOL    H25 3539   4.614   4.122   4.643  0.5936  1.3473 -2.0803
    8MOL    H26 3540   4.950   3.319   4.664  4.7073  2.7922 -0.6439
    8MOL    C27 3541   4.997   3.267   5.017 -1.4201  0.0545  0.0521
    8MOL    C28 3542   5.020   3.115   5.042  0.8341 -0.8414  0.1519
    8MOL    O29 3543   5.069   3.106   5.172  0.0453  0.0074  0.2224
    8MOL    C30 3544   5.216   3.114   5.187  0.3266  0.6078  0.3358
    8MOL    C31 3545   5.248   3.092   5.338  0.1593 -0.3229  0.4334
    8MOL    C32 3546   5.221   2.953   5.396  0.7212 -0.6886 -0.0656
    8MOL    C33 3547   5.257   2.934   5.543  0.1330 -1.1315  0.0228
    8MOL    C34 3548   5.252   2.789   5.595  0.5199 -0.9975 -0.5453
    8MOL    C35 3549   5.290   2.772   5.744 -0.1819 -0.6169 -0.0125
    8MOL    H36 3550   5.091   3.319   4.997 -1.6866 -0.5542 -2.9389
    8MOL    H37 3551   4.959   3.312   5.109 -1.0489  1.3268 -0.4087
    8MOL    H38 3552   5.086   3.074   4.965  1.8573 -0.8266  1.0156
    8MOL    H39 3553   5.227   3.220   5.164  0.8147  0.0908 -1.9413
    8MOL    H40 3554   5.276   3.056   5.117  0.2755 -0.0033  0.8004
    8MOL    H41 3555   5.198   3.167   5.399  1.6474  0.5712  0.5872
    8MOL    H42 3556   5.354   3.115   5.349  0.1282  0.7437 -1.3097
    8MOL    H43 3557   5.118   2.923   5.374 -0.1120  0.8749  1.6115
    8MOL    H44 3558   5.283   2.882   5.340 -2.7606 -2.6041 -1.7190
    8MOL    H45 3559   5.358   2.975   5.555  0.1164 -0.6566 -1.4201
    8MOL    H46 3560   5.189   2.990   5.607  0.2651 -0.4187 -0.4535
    8MOL    H47 3561   5.152   2.746   5.589  0.0613  0.0682 -0.6403
    8MOL    H48 3562   5.318   2.729   5.532  1.7116  0.9183 -1.1671
    8MOL    H49 3563   5.219   2.829   5.805  2.2432  0.5491  1.8051
    8MOL    H50 3564   5.276   2.664   5.756  3.4653 -0.8000  3.7778
    8MOL    H51 3565   5.389   2.799   5.778 -1.2921  2.7299  0.7357
    8MOL    C52 3566   4.892   3.037   5.032  0.1179  0.0295 -0.7163
    8MOL    C53 3567   4.914   2.876   5.047 -0.0017  0.3491  0.4409
    8MOL    O54 3568   4.789   2.808   5.058 -0.4205  0.1595 -0.5677
    8MOL    C55 3569   4.743   2.788   5.193 -0.4443 -0.1065 -0.2080
    8MOL    C56 3570   4.786   2.648   5.250 -0.3825 -0.4444  0.1778
    8MOL    C57 3571   4.697   2.592   5.354  0.2575 -0.6393  0.0286
    8MOL    C58 3572   4.749   2.478   5.430  0.3595 -0.1037 -0.5518
    8MOL    C59 3573   4.638   2.401   5.502 -0.6803  0.3893  0.5648
    8MOL    C60 3574   4.683   2.269   5.566  0.3883 -0.0954 -0.6190
    8MOL    H61 3575   4.838   3.053   4.939  0.4142 -1.8176 -1.2417
    8MOL    H62 3576   4.815   3.060   5.106  0.5482 -2.1605  0.4779
    8MOL    H63 3577   4.969   2.870   5.141  1.9392 -0.9327 -0.7590
    8MOL    H64 3578   4.634   2.788   5.185 -0.3899 -0.5619 -0.9651
    8MOL    H65 3579   4.755   2.871   5.263  0.4159 -0.3949 -0.0178
    8MOL    H66 3580   4.887   2.652   5.290 -0.2006  0.7545 -0.3736
    8MOL    H67 3581   4.801   2.582   5.165 -1.8867 -0.2940 -0.2169
    8MOL    H68 3582   4.668   2.668   5.428 -0.5306 -0.8430 -0.0697
    8MOL    H69 3583   4.609   2.552   5.304  2.3037 -3.1567 -1.6782
    8MOL    H70 3584   4.797   2.418   5.352  0.1481  0.7728 -1.3709
    8MOL    H71 3585   4.829   2.510   5.496  0.0778 -1.3899  0.4274
    8MOL    H72 3586   4.609   2.476   5.576 -0.9901  0.3417  0.4941
    8MOL    H73 3587   4.560   2.372   5.431 -0.0993  2.3015 -0.9003
    8MOL    H74 3588   4.607   2.239   5.638  1.7026 -0.7361  0.5380
    8MOL    H75 3589   4.671   2.191   5.491  0.7997 -1.4129  0.6592
    8MOL    H76 3590   4.778   2.277   5.619 -0.3489  0.5652  0.6493
    8MOL    C77 3591   4.990   2.820   4.929  0.5500 -0.7066  0.4285
    8MOL    C78 3592   5.084   2.701   4.946  0.8185  0.3781  0.0949
    8MOL    O79 3593   5.197   2.753   5.011  0.0199  0.3013 -0.5955
    8MOL    C80 3594   5.305   2.663   5.032 -0.1372  0.3110  0.0497
    8MOL    C81 3595   5.426   2.722   5.110  0.4401 -0.0757  0.6234
    8MOL    C82 3596   5.533   2.611   5.145  0.4013  0.0707  0.0425
    8MOL    C83 3597   5.653   2.640   5.231 -0.0376  0.1260 -0.1304
    8MOL    C84 3598   5.621   2.667   5.373 -0.1796  0.2550 -0.6062
    8MOL    C85 3599   5.748   2.675   5.456  0.1771  0.1402 -0.1456
    8MOL    H86 3600   5.042   2.903   4.881 -2.1912  0.1828 -1.1307
    8MOL    H87 3601   4.922   2.794   4.848  0.6248  1.3704 -0.3117
    8MOL    H88 3602   5.030   2.628   5.005 -0.1006 -0.6910 -1.9987
    8MOL    H89 3603   5.335   2.635   4.931 -0.1799  1.9945 -0.4363
    8MOL    H90 3604   5.266   2.572   5.079  1.1810 -0.9212 -1.1845
    8MOL    H91 3605   5.386   2.772   5.198  1.3007  1.8021 -0.0275
    8MOL    H92 3606   5.474   2.796   5.046  0.7359  0.0723  1.0152
    8MOL    H93 3607   5.488   2.535   5.209  1.1177  1.0917  1.7620
    8MOL    H94 3608   5.562   2.558   5.054  2.5869  2.0880 -0.4779
    8MOL    H95 3609   5.725   2.560   5.223  0.9267  1.0344 -0.6522
    8MOL    H96 3610   5.703   2.726   5.187  2.0956 -0.2652  1.4482
    8MOL    H97 3611   5.558   2.756   5.371 -0.5608  0.0423  1.4522
    8MOL    H98 3612   5.559   2.588   5.416  0.7265 -0.1501 -0.0229
    8MOL    H99 3613   5.747   2.638   5.558 -1.4649 -1.7912 -0.8363
    8MOL   H100 3614   5.822   2.613   5.405  0.8804  1.1860 -0.4330
    8MOL   H101 3615   5.791   2.775   5.446 -2.1123  0.8939 -3.1351
    8MOL   C102 3616   5.112   2.640   4.801 -0.0760  0.6897 -0.7205
    8MOL   C103 3617   5.115   2.486   4.791 -0.5963  0.3430 -0.1240
    8MOL   O104 3618   4.980   2.451   4.835 -0.1009 -0.5251 -0.5845
    8MOL   C105 3619   4.924   2.318   4.837  0.5706 -0.6365  0.1976
    8MOL   C106 3620   4.806   2.301   4.923 -0.6018 -0.0416 -0.8237
    8MOL   C107 3621   4.674   2.336   4.845 -0.4102  0.0538 -0.7607
    8MOL   C108 3622   4.551   2.313   4.928 -0.6439  0.3451  0.2215
    8MOL   C109 3623   4.536   2.414   5.044 -0.1199 -0.2482  0.0860
    8MOL   C110 3624   4.508   2.565   4.999 -0.1146 -0.2746  0.3295
    8MOL   H111 3625   5.026   2.653   4.735 -0.2418 -0.8532 -0.8341
    8MOL   H112 3626   5.189   2.688   4.740  0.7936  0.3272  0.0808
    8MOL   H113 3627   5.182   2.440   4.864  0.5491  2.6229  0.2754
    8MOL   H114 3628   5.002   2.258   4.883  1.0504  1.1062  1.7246
    8MOL   H115 3629   4.894   2.291   4.736  0.4289  1.6972 -0.4276
    8MOL   H116 3630   4.815   2.367   5.009 -0.4942  0.1880 -1.0125
    8MOL   H117 3631   4.798   2.203   4.969 -1.2144  0.3774 -0.0277
    8MOL   H118 3632   4.677   2.440   4.812 -0.8685  0.2885 -0.0624
    8MOL   H119 3633   4.666   2.281   4.751 -0.4837 -1.5294  0.1546
    8MOL   H120 3634   4.459   2.307   4.870  0.3358 -2.6527 -1.1063
    8MOL   H121 3635   4.551   2.211   4.964 -0.7575  0.4533  0.5302
    8MOL   H122 3636   4.454   2.379   5.108  1.6546  0.3513  2.7753
    8MOL   H123 3637   4.624   2.402   5.107 -0.4954 -1.0222  0.4800
    8MOL   H124 3638   4.583   2.601   4.928 -1.5048  0.0358 -1.0155
    8MOL   H125 3639   4.413   2.564   4.946  0.1245 -1.2294 -0.1023
    8MOL   H126 3640   4.510   2.627   5.088 -1.2052 -1.5994  1.2943
    8MOL   C127 3641   5.156   2.438   4.647 -0.3233 -0.4777  0.3417
    8MOL   C128 3642   5.291   2.447   4.590  0.3148  0.0976 -0.6636
    8MOL   O129 3643   5.312   2.379   4.463  0.0416 -1.1841  0.5476
    8MOL   C130 3644   5.247   2.419   4.343  0.4538  0.5030  0.7972
    8MOL   C131 3645   5.322   2.372   4.216 -0.0991  0.4231 -0.2929
    8MOL   C132 3646   5.259   2.404   4.079  1.6641 -0.3887  0.6155
    8MOL   C133 3647   5.332   2.327   3.966  0.1381  0.5272 -0.3959
    8MOL   C134 3648   5.267   2.349   3.828 -0.3777  0.5839 -0.6568
    8MOL   C135 3649   5.353   2.288   3.713 -0.4770 -0.2647 -0.3296
    8MOL   H136 3650   5.119   2.338   4.624 -1.4024 -0.3868  1.6516
    8MOL   H137 3651   5.086   2.489   4.581 -1.6517 -4.4449 -1.4393
    8MOL   H138 3652   5.309   2.552   4.566 -1.5427  0.8853  1.2656
    8MOL   H139 3653   5.240   2.526   4.328  1.5777  0.4586 -0.1029
    8MOL   H140 3654   5.144   2.384   4.334 -0.1660  1.0716  4.6573
    8MOL   H141 3655   5.331   2.263   4.221 -2.5105  0.2624  1.2230
    8MOL   H142 3656   5.420   2.420   4.209 -0.1231  1.2524  3.7567
    8MOL   H143 3657   5.159   2.361   4.084  2.3627 -2.4382 -1.6266
    8MOL   H144 3658   5.225   2.505   4.058 -0.2819 -1.5245 -2.0935
    8MOL   H145 3659   5.432   2.368   3.975  1.9881 -3.5974 -0.9222
    8MOL   H146 3660   5.341   2.220   3.984  1.3219  0.4885 -1.1749
    8MOL   H147 3661   5.165   2.311   3.823 -0.2802  0.2826 -0.3638
    8MOL   H148 3662   5.254   2.455   3.806  2.5865  1.3763  1.1624
    8MOL   H149 3663   5.365   2.180   3.723 -0.4914 -0.3828 -1.4719
    8MOL   H150 3664   5.295   2.304   3.622 -1.6317  1.2912  0.6381
    8MOL   H151 3665   5.450   2.337   3.707  0.5880 -2.3337 -0.5257
    8MOL   C152 3666   5.412   2.379   4.667  0.3549  0.7015  0.2469
    8MOL   C153 3667   5.540   2.461   4.660 -0.2676 -0.1422  0.1021
    8MOL   O154 3668   5.515   2.592   4.724  0.1145  0.8971  0.2086
    8MOL   C155 3669   5.604   2.705   4.699  0.5927  0.1201  0.5798
    8MOL   C156 3670   5.546   2.835   4.740 -0.1333 -0.3333 -0.7407
    8MOL   C157 3671   5.440   2.891   4.642  1.0098  0.5053  0.0155
    8MOL   C158 3672   5.344   2.994   4.715 -0.7122 -0.7431 -0.0765
    8MOL   C159 3673   5.263   3.078   4.616 -0.4416 -0.2332 -0.6154
    8MOL   C160 3674   5.138   3.004   4.562 -0.5535 -0.7072 -0.5216
    8MOL   H161 3675   5.385   2.364   4.772  1.2102  0.9294  0.5054
    8MOL   H162 3676   5.428   2.277   4.632  1.7827  0.3388  1.8858
    8MOL   H163 3677   5.552   2.480   4.553 -1.0671 -1.5921 -0.2495
    8MOL   H164 3678   5.639   2.715   4.596 -1.2915 -0.2013 -0.1261
    8MOL   H165 3679   5.694   2.679   4.754 -0.1952 -1.0960  1.3327
    8MOL   H166 3680   5.620   2.912   4.762 -0.7061  0.2958 -0.9821
    8MOL   H167 3681   5.506   2.814   4.839  0.5084 -1.4675 -0.7173
    8MOL   H168 3682   5.475   2.941   4.551  0.7260  1.9150  0.6691
    8MOL   H169 3683   5.380   2.810   4.601  1.8540  0.0597 -0.3571
    8MOL   H170 3684   5.282   2.937   4.783 -1.0134 -0.3227  0.0034
    8MOL   H171 3685   5.410   3.055   4.777 -2.1793 -0.9579  1.7300
    8MOL   H172 3686   5.223   3.161   4.674 -0.3228 -1.9007  1.9712
    8MOL   H173 3687   5.314   3.127   4.534 -1.2988  0.3909 -0.7750
    8MOL   H174 3688   5.087   3.073   4.495 -1.1562  0.7170  1.3767
    8MOL   H175 3689   5.164   2.908   4.516 -0.0837 -0.6782 -0.3190
    8MOL   H176 3690   5.086   2.971   4.652  0.5427  0.0651  0.4044
    8MOL   C177 3691   5.671   2.400   4.722  0.1664  0.3165 -0.2241
    8MOL   C178 3692   5.711   2.255   4.681 -0.4578 -0.4333 -0.3776
    8MOL   O179 3693   5.616   2.163   4.732 -0.1419  0.4125  0.0185
    8MOL   C180 3694   5.654   2.106   4.860  0.2365 -0.1262 -0.4397
    8MOL   C181 3695   5.601   1.961   4.885 -0.3097  0.3119  0.1837
    8MOL   C182 3696   5.669   1.852   4.799  0.0895 -0.2193 -0.4805
    8MOL   C183 3697   5.637   1.704   4.845  0.1056 -0.6583  0.1910
    8MOL   C184 3698   5.725   1.595   4.780 -0.1407 -0.1626  0.2242
    8MOL   C185 3699   5.674   1.460   4.782  0.2168 -0.2821  0.4861
    8MOL   H186 3700   5.760   2.461   4.715  0.9045 -0.8012 -0.8516
    8MOL   H187 3701   5.648   2.406   4.828 -0.8255 -0.0364 -0.4120
    8MOL   H188 3702   5.811   2.242   4.721 -0.3387  1.7002  0.0894
    8MOL   H189 3703   5.610   2.171   4.935 -1.5302 -1.9256  0.1513
    8MOL   H190 3704   5.761   2.106   4.880 -0.1224  1.2722  1.5550
    8MOL   H191 3705   5.493   1.957   4.871  0.1338 -1.3602 -3.4997
    8MOL   H192 3706   5.608   1.940   4.992 -3.1911  2.6143  0.8765
    8MOL   H193 3707   5.624   1.849   4.699 -3.3572  1.0199  0.9602
    8MOL   H194 3708   5.776   1.870   4.796  0.2508 -1.2541 -1.2069
    8MOL   H195 3709   5.639   1.695   4.954 -0.8712  0.9055  0.3552
    8MOL   H196 3710   5.532   1.691   4.820  0.0116  0.5566 -0.0656
    8MOL   H197 3711   5.750   1.617   4.676 -2.3811 -2.3370 -0.8251
    8MOL   H198 3712   5.823   1.595   4.828  0.1993  1.6853 -0.4106
    8MOL   H199 3713   5.731   1.396   4.715  0.6439 -0.6142  1.1598
    8MOL   H200 3714   5.688   1.417   4.881 -0.5074 -1.3924  0.1142
    8MOL   H201 3715   5.566   1.453   4.765  0.5187 -1.1500 -1.1136
    8MOL   C202 3716   5.725   2.233   4.529 -0.7047  0.0546  0.1616
    8MOL   C203 3717   5.813   2.111   4.498  0.1807 -0.4182 -0.2894
    8MOL   O204 3718   5.944   2.124   4.550 -0.7413  0.8148 -0.2827
    8MOL   C205 3719   6.020   2.009   4.569  0.3408 -0.1917  0.5419
    8MOL   C206 3720   6.053   2.007   4.722  0.0637  0.6002 -0.0417
    8MOL   C207 3721   6.103   1.871   4.784 -0.0305 -0.0121 -0.0720
    8MOL   C208 3722   6.116   1.875   4.937 -0.8811 -0.3890 -0.8770
    8MOL   C209 3723   6.160   1.750   5.003  0.2166 -0.0162 -0.3676
    8MOL   C210 3724   6.173   1.762   5.149  0.2226 -0.2704 -0.6943
    8MOL   H211 3725   5.626   2.211   4.487 -0.5480 -0.6892  0.1751
    8MOL   H212 3726   5.765   2.323   4.481  0.6441 -0.9099 -0.5472
    8MOL   H213 3727   5.760   2.026   4.540 -0.8309  0.9383  1.2703
    8MOL   H214 3728   6.107   2.018   4.505 -0.2334 -3.9187 -0.8388
    8MOL   H215 3729   5.970   1.921   4.529  3.3190 -1.1518 -1.1730
    8MOL   H216 3730   5.957   2.022   4.772  0.4349  3.2121 -0.0788
    8MOL   H217 3731   6.106   2.097   4.752  0.4524 -0.0014  1.1229
    8MOL   H218 3732   6.033   1.789   4.767 -0.3504  0.0953  0.7144
    8MOL   H219 3733   6.194   1.847   4.728 -0.4546  0.2947 -0.8936
    8MOL   H220 3734   6.187   1.954   4.964 -0.4408 -1.0665  0.0163
    8MOL   H221 3735   6.021   1.911   4.978 -0.5588 -0.0134 -0.4419
    8MOL   H222 3736   6.098   1.665   4.973  2.6631 -1.4661 -1.4527
    8MOL   H223 3737   6.255   1.727   4.954  0.2492  0.3885 -0.4903
    8MOL   H224 3738   6.220   1.678   5.200 -0.3826 -0.3219 -0.2098
    8MOL   H225 3739   6.228   1.853   5.170 -1.7191  0.4927  1.2972
    8MOL   H226 3740   6.084   1.771   5.212  1.0847 -2.1985  0.8650
    8MOL   C227 3741   5.840   2.092   4.342 -0.9811  0.5111 -0.0634
    8MOL   C228 3742   5.713   2.070   4.261 -1.2065  0.3175  0.3873
    8MOL   O229 3743   5.732   2.073   4.119 -0.2516  0.4266 -0.3852
    8MOL   C230 3744   5.745   2.202   4.065  0.4445  0.2380  0.7833
    8MOL   C231 3745   5.762   2.199   3.912  0.3213 -0.1582  0.0579
    8MOL   C232 3746   5.770   2.341   3.855 -0.5124  0.8114  0.0823
    8MOL   C233 3747   5.823   2.338   3.712 -0.2345  0.4393 -0.2309
    8MOL   C234 3748   5.800   2.475   3.648 -0.1022  0.1007  0.1526
    8MOL   C235 3749   5.892   2.488   3.526  0.8758 -0.3892  0.6340
    8MOL   H236 3750   5.883   2.188   4.314  0.5342  0.1346  0.9303
    8MOL   H237 3751   5.914   2.016   4.318 -0.7024  1.0880 -1.0979
    8MOL   H238 3752   5.643   2.147   4.293  0.1674  1.3596  0.9204
    8MOL   H239 3753   5.840   2.243   4.100 -1.9897  4.0077  3.4334
    8MOL   H240 3754   5.670   2.275   4.094  1.4376  0.9589  1.5799
    8MOL   H241 3755   5.672   2.148   3.877  0.7405 -1.3520  0.7073
    8MOL   H242 3756   5.852   2.140   3.893 -0.2543 -1.4679  1.3353
    8MOL   H243 3757   5.682   2.404   3.863 -1.2523  0.6155 -4.8191
    8MOL   H244 3758   5.842   2.388   3.922  0.9620 -0.5266 -0.5169
    8MOL   H245 3759   5.926   2.305   3.724 -0.9606 -1.3850  1.3837
    8MOL   H246 3760   5.772   2.260   3.655 -1.0402  0.3426  0.5959
    8MOL   H247 3761   5.697   2.493   3.619  0.6207  2.8701 -0.7807
    8MOL   H248 3762   5.823   2.556   3.717 -1.5898 -0.9365  1.9133
    8MOL   H249 3763   5.884   2.585   3.477 -2.0497 -1.5807 -1.4134
    8MOL   H250 3764   5.994   2.484   3.564 -0.4327  1.1483  4.4968
    8MOL   H251 3765   5.873   2.406   3.456 -0.9779  0.4007  0.1840
    8MOL   C252 3766   5.624   1.946   4.305 -0.2357  0.0706 -0.2919
    8MOL   C253 3767   5.480   1.931   4.259 -0.1871  0.4972 -0.4097
    8MOL   O254 3768   5.425   1.812   4.317  0.4614 -0.0612 -0.4398
    8MOL   C255 3769   5.387   1.814   4.447  1.0767 -0.1825 -0.1553
    8MOL   C256 3770   5.355   1.674   4.474 -0.0141 -0.0198 -1.1452
    8MOL   C257 3771   5.270   1.664   4.596  0.2916 -0.3960  0.0780
    8MOL   C258 3772   5.196   1.529   4.619  0.4849 -0.0739 -0.3290
    8MOL   C259 3773   5.290   1.421   4.683 -0.0354 -0.2231 -0.3507
    8MOL   C260 3774   5.307   1.431   4.832  0.2982 -0.2319 -0.2337
    8MOL   H261 3775   5.693   1.869   4.271 -3.1821 -2.7370 -0.0945
    8MOL   H262 3776   5.620   1.938   4.414  3.2375 -0.9766 -0.1661
    8MOL   H263 3777   5.426   2.017   4.297  0.3970  0.2520  1.0335
    8MOL   H264 3778   5.300   1.881   4.451  1.4149  0.3580 -1.3991
    8MOL   H265 3779   5.462   1.852   4.516  2.0866  0.3424 -1.5244
    8MOL   H266 3780   5.449   1.620   4.484  0.6234  1.0515 -1.2820
    8MOL   H267 3781   5.307   1.622   4.391 -1.7577  0.9650 -0.7769
    8MOL   H268 3782   5.336   1.682   4.681  0.5942 -0.2313 -0.1922
    8MOL   H269 3783   5.193   1.741   4.586  1.0577  0.3511 -0.1285
    8MOL   H270 3784   5.119   1.566   4.687  0.5603  0.3781 -0.4849
    8MOL   H271 3785   5.148   1.494   4.527 -0.4853 -1.3673  0.6624
    8MOL   H272 3786   5.241   1.324   4.674  0.4710 -0.4749 -0.4143
    8MOL   H273 3787   5.381   1.416   4.623 -0.9509  3.0227 -2.1104
    8MOL   H274 3788   5.367   1.349   4.871  2.9819  1.7555 -0.1302
    8MOL   H275 3789   5.352   1.525   4.863  0.2518 -1.2556  3.1267
    8MOL   H276 3790   5.215   1.438   4.891 -0.3055 -2.4995 -0.8445
    8MOL   C277 3791   5.461   1.926   4.104 -0.1679 -0.6862  0.9220
    8MOL   C278 3792   5.317   1.904   4.041  0.4765 -0.2631 -0.8283
    8MOL   O279 3793   5.235   2.013   4.084  0.2053 -0.0375  0.2429
    8MOL   C280 3794   5.131   1.968   4.177 -0.1939  0.4322  0.0551
    8MOL   C281 3795   5.057   2.090   4.232 -0.1729 -0.6154 -0.7978
    8MOL   C282 3796   4.945   2.054   4.335 -0.4880 -0.1969 -0.0581
    8MOL   C283 3797   4.859   2.177   4.368  0.5622 -0.0031 -0.9869
    8MOL   C284 3798   4.788   2.143   4.495  0.6071 -0.4002  0.7155
    8MOL   C285 3799   4.694   2.018   4.500 -0.0583  0.2093 -0.1125
    8MOL   H286 3800   5.494   2.020   4.061 -2.4915  0.6532  1.9982
    8MOL   H287 3801   5.527   1.851   4.060  0.4404  0.3573  0.0338
    8MOL   H288 3802   5.273   1.807   4.062  1.1488 -0.3991 -0.0525
    8MOL   H289 3803   5.168   1.899   4.253 -3.4524  0.3061  1.6149
    8MOL   H290 3804   5.057   1.912   4.121 -2.2946  2.6375  0.5720
    8MOL   H291 3805   5.029   2.147   4.143  3.4694  3.2116  0.3146
    8MOL   H292 3806   5.141   2.137   4.285 -1.9928 -0.5003  2.0684
    8MOL   H293 3807   4.879   1.978   4.294 -1.5475  0.1357  1.0120
    8MOL   H294 3808   4.997   2.020   4.425  1.1523  1.5661 -0.2985
    8MOL   H295 3809   4.919   2.266   4.386  1.2476 -0.2513 -2.0562
    8MOL   H296 3810   4.786   2.198   4.290 -1.4630  0.8808  1.0747
    8MOL   H297 3811   4.862   2.152   4.575 -0.0335  0.0753  1.2507
    8MOL   H298 3812   4.727   2.233   4.503  1.6287  0.2689  1.0697
    8MOL   H299 3813   4.624   2.024   4.417 -1.6043  0.0906  1.1587
    8MOL   H300 3814   4.749   1.924   4.498 -2.1913 -1.0580 -2.2789
    8MOL   H301 3815   4.636   2.004   4.591  1.2454  2.0422  1.0264
    8MOL   C302 3816   5.328   1.903   3.878  0.1261 -0.1413  0.1819
    8MOL   C303 3817   5.412   1.791   3.812  0.8221 -0.2889 -0.2373
    8MOL   O304 3818   5.475   1.851   3.699  0.1674 -0.0369  1.0096
    8MOL   C305 3819   5.602   1.895   3.728 -0.5831 -0.3695 -0.2938
    8MOL   C306 3820   5.669   1.970   3.612 -0.2074 -0.2095 -0.3566
    8MOL   C307 3821   5.696   1.891   3.483 -0.3459  0.3795 -0.1035
    8MOL   C308 3822   5.721   1.987   3.363  0.4012  0.3134 -0.7364
    8MOL   C309 3823   5.757   1.900   3.241  0.2824 -0.1786 -0.3187
    8MOL   C310 3824   5.639   1.827   3.185 -0.1518  0.2729  0.2956
    8MOL   H311 3825   5.226   1.907   3.838  1.2982  2.5372 -2.6693
    8MOL   H312 3826   5.378   1.996   3.853 -0.1805  0.1304  0.5683
    8MOL   H313 3827   5.481   1.755   3.888 -0.2687  2.4425  2.1026
    8MOL   H314 3828   5.666   1.809   3.747 -0.0699  0.4823  1.9869
    8MOL   H315 3829   5.605   1.958   3.817  1.5864 -0.1398 -0.5006
    8MOL   H316 3830   5.767   2.001   3.649  0.6382 -0.5877 -2.1880
    8MOL   H317 3831   5.613   2.060   3.589  0.1002  0.5387  1.7432
    8MOL   H318 3832   5.779   1.820   3.487  0.2545  0.8418 -3.0174
    8MOL   H319 3833   5.603   1.840   3.458 -0.6857  1.3711 -0.8939
    8MOL   H320 3834   5.649   2.066   3.344 -0.2094  0.8816  3.4637
    8MOL   H321 3835   5.806   2.045   3.398  0.2137  0.9251 -1.2878
    8MOL   H322 3836   5.795   1.963   3.160 -0.2060 -1.0205 -1.2065
    8MOL   H323 3837   5.845   1.846   3.276  0.4140  0.0392 -0.3102
    8MOL   H324 3838   5.599   1.753   3.253 -0.3904  0.2734  0.1580
    8MOL   H325 3839   5.553   1.881   3.145  0.8682 -0.1176 -2.6071
    8MOL   H326 3840   5.675   1.772   3.098 -1.7782  1.1513 -0.9694
    8MOL   C327 3841   5.307   1.677   3.772 -0.4488  0.2193 -0.3925
    8MOL   C328 3842   5.355   1.558   3.682  0.0908  0.0001 -0.3943
    8MOL   O329 3843   5.454   1.482   3.747 -0.6599 -0.1366  0.2591
    8MOL   C330 3844   5.575   1.478   3.681  0.2599  0.6619 -0.0442
    8MOL   C331 3845   5.670   1.379   3.757  0.1312  0.4812  0.2636
    8MOL   C332 3846   5.717   1.434   3.894 -0.2572  0.0795 -0.0518
    8MOL   C333 3847   5.816   1.556   3.886  0.0528  0.6580  0.3353
    8MOL   C334 3848   5.849   1.614   4.023  0.2290  0.1316 -0.0942
    8MOL   C335 3849   5.925   1.746   3.999  0.6427 -0.0065  0.1470
    8MOL   H336 3850   5.241   1.732   3.704 -1.2618 -1.3439 -0.8854
    8MOL   H337 3851   5.251   1.640   3.857  1.2516  0.0246  0.6450
    8MOL   H338 3852   5.398   1.605   3.594 -0.0017  2.5176  0.8553
    8MOL   H339 3853   5.618   1.578   3.679  0.6349  0.4875 -2.1268
    8MOL   H340 3854   5.557   1.450   3.577  1.3344 -0.9653  0.1809
    8MOL   H341 3855   5.759   1.362   3.695 -1.2232  1.2428 -1.9517
    8MOL   H342 3856   5.621   1.283   3.775 -0.1834  0.6890  0.5015
    8MOL   H343 3857   5.630   1.460   3.954 -0.6699  0.5548 -0.8534
    8MOL   H344 3858   5.772   1.345   3.926 -1.0431 -0.7690 -1.0233
    8MOL   H345 3859   5.909   1.529   3.836  1.5264  3.0511  1.6872
    8MOL   H346 3860   5.769   1.639   3.833 -1.1913 -0.5246 -0.4695
    8MOL   H347 3861   5.752   1.626   4.073  0.3545 -0.1058  0.2088
    8MOL   H348 3862   5.888   1.539   4.092  1.7137 -2.1038 -3.2628
    8MOL   H349 3863   5.868   1.800   3.923 -0.7512 -1.0886  0.3830
    8MOL   H350 3864   5.941   1.813   4.083  0.6242  1.3291 -0.9088
    8MOL   H351 3865   6.021   1.722   3.955  1.0426  0.1759  0.9101
    8MOL   C352 3866   5.243   1.468   3.628  0.3170  0.1373 -0.5664
    8MOL   C353 3867   5.125   1.519   3.545  0.7002 -0.1496  0.2328
    8MOL   O354 3868   5.029   1.424   3.581 -0.0157  0.7298 -0.2066
    8MOL   C355 3869   4.903   1.479   3.628  0.0407 -0.1614  0.1853
    8MOL   C356 3870   4.916   1.538   3.771  0.2645 -0.1104  0.2913
    8MOL   C357 3871   4.926   1.432   3.875 -0.3996  0.5243 -0.4120
    8MOL   C358 3872   4.904   1.499   4.017  0.7360 -0.0026 -0.2882
    8MOL   C359 3873   4.895   1.401   4.132  0.5112  0.5188 -0.1016
    8MOL   C360 3874   4.782   1.296   4.116  0.2904  0.4705 -0.4940
    8MOL   H361 3875   5.293   1.390   3.570  0.4566  0.5758 -1.0374
    8MOL   H362 3876   5.208   1.403   3.709 -0.7790  2.0864  0.5390
    8MOL   H363 3877   5.095   1.618   3.578  0.0835  0.2995 -1.6506
    8MOL   H364 3878   4.840   1.390   3.624  0.3515 -0.3043 -3.7612
    8MOL   H365 3879   4.862   1.547   3.552 -1.0477 -1.9055 -0.8272
    8MOL   H366 3880   4.819   1.586   3.786 -0.1265 -0.4301 -1.1242
    8MOL   H367 3881   4.998   1.609   3.776 -1.5355  1.9453  2.2329
    8MOL   H368 3882   4.853   1.352   3.866 -0.2513 -0.0185  2.6776
    8MOL   H369 3883   5.026   1.388   3.880  0.1341  1.8297  0.9519
    8MOL   H370 3884   4.993   1.560   4.031  1.3234 -0.3807 -2.1807
    8MOL   H371 3885   4.821   1.569   4.024  1.5731  0.9820 -0.1433
    8MOL   H372 3886   4.992   1.355   4.149  0.1070 -0.7686 -1.2410
    8MOL   H373 3887   4.875   1.452   4.227 -2.1824 -3.4646  1.6069
    8MOL   H374 3888   4.686   1.342   4.096  0.0057 -0.0950 -0.4509
    8MOL   H375 3889   4.799   1.228   4.032  2.0794  1.4204 -0.9211
    8MOL   H376 3890   4.772   1.235   4.206 -1.2701  0.6069 -0.5583
    8MOL   C377 3891   5.153   1.519   3.393 -0.5357 -0.1233 -0.2347
    8MOL   C378 3892   5.247   1.624   3.331  0.2118  0.1820 -0.6084
    8MOL   O379 3893   5.198   1.758   3.355 -0.0402 -0.0424 -0.1965
    8MOL   C380 3894   5.307   1.849   3.378 -0.1560 -0.0775 -0.7125
    8MOL   C381 3895   5.261   1.997   3.372 -0.0460  1.3976  0.2864
    8MOL   C382 3896   5.205   2.031   3.233  0.3345 -0.3922  0.3439
    8MOL   C383 3897   5.196   2.185   3.197  0.2917  0.9763 -0.4099
    8MOL   C384 3898   5.168   2.209   3.052 -0.2248 -0.5683  0.7790
    8MOL   C385 3899   5.119   2.358   3.028  0.6427  0.0103  0.1584
    8MOL   H386 3900   5.193   1.422   3.362  0.4472  0.4052 -0.6071
    8MOL   H387 3901   5.057   1.538   3.344 -0.7251  0.6142  0.4229
    8MOL   H388 3902   5.347   1.611   3.371  0.4389  1.9050 -0.5723
    8MOL   H389 3903   5.371   1.849   3.290 -1.0743  1.2508 -1.3824
    8MOL   H390 3904   5.356   1.817   3.470  3.0759 -1.1135 -2.7140
    8MOL   H391 3905   5.344   2.067   3.381  0.6278  0.8481 -1.3551
    8MOL   H392 3906   5.189   2.012   3.452 -1.5369  1.5386 -1.0596
    8MOL   H393 3907   5.272   1.982   3.163 -0.3296  0.2874 -0.7896
    8MOL   H394 3908   5.109   1.979   3.224  0.5713 -0.8464  0.4333
    8MOL   H395 3909   5.121   2.235   3.260  0.1184  0.3657 -0.1270
    8MOL   H396 3910   5.291   2.236   3.208  0.2727  0.8983  0.1454
    8MOL   H397 3911   5.254   2.196   2.987 -0.2105  0.8193  0.5004
    8MOL   H398 3912   5.087   2.142   3.024  0.2391 -0.2007 -1.5337
    8MOL   H399 3913   5.199   2.429   3.051 -0.7852  1.9885 -0.8702
    8MOL   H400 3914   5.098   2.372   2.922 -0.9296  0.3095  0.4967
    8MOL   H401 3915   5.042   2.397   3.094  0.8783 -1.1217  1.1102
    8MOL   C402 3916   5.251   1.596   3.179 -0.0718  0.5105  1.0930
    8MOL   C403 3917   5.297   1.458   3.124  0.1128 -0.0626  0.1865
    8MOL   O404 3918   5.438   1.446   3.143 -0.2295  0.3229 -0.2727
    8MOL   C405 3919   5.470   1.341   3.227  0.6778  0.0486  0.2787
    8MOL   C406 3920   5.613   1.351   3.285 -0.2723  0.0934  0.6568
    8MOL   C407 3921   5.711   1.418   3.185  0.1428 -0.3018  0.2202
    8MOL   C408 3922   5.845   1.453   3.245  0.2877  0.0964  0.2037
    8MOL   C409 3923   5.832   1.536   3.375 -0.4456 -0.4215 -0.6337
    8MOL   C410 3924   5.969   1.601   3.402  0.5441  0.2342  0.9788
    8MOL   H411 3925   5.320   1.671   3.141  1.6124 -0.3914  2.2944
    8MOL   H412 3926   5.159   1.626   3.129  1.4355  0.8101 -1.6019
    8MOL   H413 3927   5.243   1.377   3.174 -0.7077  2.1381  2.9670
    8MOL   H414 3928   5.455   1.242   3.184 -5.0415 -0.1452  2.3049
    8MOL   H415 3929   5.407   1.345   3.316  0.3118  2.0018 -0.0408
    8MOL   H416 3930   5.656   1.257   3.321  2.3087  0.0024 -2.3997
    8MOL   H417 3931   5.597   1.422   3.365 -0.2473  2.0419 -1.0393
    8MOL   H418 3932   5.725   1.357   3.096  0.3329  0.5123 -0.3192
    8MOL   H419 3933   5.667   1.516   3.163  1.3264  0.7026  2.1884
    8MOL   H420 3934   5.902   1.360   3.246 -0.9458 -0.6957 -0.8075
    8MOL   H421 3935   5.889   1.511   3.163  0.0237  0.5001  0.3460
    8MOL   H422 3936   5.752   1.610   3.373  1.1625  1.4793  2.5072
    8MOL   H423 3937   5.808   1.472   3.460  0.8429 -0.1036 -0.0193
    8MOL   H424 3938   5.968   1.661   3.493 -0.2197  2.9642 -0.7561
    8MOL   H425 3939   6.041   1.519   3.409  0.5047  0.1247  0.1914
    8MOL   H426 3940   5.999   1.666   3.319 -0.3400  1.5838  1.7029
    8MOL   C427 3941   5.262   1.434   2.981  0.4020 -0.3862  0.0672
    8MOL   C428 3942   5.279   1.294   2.927 -0.6401 -0.4948 -0.7010
    8MOL   O429 3943   5.158   1.223   2.966  0.7176  0.4952  0.2782
    8MOL   C430 3944   5.184   1.086   3.008  0.6251 -0.7092 -0.4538
    8MOL   C431 3945   5.067   1.043   3.102 -0.0566 -0.2119 -0.3596
    8MOL   C432 3946   5.105   1.087   3.249 -0.2920 -0.3713 -0.1639
    8MOL   C433 3947   4.993   1.054   3.350  0.3061 -0.2067 -0.2526
    8MOL   C434 3948   5.030   1.089   3.494  0.4889  0.0666 -0.7951
    8MOL   C435 3949   4.911   1.066   3.594 -0.2569  0.2047 -0.8553
    8MOL   H436 3950   5.160   1.464   2.957  0.1216 -1.7332 -0.5279
    8MOL   H437 3951   5.330   1.500   2.928 -0.8461 -0.1941 -1.3382
    8MOL   H438 3952   5.372   1.257   2.968  0.1591  3.5339  1.4128
    8MOL   H439 3953   5.279   1.094   3.061 -0.0889 -0.2177  0.7525
    8MOL   H440 3954   5.194   1.017   2.924  3.0979  0.1789 -0.9331
    8MOL   H441 3955   5.053   0.935   3.109 -0.0059 -0.1901  0.1216
    8MOL   H442 3956   4.977   1.093   3.067  1.0323  1.2022 -1.1901
    8MOL   H443 3957   5.200   1.043   3.277  0.0008  1.2605  1.5063
    8MOL   H444 3958   5.124   1.195   3.251  0.0096 -0.3925 -1.3709
    8MOL   H445 3959   4.900   1.103   3.320 -0.6948 -0.3432  2.4967
    8MOL   H446 3960   4.970   0.948   3.344  2.3008 -0.6086 -0.9286
    8MOL   H447 3961   5.110   1.025   3.531 -0.9523 -0.2638  1.8195
    8MOL   H448 3962   5.069   1.191   3.499  2.8707 -0.7564 -1.7950
    8MOL   H449 3963   4.825   1.119   3.552 -1.1896  0.1990  0.9947
    8MOL   H450 3964   4.891   0.959   3.598  0.9128  0.0296  0.7898
    8MOL   H451 3965   4.944   1.089   3.695  1.9365 -3.5535 -0.6316
    8MOL   C452 3966   5.280   1.309   2.770 -0.1647 -0.3493  0.2340
    8MOL   C453 3967   5.415   1.283   2.703  0.7733 -0.3860  0.2469
    8MOL   O454 3968   5.486   1.402   2.705  0.2846  0.1435 -0.1858
    8MOL   C455 3969   5.597   1.393   2.793 -0.8463 -0.0397  0.3090
    8MOL   C456 3970   5.701   1.500   2.754  0.0662  0.2316  0.0026
    8MOL   C457 3971   5.842   1.494   2.815 -0.3930 -0.2359 -1.3155
    8MOL   C458 3972   5.947   1.573   2.726  0.1389 -0.3830  0.6331
    8MOL   C459 3973   6.082   1.562   2.792  0.1829 -0.4588  0.0559
    8MOL   C460 3974   6.185   1.653   2.731 -0.3889  0.8772  0.0011
    8MOL   H461 3975   5.219   1.226   2.735  0.2030  0.0154 -1.3120
    8MOL   H462 3976   5.232   1.401   2.737  5.1120  1.8568 -1.7998
    8MOL   H463 3977   5.450   1.191   2.749  0.1587 -0.0684  1.3479
    8MOL   H464 3978   5.653   1.301   2.779  0.3905  0.4785  1.6044
    8MOL   H465 3979   5.572   1.391   2.899  0.8852  0.5922  0.7561
    8MOL   H466 3980   5.657   1.595   2.783  0.4664  1.0623 -2.0111
    8MOL   H467 3981   5.716   1.505   2.646 -1.1343 -1.5699 -0.2546
    8MOL   H468 3982   5.841   1.529   2.918 -0.1248 -1.7879 -0.7591
    8MOL   H469 3983   5.884   1.393   2.811 -0.2460 -0.2484  0.2433
    8MOL   H470 3984   5.953   1.543   2.621 -0.8115 -1.6859  0.9383
    8MOL   H471 3985   5.920   1.678   2.721 -0.2056 -0.5522 -2.1524
    8MOL   H472 3986   6.082   1.597   2.895 -1.4784 -2.3894  0.7533
    8MOL   H473 3987   6.128   1.463   2.786 -0.3410 -0.6844 -0.2645
    8MOL   H474 3988   6.290   1.631   2.750 -0.7134 -1.1052 -0.3672
    8MOL   H475 3989   6.178   1.654   2.622 -1.4684 -2.1757 -0.0311
    8MOL   H476 3990   6.160   1.755   2.759 -0.4448  0.2085  2.5582
    8MOL   C477 3991   5.391   1.260   2.552 -1.0860 -1.1245 -0.2649
    8MOL   C478 3992   5.517   1.253   2.471 -0.4448  0.2189  0.3002
    8MOL   O479 3993   5.482   1.217   2.343 -0.3560  0.4776  0.1244
    8MOL   C480 3994   5.583   1.190   2.256  0.1799  0.3104  0.4676
    8MOL   C481 3995   5.524   1.140   2.122 -0.3688  0.6490  0.2253
    8MOL   C482 3996   5.414   1.228   2.066 -0.2912 -0.6148 -0.1606
    8MOL   C483 3997   5.344   1.170   1.938  0.0939  0.5711 -0.0348
    8MOL   C484 3998   5.229   1.249   1.884  1.2383 -0.1193  0.1737
    8MOL   C485 3999   5.144   1.170   1.783  0.0897 -0.2842 -0.5678
    8MOL   H486 4000   5.330   1.173   2.526 -1.2016 -1.1421  0.0663
    8MOL   H487 4001   5.327   1.341   2.518  0.3497  0.8788  1.6323
    8MOL   H488 4002   5.578   1.343   2.477 -0.9900  0.7389 -1.5439
    8MOL   H489 4003   5.636   1.106   2.300  0.8539 -0.0700 -1.0201
    8MOL   H490 4004   5.664   1.263   2.252  2.3406 -2.1061 -1.1109
    8MOL   H491 4005   5.490   1.040   2.146  1.4517 -0.1587 -0.4269
    8MOL   H492 4006   5.601   1.143   2.044 -1.6094  0.5287 -1.0101
    8MOL   H493 4007   5.337   1.246   2.140 -1.2159 -0.3689 -1.1763
    8MOL   H494 4008   5.442   1.330   2.043 -1.2987 -0.2807  0.0883
    8MOL   H495 4009   5.430   1.172   1.871  0.9168  0.2966  0.9894
    8MOL   H496 4010   5.305   1.069   1.953 -1.8762  0.9833 -2.2020
    8MOL   H497 4011   5.165   1.281   1.967 -2.0117 -0.1731 -2.2113
    8MOL   H498 4012   5.266   1.344   1.845 -0.6770 -0.4618 -2.6061
    8MOL   H499 4013   5.188   1.169   1.683 -0.3083 -4.1541 -0.8145
    8MOL   H500 4014   5.122   1.072   1.826 -0.2251 -0.5562 -1.3435
    8MOL   H501 4015   5.052   1.223   1.761 -1.2927 -1.6938  1.5400
    8MOL   H502 4016   5.572   1.172   2.518  2.6252  1.9295 -0.2057
    9MOL     C1 4017   6.589   5.543   5.628  0.0325 -1.1721 -0.0613
    9MOL     C2 4018   6.578   5.391   5.623  0.4448  0.5590 -0.9467
    9MOL     O3 4019   6.699   5.327   5.576 -0.2955  0.7120 -0.1911
    9MOL     C4 4020   6.776   5.261   5.680 -0.3346  0.1020 -0.1471
    9MOL     C5 4021   6.901   5.208   5.622 -0.0978 -0.6139 -0.2383
    9MOL     C6 4022   6.998   5.150   5.723 -1.0319  0.0715  0.1725
    9MOL     C7 4023   7.141   5.122   5.661  0.1335  1.3903 -0.1633
    9MOL     C8 4024   7.250   5.075   5.755 -0.0367 -0.0689  0.3694
    9MOL     C9 4025   7.268   5.171   5.875  0.6362  0.2886 -0.3986
    9MOL    H10 4026   6.601   5.592   5.531 -0.9514 -0.5882  0.1069
    9MOL    H11 4027   6.491   5.574   5.665 -0.7077 -0.6295 -2.3925
    9MOL    H12 4028   6.543   5.356   5.720  0.3447 -0.2476 -1.2689
    9MOL    H13 4029   6.716   5.181   5.723  0.6836  0.0149  1.1241
    9MOL    H14 4030   6.804   5.328   5.761  2.1096 -2.6070  1.3330
    9MOL    H15 4031   6.956   5.276   5.556  0.9169  0.2105  1.4074
    9MOL    H16 4032   6.870   5.134   5.549  0.6428  1.4003 -2.7006
    9MOL    H17 4033   7.005   5.214   5.810  0.7622  0.8333 -0.5229
    9MOL    H18 4034   6.957   5.053   5.751  0.6276 -1.0384 -1.1092
    9MOL    H19 4035   7.133   5.058   5.573  0.9457 -0.5999  1.1644
    9MOL    H20 4036   7.174   5.216   5.616 -0.4272  2.1902  1.0773
    9MOL    H21 4037   7.339   5.056   5.695  0.9959  3.8506  0.5522
    9MOL    H22 4038   7.223   4.978   5.796  0.9637 -0.0630  1.0704
    9MOL    H23 4039   7.345   5.133   5.941 -1.4968 -0.3677  1.7786
    9MOL    H24 4040   7.299   5.272   5.847 -0.6324  0.2116 -2.1033
    9MOL    H25 4041   7.184   5.184   5.943  0.5814  0.2765 -0.4647
    9MOL    H26 4042   6.662   5.581   5.700  1.0929  0.3505 -1.8885
    9MOL    C27 4043   6.466   5.337   5.534 -0.2577  0.1534 -0.0434
    9MOL    C28 4044   6.440   5.189   5.550  0.1596 -0.3980  0.4506
    9MOL    O29 4045   6.412   5.161   5.688  0.1965  0.0440  0.7296
    9MOL    C30 4046   6.452   5.035   5.727 -0.2555 -0.0621 -0.1910
    9MOL    C31 4047   6.373   5.002   5.854  0.2027  0.0466  0.0362
    9MOL    C32 4048   6.220   4.990   5.828  0.2222 -0.5193 -0.5342
    9MOL    C33 4049   6.142   4.925   5.946 -0.3585  0.6421  0.6247
    9MOL    C34 4050   5.991   4.936   5.934 -0.0503 -0.5882  0.2027
    9MOL    C35 4051   5.904   4.861   6.034  0.3786  0.7882  0.6834
    9MOL    H36 4052   6.377   5.399   5.530  0.0524  0.5378 -1.2325
    9MOL    H37 4053   6.486   5.362   5.430 -0.5426  2.5583  0.4398
    9MOL    H38 4054   6.534   5.145   5.516  0.4354  0.0707  0.5964
    9MOL    H39 4055   6.560   5.030   5.739 -0.3639  0.4935  1.1295
    9MOL    H40 4056   6.422   4.953   5.661  0.4765  0.1705 -0.8118
    9MOL    H41 4057   6.396   5.078   5.927 -0.1459 -1.9065  2.2476
    9MOL    H42 4058   6.408   4.905   5.889 -0.7465 -0.0333  0.7888
    9MOL    H43 4059   6.183   5.088   5.798  0.7999 -0.0274  0.3270
    9MOL    H44 4060   6.205   4.918   5.748  0.2602 -0.0422 -0.9709
    9MOL    H45 4061   6.166   4.820   5.963 -2.8442  0.0629  0.8413
    9MOL    H46 4062   6.182   4.983   6.029 -1.3386 -1.2129  2.4306
    9MOL    H47 4063   5.970   5.043   5.939  1.7837 -0.1333 -1.5648
    9MOL    H48 4064   5.956   4.893   5.841 -1.7539 -2.0750  1.4845
    9MOL    H49 4065   5.932   4.908   6.128 -2.3839  0.6448  1.6363
    9MOL    H50 4066   5.798   4.884   6.022  0.0130  0.1415  2.5509
    9MOL    H51 4067   5.926   4.755   6.036 -2.0475  0.2476 -0.1294
    9MOL    C52 4068   6.331   5.136   5.456 -1.0799 -0.2427 -0.6808
    9MOL    C53 4069   6.365   5.138   5.302  0.7647 -0.1509 -0.0238
    9MOL    O54 4070   6.353   5.007   5.237 -0.2194 -0.5440  0.8336
    9MOL    C55 4071   6.454   4.910   5.268 -0.1272  0.6411 -0.4807
    9MOL    C56 4072   6.559   4.920   5.147 -0.0011 -0.3706 -0.5365
    9MOL    C57 4073   6.655   4.807   5.153  0.1011  0.4038 -0.1506
    9MOL    C58 4074   6.601   4.666   5.110  0.1463 -0.5215  0.5336
    9MOL    C59 4075   6.713   4.555   5.121  0.1690 -0.1563  0.0479
    9MOL    C60 4076   6.809   4.545   5.000 -0.9144  0.2057 -0.2501
    9MOL    H61 4077   6.235   5.184   5.476 -0.7635 -0.0259  0.3559
    9MOL    H62 4078   6.315   5.030   5.476  1.6008 -0.3725  1.0367
    9MOL    H63 4079   6.471   5.165   5.297  1.1081 -1.2666  1.0154
    9MOL    H64 4080   6.410   4.811   5.282 -0.2762  0.8701  0.6874
    9MOL    H65 4081   6.489   4.919   5.371 -1.2513 -0.2866 -0.0034
    9MOL    H66 4082   6.610   5.013   5.173  1.2667 -0.4223 -2.7944
    9MOL    H67 4083   6.510   4.926   5.050 -1.7436 -0.1231  0.3302
    9MOL    H68 4084   6.742   4.829   5.091 -0.8369  0.3607 -1.5075
    9MOL    H69 4085   6.697   4.804   5.254  0.3854 -0.2024 -0.2866
    9MOL    H70 4086   6.516   4.639   5.171 -0.4419  0.9692  0.3950
    9MOL    H71 4087   6.571   4.657   5.005 -1.6028 -2.9794  1.2153
    9MOL    H72 4088   6.753   4.565   5.222 -0.6951 -1.0407  0.4850
    9MOL    H73 4089   6.649   4.467   5.131 -3.0507  2.1090 -0.0038
    9MOL    H74 4090   6.858   4.641   4.986 -0.2619 -0.3061 -1.5619
    9MOL    H75 4091   6.894   4.478   5.013 -1.0964  0.0562  0.1816
    9MOL    H76 4092   6.763   4.512   4.906 -0.8935 -1.8790  0.4542
    9MOL    C77 4093   6.265   5.226   5.216  0.6712 -0.1752  0.5403
    9MOL    C78 4094   6.301   5.237   5.064 -0.4888  0.3565 -0.0512
    9MOL    O79 4095   6.415   5.322   5.053 -0.2197 -0.2037 -0.7237
    9MOL    C80 4096   6.526   5.278   4.972  0.2635  0.0363 -0.1160
    9MOL    C81 4097   6.640   5.375   4.999 -0.2684 -0.5442 -0.7729
    9MOL    C82 4098   6.668   5.375   5.149  1.2006 -0.0994  1.0921
    9MOL    C83 4099   6.801   5.453   5.170 -0.2266  0.7888 -0.3032
    9MOL    C84 4100   6.840   5.465   5.326 -0.5380  0.1180 -0.4297
    9MOL    C85 4101   6.976   5.527   5.359  0.1890 -0.6204 -0.1831
    9MOL    H86 4102   6.245   5.324   5.259 -1.0667  1.2586 -3.3192
    9MOL    H87 4103   6.168   5.181   5.234  0.3484  0.3052  0.0240
    9MOL    H88 4104   6.326   5.139   5.025 -0.0281  0.3610  0.2322
    9MOL    H89 4105   6.503   5.280   4.865 -0.8638  1.6384  0.1276
    9MOL    H90 4106   6.552   5.180   5.011  1.1095 -0.4298 -1.8163
    9MOL    H91 4107   6.609   5.474   4.966 -1.3028 -0.5763  0.0615
    9MOL    H92 4108   6.724   5.335   4.943  2.0770  3.8203 -0.5798
    9MOL    H93 4109   6.587   5.433   5.193  0.7390  0.9063 -1.0307
    9MOL    H94 4110   6.680   5.271   5.180  0.3432 -1.0081 -1.4906
    9MOL    H95 4111   6.888   5.413   5.119 -1.0535  0.1742 -1.2519
    9MOL    H96 4112   6.800   5.556   5.133 -1.6495  0.7079 -0.5410
    9MOL    H97 4113   6.767   5.511   5.392 -0.5962 -0.0289 -0.3926
    9MOL    H98 4114   6.852   5.362   5.359 -0.0947  0.1582 -0.4628
    9MOL    H99 4115   7.062   5.495   5.300  0.9674  1.4427 -0.2111
    9MOL   H100 4116   6.968   5.634   5.338 -3.0800 -0.4822  1.4115
    9MOL   H101 4117   6.997   5.504   5.464 -0.2597 -1.9666 -0.3858
    9MOL   C102 4118   6.184   5.285   4.972  0.0586 -0.1072 -0.5483
    9MOL   C103 4119   6.197   5.244   4.825  0.8149  0.4139 -0.2785
    9MOL   O104 4120   6.089   5.163   4.772 -0.0585  0.3265  1.0255
    9MOL   C105 4121   6.091   5.023   4.807 -0.2286  0.6399  0.0697
    9MOL   C106 4122   6.175   4.942   4.704 -0.0506 -0.0358 -0.4712
    9MOL   C107 4123   6.201   4.793   4.741 -0.1355  0.6712 -0.2375
    9MOL   C108 4124   6.313   4.719   4.669 -0.3398 -0.8034 -0.1084
    9MOL   C109 4125   6.452   4.747   4.732  0.2003  0.0332 -0.2958
    9MOL   C110 4126   6.560   4.684   4.650  0.4961 -0.2693 -0.3857
    9MOL   H111 4127   6.094   5.235   5.008 -0.0309  0.1903 -0.3580
    9MOL   H112 4128   6.153   5.389   4.977 -2.7482 -0.9029 -0.0187
    9MOL   H113 4129   6.286   5.182   4.823  0.7421  0.2315  1.2612
    9MOL   H114 4130   5.996   4.970   4.819  0.0107  0.3079  0.5325
    9MOL   H115 4131   6.142   5.015   4.903 -1.0679  0.3005  0.4914
    9MOL   H116 4132   6.275   4.984   4.694  0.4468 -1.4146 -1.4392
    9MOL   H117 4133   6.107   4.941   4.619 -1.1478 -4.6286  0.3293
    9MOL   H118 4134   6.232   4.787   4.845 -3.2519 -1.6786  0.6467
    9MOL   H119 4135   6.104   4.743   4.731  0.4111 -0.2882 -0.7647
    9MOL   H120 4136   6.278   4.616   4.682 -3.1032  0.1343  0.1244
    9MOL   H121 4137   6.318   4.738   4.562 -0.7515 -2.9813 -0.5474
    9MOL   H122 4138   6.476   4.853   4.731  1.5104 -0.2625 -0.3560
    9MOL   H123 4139   6.456   4.709   4.834 -2.6984  1.8327  0.5574
    9MOL   H124 4140   6.585   4.730   4.554 -0.4988  1.7398  0.2816
    9MOL   H125 4141   6.643   4.676   4.721 -0.8853  1.6737  1.5225
    9MOL   H126 4142   6.542   4.580   4.625 -1.7925 -0.2463  0.9694
    9MOL   C127 4143   6.218   5.372   4.737  0.2032 -0.2094 -0.1001
    9MOL   C128 4144   6.260   5.351   4.588  0.0285  0.0713  0.6083
    9MOL   O129 4145   6.402   5.320   4.572 -0.3821  0.4512  0.3458
    9MOL   C130 4146   6.451   5.184   4.573  0.0772 -0.1484 -0.3284
    9MOL   C131 4147   6.603   5.193   4.554 -0.2623  0.6099 -0.5706
    9MOL   C132 4148   6.649   5.239   4.413 -0.4650  0.3187  0.6303
    9MOL   C133 4149   6.802   5.234   4.395  0.7189  0.2657 -0.2916
    9MOL   C134 4150   6.835   5.233   4.241 -0.6847 -0.1380 -0.0304
    9MOL   C135 4151   6.982   5.205   4.210  0.1114 -0.2034  0.2200
    9MOL   H136 4152   6.122   5.422   4.749  1.6618  2.5097  0.7752
    9MOL   H137 4153   6.292   5.438   4.783 -0.5096  1.2724 -1.0402
    9MOL   H138 4154   6.192   5.279   4.543 -1.1929  2.1374 -0.9021
    9MOL   H139 4155   6.409   5.129   4.489  2.5961  0.5328 -2.0958
    9MOL   H140 4156   6.426   5.134   4.667  1.6682 -0.1370  0.1092
    9MOL   H141 4157   6.637   5.090   4.571  1.5467  1.1731 -0.6844
    9MOL   H142 4158   6.657   5.254   4.626 -1.9344 -0.2615  1.4985
    9MOL   H143 4159   6.604   5.176   4.336  2.0735  0.6789 -1.2019
    9MOL   H144 4160   6.607   5.338   4.394  1.2072  1.0018  0.4479
    9MOL   H145 4161   6.846   5.323   4.440 -0.2945  0.2192  0.7932
    9MOL   H146 4162   6.856   5.150   4.440 -2.1012 -0.7080  1.3792
    9MOL   H147 4163   6.770   5.162   4.189 -2.5847  0.5707  1.2945
    9MOL   H148 4164   6.819   5.333   4.199 -1.7849  0.1694  1.0901
    9MOL   H149 4165   7.009   5.104   4.241 -0.7757 -0.2764  0.7882
    9MOL   H150 4166   6.996   5.207   4.102  2.1279 -0.3069  0.4604
    9MOL   H151 4167   7.050   5.281   4.249  1.1218 -0.2616 -1.3858
    9MOL   C152 4168   6.241   5.483   4.505  0.6656 -0.0630 -0.0490
    9MOL   C153 4169   6.236   5.470   4.356  0.0180 -0.1859 -0.2749
    9MOL   O154 4170   6.110   5.417   4.319 -0.1091 -0.3507  0.6257
    9MOL   C155 4171   6.123   5.294   4.250 -0.0683 -0.9000 -0.5676
    9MOL   C156 4172   5.994   5.246   4.189  0.0050  0.3805 -0.2062
    9MOL   C157 4173   5.949   5.342   4.073 -0.2526  0.5661  0.0564
    9MOL   C158 4174   5.835   5.281   3.981  0.2932 -0.3521  0.0913
    9MOL   C159 4175   5.801   5.364   3.857  0.8233  0.3712 -0.0182
    9MOL   C160 4176   5.702   5.291   3.763  0.1835  0.4586  0.4429
    9MOL   H161 4177   6.144   5.525   4.531  0.4518 -0.3947 -0.3066
    9MOL   H162 4178   6.326   5.540   4.542  1.8543 -1.9029  0.1330
    9MOL   H163 4179   6.322   5.415   4.319 -0.0082  0.3321 -1.1062
    9MOL   H164 4180   6.170   5.218   4.312  0.5849 -0.8361 -0.9818
    9MOL   H165 4181   6.199   5.306   4.173  0.1362 -3.4896 -0.8196
    9MOL   H166 4182   5.919   5.223   4.264 -0.3294 -2.9942 -1.4809
    9MOL   H167 4183   6.020   5.152   4.140 -0.0262  0.4010 -0.2611
    9MOL   H168 4184   5.908   5.437   4.111 -2.6342  0.2686 -1.6791
    9MOL   H169 4185   6.036   5.382   4.021 -0.9660  1.3626 -0.5387
    9MOL   H170 4186   5.872   5.184   3.950  0.8242  0.2528 -1.1937
    9MOL   H171 4187   5.741   5.269   4.034  0.5606 -0.3147  0.5853
    9MOL   H172 4188   5.751   5.455   3.889 -0.4085 -0.3871  0.2778
    9MOL   H173 4189   5.887   5.395   3.799  0.5277 -1.6180 -1.5864
    9MOL   H174 4190   5.682   5.354   3.677  0.1944 -1.1871 -0.7855
    9MOL   H175 4191   5.737   5.197   3.720  1.1612  0.1762  1.8260
    9MOL   H176 4192   5.613   5.255   3.816 -0.5415 -1.0615 -1.7349
    9MOL   C177 4193   6.260   5.607   4.287 -0.3032 -0.3550 -0.3662
    9MOL   C178 4194   6.403   5.655   4.279  0.3758 -0.2407 -0.5177
    9MOL   O179 4195   6.484   5.589   4.185  0.3016 -0.2536 -0.1750
    9MOL   C180 4196   6.425   5.562   4.060  0.0367  0.1311  0.2908
    9MOL   C181 4197   6.527   5.535   3.949  0.1905  0.3518  0.7255
    9MOL   C182 4198   6.590   5.393   3.946  0.0328  0.7613  0.2089
    9MOL   C183 4199   6.689   5.366   3.825  0.8539 -0.2044 -0.5459
    9MOL   C184 4200   6.749   5.223   3.824 -0.4542  0.3768  0.3342
    9MOL   C185 4201   6.831   5.194   3.693 -0.0482 -0.3748 -0.6868
    9MOL   H186 4202   6.213   5.612   4.189  0.1916 -1.9817 -0.7037
    9MOL   H187 4203   6.202   5.686   4.334  1.7100  1.2619 -0.5482
    9MOL   H188 4204   6.451   5.622   4.372  0.9095  0.3582 -0.5758
    9MOL   H189 4205   6.386   5.659   4.032 -0.8596  0.0977  1.3598
    9MOL   H190 4206   6.350   5.483   4.064 -0.2054  0.3600  0.3021
    9MOL   H191 4207   6.604   5.612   3.948  1.7688 -1.1671  1.4382
    9MOL   H192 4208   6.475   5.543   3.854  0.9859  1.1043  0.3451
    9MOL   H193 4209   6.636   5.382   4.044 -0.2619  3.1596  0.6314
    9MOL   H194 4210   6.515   5.314   3.936  0.4238  0.0743  2.4372
    9MOL   H195 4211   6.625   5.380   3.738 -0.4203 -2.1976  0.0212
    9MOL   H196 4212   6.773   5.435   3.829 -0.3786  1.3254 -0.4424
    9MOL   H197 4213   6.791   5.210   3.924 -1.0716 -0.1385  0.5273
    9MOL   H198 4214   6.667   5.153   3.838 -0.4498  0.9195  3.5025
    9MOL   H199 4215   6.886   5.282   3.659 -1.4081  0.6603 -0.2730
    9MOL   H200 4216   6.907   5.120   3.717  1.8991  1.8655  0.2814
    9MOL   H201 4217   6.768   5.162   3.610 -1.3512 -0.0950  0.1776
    9MOL   C202 4218   6.406   5.809   4.271 -0.1333 -0.0043 -0.4372
    9MOL   C203 4219   6.542   5.882   4.268 -0.4667  0.2194  0.4896
    9MOL   O204 4220   6.626   5.858   4.382  0.5075  0.5386 -0.3306
    9MOL   C205 4221   6.720   5.751   4.372 -0.2906  0.7516 -0.1302
    9MOL   C206 4222   6.792   5.766   4.513 -0.1156  0.6025 -0.6052
    9MOL   C207 4223   6.918   5.678   4.533 -0.3798  0.1789  0.1704
    9MOL   C208 4224   6.970   5.663   4.680  0.3971 -0.0642  0.6995
    9MOL   C209 4225   7.101   5.584   4.687 -0.0376 -0.1001 -0.2224
    9MOL   C210 4226   7.162   5.562   4.831 -0.0287 -0.1738 -0.2636
    9MOL   H211 4227   6.345   5.838   4.185 -1.6205  0.1049  0.6259
    9MOL   H212 4228   6.356   5.836   4.364 -0.5495 -0.6647 -0.4629
    9MOL   H213 4229   6.606   5.859   4.182 -4.9834 -1.9555 -2.4595
    9MOL   H214 4230   6.785   5.764   4.286  0.3290 -1.6123 -0.0658
    9MOL   H215 4231   6.675   5.653   4.355  0.2468  0.3230  0.9108
    9MOL   H216 4232   6.722   5.739   4.592  1.4973 -1.2129  0.2494
    9MOL   H217 4233   6.836   5.862   4.539 -0.3322  0.4049  0.4921
    9MOL   H218 4234   6.890   5.577   4.503 -2.7877  1.4321 -2.0140
    9MOL   H219 4235   6.997   5.706   4.464 -1.6071 -0.6606 -1.6058
    9MOL   H220 4236   6.981   5.764   4.720  0.4664  0.5376 -0.8134
    9MOL   H221 4237   6.895   5.617   4.744  1.6105 -1.9513  0.8129
    9MOL   H222 4238   7.069   5.491   4.641 -0.7287  0.4276 -0.8137
    9MOL   H223 4239   7.180   5.631   4.628  1.6399 -0.9312  1.3043
    9MOL   H224 4240   7.244   5.489   4.834  1.1490  0.9216 -3.7638
    9MOL   H225 4241   7.224   5.643   4.867 -0.7991 -0.3298  1.4902
    9MOL   H226 4242   7.085   5.544   4.906  1.3286 -0.9720  0.9601
    9MOL   C227 4243   6.529   6.032   4.253  0.7917  0.3313 -0.8505
    9MOL   C228 4244   6.652   6.107   4.232  0.0724  0.0960  0.6559
    9MOL   O229 4245   6.608   6.224   4.162  0.9087  0.3355  0.1710
    9MOL   C230 4246   6.674   6.248   4.035  0.5858  0.1324  0.2461
    9MOL   C231 4247   6.610   6.377   3.988  0.2269 -0.1815  0.0037
    9MOL   C232 4248   6.668   6.508   4.053 -0.6771  0.0553 -0.3914
    9MOL   C233 4249   6.604   6.640   4.002  0.5948 -0.1015 -0.3628
    9MOL   C234 4250   6.644   6.766   4.084  0.0021  0.0491  0.1979
    9MOL   C235 4251   6.536   6.870   4.071  0.6012 -0.2261  0.4128
    9MOL   H236 4252   6.466   6.067   4.171 -0.9254 -1.5079 -0.3729
    9MOL   H237 4253   6.488   6.075   4.344  0.7106  1.0366 -1.2151
    9MOL   H238 4254   6.717   6.049   4.167 -0.8327 -1.3391  1.0158
    9MOL   H239 4255   6.655   6.169   3.963  1.0478  1.0645 -0.9291
    9MOL   H240 4256   6.780   6.271   4.045  0.7835 -0.6399 -0.0575
    9MOL   H241 4257   6.502   6.372   4.003  0.4352  1.3047  2.2995
    9MOL   H242 4258   6.629   6.366   3.881  0.9179 -0.3193  0.1376
    9MOL   H243 4259   6.660   6.497   4.162  1.6834 -0.2055 -0.2108
    9MOL   H244 4260   6.775   6.514   4.032 -1.2644  0.7899 -3.3068
    9MOL   H245 4261   6.619   6.665   3.897 -0.3885  0.2535 -0.4239
    9MOL   H246 4262   6.496   6.620   4.004  1.0063 -2.5002 -0.3698
    9MOL   H247 4263   6.666   6.758   4.190 -2.7411  0.0868  0.7943
    9MOL   H248 4264   6.737   6.813   4.051 -0.2404 -1.1998 -2.4105
    9MOL   H249 4265   6.440   6.848   4.117  0.6937 -0.1000  0.6667
    9MOL   H250 4266   6.584   6.962   4.105  3.2806 -1.0644 -0.9320
    9MOL   H251 4267   6.514   6.881   3.964  2.2347 -1.7991 -0.1054
    9MOL   C252 4268   6.718   6.160   4.364 -0.4256  0.2295  0.4628
    9MOL   C253 4269   6.869   6.181   4.344  1.1036 -0.0102  0.1710
    9MOL   O254 4270   6.941   6.067   4.307  0.0701 -0.4448 -0.7249
    9MOL   C255 4271   7.017   6.087   4.191 -0.0658  0.2736  0.1602
    9MOL   C256 4272   7.128   5.987   4.193 -0.0280 -0.3418  0.7029
    9MOL   C257 4273   7.075   5.842   4.176 -0.1038 -0.3157  0.3345
    9MOL   C258 4274   7.190   5.744   4.128  0.4036  0.8146  0.0344
    9MOL   C259 4275   7.157   5.594   4.146 -0.6404 -0.4507 -0.3740
    9MOL   C260 4276   7.258   5.496   4.082 -0.1973 -0.3934 -0.0244
    9MOL   H261 4277   6.675   6.257   4.388 -1.5198 -0.2876  0.6166
    9MOL   H262 4278   6.687   6.096   4.447  0.3473 -1.2168 -0.3374
    9MOL   H263 4279   6.862   6.263   4.273  1.0520  1.2233  1.5670
    9MOL   H264 4280   7.060   6.187   4.181 -0.2155  0.0095 -4.2199
    9MOL   H265 4281   6.948   6.071   4.109  0.6159 -2.7080  0.1346
    9MOL   H266 4282   7.193   6.005   4.278  1.1747 -0.7592 -0.1203
    9MOL   H267 4283   7.185   6.014   4.104 -1.1643  0.0429  0.0775
    9MOL   H268 4284   7.037   5.799   4.269  0.0468 -0.4098  0.3521
    9MOL   H269 4285   6.993   5.840   4.104  1.5826 -0.9105 -1.5918
    9MOL   H270 4286   7.228   5.768   4.029  2.0215  1.8635  0.8858
    9MOL   H271 4287   7.273   5.758   4.197  1.6727 -0.2709 -1.2655
    9MOL   H272 4288   7.150   5.567   4.251  2.3010  0.9314  0.2446
    9MOL   H273 4289   7.062   5.567   4.100 -0.9126  1.0605 -0.7288
    9MOL   H274 4290   7.340   5.467   4.149 -0.5019  0.3511  0.6694
    9MOL   H275 4291   7.208   5.408   4.041  0.9569 -1.2845  0.4378
    9MOL   H276 4292   7.302   5.543   3.994  0.6275  0.9267  1.0848
    9MOL   C277 4293   6.931   6.229   4.474  0.1339 -0.3997 -0.3884
    9MOL   C278 4294   6.875   6.361   4.531 -0.1627  1.0881  0.0604
    9MOL   O279 4295   6.940   6.374   4.658 -0.2104 -0.5855 -0.1528
    9MOL   C280 4296   6.866   6.384   4.780 -0.9257  0.2525 -0.2454
    9MOL   C281 4297   6.814   6.255   4.832  0.4201 -0.3145  0.8789
    9MOL   C282 4298   6.923   6.168   4.888  0.4360 -0.1760 -0.1456
    9MOL   C283 4299   6.868   6.029   4.934 -0.1615 -0.1529 -0.8940
    9MOL   C284 4300   6.976   5.932   4.974 -0.2446  0.4906 -0.4595
    9MOL   C285 4301   6.912   5.798   5.031  0.2947  0.6846 -0.3006
    9MOL   H286 4302   6.914   6.150   4.548 -0.5736 -0.3089 -0.4600
    9MOL   H287 4303   7.040   6.231   4.466  0.2141 -0.6405  0.6026
    9MOL   H288 4304   6.766   6.360   4.536 -0.2057  1.3231 -0.8769
    9MOL   H289 4305   6.778   6.447   4.764  0.2814  2.2514  0.7538
    9MOL   H290 4306   6.930   6.427   4.856  1.2988  1.8037 -2.9118
    9MOL   H291 4307   6.760   6.211   4.748 -1.3520 -0.5060  2.0888
    9MOL   H292 4308   6.728   6.271   4.896  0.1217 -1.8990  0.9100
    9MOL   H293 4309   6.998   6.154   4.810 -0.0776 -4.0647 -0.0629
    9MOL   H294 4310   6.970   6.223   4.969  0.0187  1.1949 -0.8362
    9MOL   H295 4311   6.799   6.053   5.015 -0.8060 -0.2889 -1.3960
    9MOL   H296 4312   6.800   5.982   4.863 -1.6065  0.0849  0.3088
    9MOL   H297 4313   7.036   5.904   4.888  1.6605 -1.1382  1.3216
    9MOL   H298 4314   7.026   5.980   5.058  1.3019 -0.6744 -0.6729
    9MOL   H299 4315   6.853   5.755   4.950 -0.2587 -2.8637  1.8755
    9MOL   H300 4316   6.985   5.719   5.046  1.9159  2.4238  1.1086
    9MOL   H301 4317   6.841   5.804   5.113  0.4263 -1.0977 -0.0480
    9MOL   C302 4318   6.919   6.479   4.450  0.0865 -0.0954  0.1573
    9MOL   C303 4319   6.859   6.611   4.490 -0.3649 -0.1444 -0.6682
    9MOL   O304 4320   6.717   6.616   4.450  0.2507 -0.5084  0.1921
    9MOL   C305 4321   6.629   6.639   4.558  0.7189  0.0319 -0.2886
    9MOL   C306 4322   6.508   6.726   4.505  0.0581  0.4171  0.2203
    9MOL   C307 4323   6.390   6.740   4.611  0.4913  0.2468  0.4954
    9MOL   C308 4324   6.268   6.801   4.546 -0.4134  0.5482  0.7350
    9MOL   C309 4325   6.145   6.813   4.635  0.0421  0.5641 -0.0080
    9MOL   C310 4326   6.023   6.863   4.565 -0.3424  0.3098  0.6690
    9MOL   H311 4327   7.028   6.483   4.450  0.0521  1.1630  0.0247
    9MOL   H312 4328   6.899   6.472   4.343  1.1926  1.3065 -0.1525
    9MOL   H313 4329   6.861   6.605   4.599 -2.8464  0.4264 -0.5599
    9MOL   H314 4330   6.670   6.691   4.645 -0.1837  0.7076 -0.2670
    9MOL   H315 4331   6.598   6.542   4.597 -1.5776  1.3822  1.3900
    9MOL   H316 4332   6.467   6.668   4.423  3.0063  1.2489 -1.9164
    9MOL   H317 4333   6.534   6.824   4.465 -0.7933  0.1611 -0.9900
    9MOL   H318 4334   6.356   6.638   4.632  1.4517 -0.3185 -0.6508
    9MOL   H319 4335   6.418   6.785   4.706  0.3133 -0.3870  0.8516
    9MOL   H320 4336   6.310   6.894   4.506 -0.7080  0.4803  0.2725
    9MOL   H321 4337   6.244   6.744   4.457 -0.7580  0.3726  0.9367
    9MOL   H322 4338   6.123   6.718   4.683  1.4621 -0.7041 -1.7948
    9MOL   H323 4339   6.172   6.879   4.717 -0.8663  1.1300 -0.1530
    9MOL   H324 4340   5.983   6.797   4.487  0.1508  1.5449 -0.6488
    9MOL   H325 4341   5.946   6.884   4.640 -1.0073 -0.3499  0.1811
    9MOL   H326 4342   6.054   6.948   4.504 -0.8543 -0.9307 -1.3610
    9MOL   C327 4343   6.907   6.744   4.424 -0.5961  0.5041 -1.2525
    9MOL   C328 4344   7.054   6.774   4.453  0.1132  0.2423  0.1748
    9MOL   O329 4345   7.097   6.883   4.376 -1.0107  0.4947  0.1703
    9MOL   C330 4346   7.133   6.842   4.247  0.3390  0.2683 -0.3591
    9MOL   C331 4347   7.150   6.966   4.172 -0.3082  0.1255 -0.4731
    9MOL   C332 4348   7.019   7.033   4.134 -0.1663 -0.1151 -0.6906
    9MOL   C333 4349   7.034   7.129   4.022 -0.1860 -0.4641  0.2264
    9MOL   C334 4350   6.905   7.205   3.980 -0.6490  0.2102 -0.7291
    9MOL   C335 4351   6.813   7.108   3.898 -0.1077  0.1217 -0.0596
    9MOL   H336 4352   6.844   6.828   4.452 -1.2130 -0.1034 -0.7974
    9MOL   H337 4353   6.891   6.731   4.317 -2.9791  1.3153 -1.0258
    9MOL   H338 4354   7.116   6.687   4.430 -0.5349 -0.1425 -0.1498
    9MOL   H339 4355   7.072   6.761   4.208  0.5463 -0.0675  0.0051
    9MOL   H340 4356   7.228   6.787   4.248  0.5276  0.5807  1.7007
    9MOL   H341 4357   7.194   6.926   4.080 -0.2361 -0.3245 -0.2456
    9MOL   H342 4358   7.221   7.036   4.215  0.3884 -1.2069  0.6115
    9MOL   H343 4359   6.944   6.965   4.093 -0.5888  0.2965 -0.5992
    9MOL   H344 4360   6.967   7.063   4.225 -0.9945 -1.1625 -0.8133
    9MOL   H345 4361   7.100   7.206   4.060 -0.1148 -0.7062  0.5996
    9MOL   H346 4362   7.079   7.090   3.931 -1.2443  0.8727 -0.8884
    9MOL   H347 4363   6.856   7.249   4.067 -0.2023  1.9016 -1.3104
    9MOL   H348 4364   6.922   7.289   3.913  0.5344 -0.3419 -1.1286
    9MOL   H349 4365   6.719   7.156   3.870  1.0549  0.6430 -3.3128
    9MOL   H350 4366   6.848   7.081   3.798  0.5017 -0.2436  0.2514
    9MOL   H351 4367   6.765   7.030   3.956 -2.1117  0.8297 -0.7042
    9MOL   C352 4368   7.082   6.814   4.597  0.2089 -0.0295  0.0088
    9MOL   C353 4369   7.231   6.824   4.639 -0.6853 -0.8839  0.0871
    9MOL   O354 4370   7.300   6.699   4.632 -0.0394 -0.1647  0.8200
    9MOL   C355 4371   7.437   6.706   4.580 -0.3755 -0.1819  0.6466
    9MOL   C356 4372   7.494   6.575   4.536  0.5724  0.6158  0.3211
    9MOL   C357 4373   7.424   6.513   4.418  0.3861  0.7018  0.4137
    9MOL   C358 4374   7.516   6.404   4.345  0.1799 -0.1621  0.1496
    9MOL   C359 4375   7.632   6.468   4.262 -0.2166 -0.5220  0.5830
    9MOL   C360 4376   7.594   6.575   4.162  0.2740  0.2443  0.3172
    9MOL   H361 4377   7.039   6.912   4.618  1.0161  0.1512  0.8400
    9MOL   H362 4378   7.027   6.747   4.663  2.7684 -3.1245 -0.9302
    9MOL   H363 4379   7.274   6.901   4.574 -0.7340 -2.0622 -1.3765
    9MOL   H364 4380   7.496   6.740   4.665  2.2223 -0.6958 -0.9073
    9MOL   H365 4381   7.440   6.775   4.496 -0.6289 -1.0106 -0.0458
    9MOL   H366 4382   7.488   6.503   4.618 -4.7716 -0.0278 -0.4664
    9MOL   H367 4383   7.599   6.585   4.508  1.3529 -1.4482  2.2935
    9MOL   H368 4384   7.337   6.463   4.461 -0.0562 -0.3782 -1.6785
    9MOL   H369 4385   7.377   6.582   4.348 -1.4880 -0.2313  0.7354
    9MOL   H370 4386   7.551   6.330   4.416  0.1863  0.8213  1.1886
    9MOL   H371 4387   7.461   6.343   4.273  1.9921  1.1134 -2.4012
    9MOL   H372 4388   7.703   6.510   4.333 -0.0007 -3.3344  2.0883
    9MOL   H373 4389   7.695   6.388   4.223  0.9869 -0.5714  2.5403
    9MOL   H374 4390   7.681   6.628   4.124  0.3347 -0.2302 -0.2219
    9MOL   H375 4391   7.530   6.529   4.087 -0.0132 -1.5341  1.6135
    9MOL   H376 4392   7.526   6.645   4.210  1.4387  1.5950  0.0271
    9MOL   C377 4393   7.271   6.886   4.771 -0.3963 -0.1176  0.8775
    9MOL   C378 4394   7.208   7.024   4.801  0.3744 -0.0031 -0.1350
    9MOL   O379 4395   7.281   7.112   4.722 -0.8095 -0.5641  0.2375
    9MOL   C380 4396   7.212   7.227   4.683  0.4397 -0.4309 -0.2974
    9MOL   C381 4397   7.294   7.292   4.575 -0.4511  0.5506  0.1911
    9MOL   C382 4398   7.309   7.199   4.453 -0.1927  0.1141 -0.4680
    9MOL   C383 4399   7.371   7.265   4.327  0.5906  0.2548 -0.3948
    9MOL   C384 4400   7.278   7.362   4.247  0.2657  0.1779 -0.5648
    9MOL   C385 4401   7.325   7.377   4.105  0.6241 -0.8055  0.1380
    9MOL   H386 4402   7.242   6.811   4.844 -1.6496 -1.3053 -0.8051
    9MOL   H387 4403   7.379   6.888   4.783  0.1168 -2.9975 -2.5286
    9MOL   H388 4404   7.100   7.026   4.785  0.2929 -0.7826  0.2660
    9MOL   H389 4405   7.197   7.291   4.770 -0.6475  1.3912 -1.7782
    9MOL   H390 4406   7.107   7.212   4.659  0.0381  1.1349  0.3909
    9MOL   H391 4407   7.395   7.323   4.601 -0.2071  0.3464 -0.5196
    9MOL   H392 4408   7.256   7.389   4.542 -1.8143 -0.9394 -2.7588
    9MOL   H393 4409   7.352   7.101   4.474  3.1173  1.2710 -1.5843
    9MOL   H394 4410   7.208   7.164   4.430  0.0943 -2.0095  1.2892
    9MOL   H395 4411   7.472   7.301   4.349  0.6674  0.5369 -1.1978
    9MOL   H396 4412   7.377   7.176   4.265  0.8138  1.0144 -1.4789
    9MOL   H397 4413   7.178   7.320   4.249 -0.0262  0.8341  3.6082
    9MOL   H398 4414   7.259   7.461   4.287 -0.4273  1.0107 -2.9100
    9MOL   H399 4415   7.407   7.446   4.085  0.3047 -0.8679 -1.4362
    9MOL   H400 4416   7.355   7.284   4.056  1.5841 -0.8159  0.7455
    9MOL   H401 4417   7.241   7.413   4.045  1.5406  0.3918 -0.4311
    9MOL   C402 4418   7.220   7.074   4.953  0.1967  0.0603  0.4489
    9MOL   C403 4419   7.158   6.972   5.058  0.3398 -0.2469  0.2130
    9MOL   O404 4420   7.012   6.966   5.022 -0.2500 -0.1561  0.5135
    9MOL   C405 4421   6.946   6.863   5.091  0.5074 -0.9286 -0.5110
    9MOL   C406 4422   6.846   6.792   4.993  0.0974  0.2292 -0.0186
    9MOL   C407 4423   6.771   6.670   5.055  0.0772  0.1130  0.6985
    9MOL   C408 4424   6.658   6.626   4.953 -0.1630  0.6724 -0.0571
    9MOL   C409 4425   6.560   6.514   4.998 -0.8214 -0.1642 -0.7854
    9MOL   C410 4426   6.450   6.509   4.890  0.2496 -0.5537  0.0142
    9MOL   H411 4427   7.176   7.173   4.968 -0.9865 -0.3512 -0.2397
    9MOL   H412 4428   7.327   7.085   4.969  0.2508  1.3337 -0.6649
    9MOL   H413 4429   7.206   6.875   5.045  2.7028  1.0109 -0.6203
    9MOL   H414 4430   6.892   6.891   5.181  2.9372 -0.4503  0.8482
    9MOL   H415 4431   7.013   6.782   5.122 -0.5905 -2.2641 -1.5447
    9MOL   H416 4432   6.900   6.754   4.907  1.8607  0.9126  0.7533
    9MOL   H417 4433   6.780   6.870   4.954 -0.0154  0.5421  0.7811
    9MOL   H418 4434   6.827   6.585   5.093 -0.2630 -1.7945 -2.7960
    9MOL   H419 4435   6.722   6.709   5.144 -1.2944  0.4216 -0.1738
    9MOL   H420 4436   6.596   6.712   4.931 -0.6678  0.1461 -0.6858
    9MOL   H421 4437   6.707   6.602   4.858 -1.5762  3.1556 -1.4498
    9MOL   H422 4438   6.611   6.418   4.992 -1.0016 -0.1439 -3.3081
    9MOL   H423 4439   6.529   6.527   5.101  2.3580 -0.7392  0.2936
    9MOL   H424 4440   6.491   6.531   4.792  0.3802  0.3872  0.2725
    9MOL   H425 4441   6.410   6.408   4.882  0.4308 -0.7095  0.9584
    9MOL   H426 4442   6.379   6.591   4.904  1.5153  0.6763 -0.6792
    9MOL   C427 4443   7.185   7.022   5.202  0.3330  1.1049  0.0541
    9MOL   C428 4444   7.330   7.007   5.252  1.0766  0.4640  0.0482
    9MOL   O429 4445   7.330   7.087   5.369 -0.4042 -0.4841 -0.1744
    9MOL   C430 4446   7.359   7.228   5.348 -0.5028  0.1757  0.6369
    9MOL   C431 4447   7.359   7.301   5.485  0.0023  0.7388 -0.3950
    9MOL   C432 4448   7.458   7.243   5.588  0.2605  0.0555 -0.3140
    9MOL   C433 4449   7.531   7.348   5.673  0.4350  0.3547 -0.7769
    9MOL   C434 4450   7.652   7.284   5.755  0.7113  0.1708 -0.6278
    9MOL   C435 4451   7.734   7.392   5.823  0.7520  0.6887 -0.0359
    9MOL   H436 4452   7.148   7.124   5.212 -0.4454  0.6766  1.8856
    9MOL   H437 4453   7.118   6.968   5.270  1.8887 -0.8814  0.0502
    9MOL   H438 4454   7.406   7.048   5.185  1.4640 -0.2463  0.0484
    9MOL   H439 4455   7.292   7.267   5.271  1.0308  3.0546  0.6750
    9MOL   H440 4456   7.461   7.236   5.309 -1.0181  1.4729 -0.4940
    9MOL   H441 4457   7.256   7.292   5.521 -0.1954 -1.0011 -1.3065
    9MOL   H442 4458   7.376   7.405   5.459  1.9094  0.9444  1.5373
    9MOL   H443 4459   7.409   7.165   5.646  2.2628 -0.7620  0.3095
    9MOL   H444 4460   7.541   7.191   5.540  1.5653 -0.5504  2.4587
    9MOL   H445 4461   7.556   7.438   5.616 -3.5866 -0.5482 -4.2724
    9MOL   H446 4462   7.459   7.389   5.744  2.4782 -0.3574  1.7743
    9MOL   H447 4463   7.627   7.212   5.832 -1.8381  2.0538  0.3991
    9MOL   H448 4464   7.717   7.232   5.684  0.4928 -0.5117 -0.3237
    9MOL   H449 4465   0.016   7.440   5.744 -2.3221 -0.2903 -3.0628
    9MOL   H450 4466   7.666   7.474   5.845 -0.1105 -0.3442  1.1434
    9MOL   H451 4467   0.021   7.369   5.908  2.2526  1.9080 -0.7902
    9MOL   C452 4468   7.372   6.865   5.294  0.2324  0.0642 -0.9383
    9MOL   C453 4469   7.511   6.825   5.238  0.4793 -0.3073  0.4037
    9MOL   O454 4470   7.619   6.913   5.272 -0.0165  1.1165  0.1873
    9MOL   C455 4471   7.663   6.908   5.408 -0.6478 -0.0467  0.2047
    9MOL   C456 4472   0.004   7.000   5.408  0.2908  0.7487  0.3296
    9MOL   C457 4473   0.071   6.997   5.551  0.1033  0.1840 -0.8109
    9MOL   C458 4474   0.194   7.092   5.564 -0.0837 -0.9773 -0.4033
    9MOL   C459 4475   0.231   7.117   5.716  0.0905  0.4651 -0.1610
    9MOL   C460 4476   0.342   7.211   5.736 -0.2455 -0.1003 -0.1096
    9MOL   H461 4477   7.370   6.846   5.401 -0.3146  1.3248 -0.7108
    9MOL   H462 4478   7.300   6.790   5.261 -0.3224  0.9158 -1.6883
    9MOL   H463 4479   7.532   6.724   5.273 -0.8972 -0.9471 -0.6158
    9MOL   H464 4480   7.701   6.807   5.428  0.1936  0.2990  0.3878
    9MOL   H465 4481   7.590   6.940   5.481  0.2594  1.1984  0.5783
    9MOL   H466 4482   7.730   7.095   5.393 -0.3559  0.5032  0.9369
    9MOL   H467 4483   0.075   6.980   5.328 -0.2475 -0.8128  0.2196
    9MOL   H468 4484   7.776   7.017   5.629 -0.1813 -1.9014 -0.5088
    9MOL   H469 4485   0.099   6.896   5.582 -0.8032 -0.6300 -2.5587
    9MOL   H470 4486   0.285   7.061   5.514  0.0255 -0.6564 -0.4043
    9MOL   H471 4487   0.166   7.187   5.520  0.4790  0.0193  1.3270
    9MOL   H472 4488   0.146   7.145   5.779 -0.0396  0.9025 -0.5251
    9MOL   H473 4489   0.257   7.025   5.768 -0.3629 -0.1010 -0.9370
    9MOL   H474 4490   0.336   7.246   5.840  1.4228 -1.0338  0.3225
    9MOL   H475 4491   0.443   7.172   5.731 -0.4847 -0.5996 -1.0478
    9MOL   H476 4492   0.349   7.293   5.665  2.6341 -1.3524 -1.3391
    9MOL   C477 4493   7.513   6.818   5.088 -0.8213  0.0357  0.6131
    9MOL   C478 4494   7.660   6.794   5.030  0.7336 -0.4820 -0.6621
    9MOL   O479 4495   7.650   6.771   4.893  0.1047 -0.3242  0.1175
    9MOL   C480 4496   0.010   6.764   4.842 -0.5424  0.1991  0.1613
    9MOL   C481 4497   0.012   6.711   4.693  0.6087  0.0486  0.0547
    9MOL   C482 4498   0.142   6.733   4.612  0.1916 -0.0855  0.8845
    9MOL   C483 4499   0.131   6.701   4.459 -0.1699  0.0273  0.1670
    9MOL   C484 4500   0.225   6.785   4.372 -0.1005  0.2365  0.0863
    9MOL   C485 4501   0.210   6.748   4.222  0.5621  0.1385  0.4875
    9MOL   H486 4502   7.451   6.742   5.040 -0.0165 -0.5373  0.4684
    9MOL   H487 4503   7.478   6.908   5.038 -0.3552 -0.0837  0.0714
    9MOL   H488 4504   7.722   6.880   5.056 -0.4997 -0.5796  2.7543
    9MOL   H489 4505   0.062   6.688   4.900 -0.7645  0.7520  1.0961
    9MOL   H490 4506   0.066   6.856   4.855 -0.6399  0.1257  1.1189
    9MOL   H491 4507   7.713   6.759   4.631 -0.1896 -0.0598  0.9402
    9MOL   H492 4508   0.001   6.603   4.691  0.6024  0.0555 -0.3485
    9MOL   H493 4509   0.170   6.835   4.642  1.0542 -0.1640  0.3404
    9MOL   H494 4510   0.221   6.676   4.659  1.1305  0.3392 -0.1679
    9MOL   H495 4511   0.157   6.597   4.440  1.5780  0.4226  0.3629
    9MOL   H496 4512   0.030   6.730   4.428  0.6890  1.7870 -1.0473
    9MOL   H497 4513   0.197   6.890   4.371  0.6596  0.4418 -0.7192
    9MOL   H498 4514   0.326   6.767   4.410 -0.3295 -0.5712  0.3135
    9MOL   H499 4515   0.276   6.669   4.185 -1.6780 -1.0651 -0.9952
    9MOL   H500 4516   0.110   6.711   4.201  1.4219 -2.5915  1.0234
    9MOL   H501 4517   0.223   6.833   4.156 -2.8703 -0.5392 -1.1819
    9MOL   H502 4518   7.705   6.711   5.084  0.4804 -1.0499 -1.3056
   10MOL     C1 4519   6.295   2.777   4.512 -0.9740 -0.1622  0.1895
   10MOL     C2 4520   6.319   2.650   4.592  0.0135 -0.1720 -0.5525
   10MOL     O3 4521   6.250   2.645   4.713  0.0078 -0.0136  0.1584
   10MOL     C4 4522   6.102   2.633   4.710  0.0333 -0.0311 -0.3420
   10MOL     C5 4523   6.033   2.579   4.833 -0.0070 -0.0226  0.1161
   10MOL     C6 4524   6.065   2.434   4.870  0.3632 -0.2746  0.3269
   10MOL     C7 4525   5.987   2.380   4.997  0.7115 -0.1523 -0.4617
   10MOL     C8 4526   6.024   2.234   5.036 -0.3193 -0.0398  0.6236
   10MOL     C9 4527   5.960   2.183   5.162 -0.6241 -0.2501  0.5833
   10MOL    H10 4528   6.365   2.767   4.429  1.9016  0.9253  2.4041
   10MOL    H11 4529   6.196   2.772   4.466 -1.2025  2.4749  0.3010
   10MOL    H12 4530   6.276   2.571   4.531 -0.9823  0.4370 -0.6559
   10MOL    H13 4531   6.081   2.562   4.631  0.5287 -0.9818  0.3753
   10MOL    H14 4532   6.069   2.733   4.682  0.9774  0.2006 -0.6520
   10MOL    H15 4533   5.927   2.597   4.813  0.4466  1.2039 -1.3326
   10MOL    H16 4534   6.064   2.647   4.912  0.8739 -0.2727 -0.0042
   10MOL    H17 4535   6.038   2.367   4.788 -0.4748 -0.6904  0.9297
   10MOL    H18 4536   6.173   2.434   4.888  0.3624  1.6555  0.4302
   10MOL    H19 4537   6.003   2.456   5.073  1.8866 -2.0909  1.2900
   10MOL    H20 4538   5.879   2.382   4.986  0.4555  0.2165  1.8638
   10MOL    H21 4539   6.133   2.232   5.031 -0.3712 -1.2856 -0.4017
   10MOL    H22 4540   6.004   2.163   4.955  0.6586  0.3328  0.0471
   10MOL    H23 4541   5.998   2.083   5.183  5.5587  1.9264  0.6238
   10MOL    H24 4542   5.996   2.236   5.249  0.6228 -2.3789  1.3950
   10MOL    H25 4543   5.852   2.189   5.145 -0.3436  3.0077 -0.3004
   10MOL    H26 4544   6.310   2.870   4.568 -0.3041  0.2191 -0.6072
   10MOL    C27 4545   6.468   2.607   4.626 -0.0566  0.1807  0.4549
   10MOL    C28 4546   6.480   2.458   4.665 -0.3931  0.0556 -0.1047
   10MOL    O29 4547   6.452   2.374   4.550 -0.0001  0.5261 -0.4851
   10MOL    C30 4548   6.361   2.265   4.581  0.4988 -0.1738 -0.2281
   10MOL    C31 4549   6.376   2.138   4.496 -0.2321  0.6485  0.2054
   10MOL    C32 4550   6.320   2.156   4.355  0.4377 -0.6634  0.4250
   10MOL    C33 4551   6.320   2.019   4.281 -0.3491 -0.1461  0.1022
   10MOL    C34 4552   6.290   2.027   4.130 -0.0612  0.8268 -0.1147
   10MOL    C35 4553   6.141   2.057   4.110  0.3642  0.3394  0.2683
   10MOL    H36 4554   6.519   2.616   4.530 -2.5707  2.8930 -0.6763
   10MOL    H37 4555   6.510   2.676   4.699  1.5964 -2.8894  2.5258
   10MOL    H38 4556   6.419   2.437   4.753  0.3165  0.0180  0.3787
   10MOL    H39 4557   6.259   2.303   4.583  0.5212 -0.1993  1.9739
   10MOL    H40 4558   6.376   2.236   4.685  0.4284  0.7566  0.0476
   10MOL    H41 4559   6.323   2.059   4.550  0.5510  0.3103  0.4882
   10MOL    H42 4560   6.479   2.105   4.492 -0.6142 -0.8401  1.8520
   10MOL    H43 4561   6.216   2.188   4.363  0.7155 -0.1480  2.0998
   10MOL    H44 4562   6.380   2.230   4.303  0.2390  0.3228  1.5968
   10MOL    H45 4563   6.412   1.962   4.296 -1.9164 -1.8005  4.3262
   10MOL    H46 4564   6.256   1.952   4.339  0.3394 -1.2518 -0.3996
   10MOL    H47 4565   6.351   2.093   4.068 -1.8852 -0.0486 -2.9322
   10MOL    H48 4566   6.305   1.924   4.098 -0.0209  0.3213  1.4857
   10MOL    H49 4567   6.134   2.044   4.002  2.6449  1.3594 -0.0441
   10MOL    H50 4568   6.077   1.985   4.161 -1.2894  0.8856 -1.0175
   10MOL    H51 4569   6.101   2.157   4.127 -2.1442 -0.5149 -0.3783
   10MOL    C52 4570   6.621   2.420   4.721  0.4712  0.0766 -0.1002
   10MOL    C53 4571   6.647   2.282   4.777  0.1537 -0.7178 -0.6031
   10MOL    O54 4572   6.780   2.279   4.810 -0.6954  0.2696 -0.5382
   10MOL    C55 4573   6.865   2.219   4.708  0.1314 -0.4622 -0.1846
   10MOL    C56 4574   7.004   2.237   4.766 -0.6103  0.3550  0.3274
   10MOL    C57 4575   7.032   2.150   4.894  0.2604  0.4847  0.3662
   10MOL    C58 4576   7.179   2.101   4.911 -0.6941  0.2094 -0.2623
   10MOL    C59 4577   7.270   2.223   4.935 -1.3191 -0.3051 -0.0595
   10MOL    C60 4578   7.411   2.175   4.969 -0.0259  0.7304 -0.2782
   10MOL    H61 4579   6.656   2.493   4.795  1.6027 -2.8249  2.3478
   10MOL    H62 4580   6.683   2.428   4.632 -1.1654 -2.5231 -1.5306
   10MOL    H63 4581   6.609   2.207   4.708 -1.1500  1.1427 -1.9764
   10MOL    H64 4582   6.864   2.265   4.609 -1.2996  0.9728  0.4798
   10MOL    H65 4583   6.849   2.111   4.707  1.7321 -0.7047 -0.8212
   10MOL    H66 4584   7.026   2.343   4.780 -0.7931  0.3308  0.8181
   10MOL    H67 4585   7.076   2.209   4.689  0.9644  0.1559  1.8414
   10MOL    H68 4586   6.999   2.201   4.985  0.6749  1.8186 -0.2226
   10MOL    H69 4587   6.970   2.061   4.885  1.1329 -0.1729  0.7626
   10MOL    H70 4588   7.193   2.029   4.993 -0.5650 -0.7099 -1.0803
   10MOL    H71 4589   7.204   2.046   4.820  2.3630  0.3315  0.4650
   10MOL    H72 4590   7.291   2.266   4.838 -0.7055  3.0438  1.4920
   10MOL    H73 4591   7.229   2.294   5.006 -3.0365 -1.6691  0.3388
   10MOL    H74 4592   7.473   2.263   4.953  3.1680 -0.9760  2.2918
   10MOL    H75 4593   7.412   2.133   5.069  0.2485  2.4456  0.4530
   10MOL    H76 4594   7.437   2.099   4.895 -1.3554 -2.6086  2.5802
   10MOL    C77 4595   6.576   2.269   4.912 -0.3857  0.4607  0.2746
   10MOL    C78 4596   6.598   2.134   4.993  0.3929  0.1877 -0.1423
   10MOL    O79 4597   6.523   2.030   4.924 -0.4355  0.2151  0.3203
   10MOL    C80 4598   6.610   1.931   4.870 -0.0398 -0.0406  0.9559
   10MOL    C81 4599   6.527   1.836   4.783  0.4405  0.0772 -0.3508
   10MOL    C82 4600   6.604   1.713   4.745  0.0947 -0.3682  0.0313
   10MOL    C83 4601   6.541   1.623   4.639 -0.0154  0.2098  0.3380
   10MOL    C84 4602   6.643   1.514   4.591  0.1900  0.1228 -0.2103
   10MOL    C85 4603   6.589   1.431   4.477 -0.4099 -0.1442 -0.6362
   10MOL    H86 4604   6.467   2.275   4.908 -0.3961  0.5796  0.6510
   10MOL    H87 4605   6.592   2.347   4.986 -0.3341  0.4811  0.2418
   10MOL    H88 4606   6.701   2.102   5.004  0.5106  0.8676  0.7736
   10MOL    H89 4607   6.659   1.879   4.952  0.4946  0.4151  0.9220
   10MOL    H90 4608   6.687   1.980   4.811  0.1068 -2.3072 -0.8029
   10MOL    H91 4609   6.503   1.892   4.693  0.8782  1.5165  0.4278
   10MOL    H92 4610   6.437   1.815   4.841  0.2003  2.7499  0.2925
   10MOL    H93 4611   6.700   1.746   4.706 -1.1918  2.9496 -0.5503
   10MOL    H94 4612   6.617   1.658   4.838 -0.1168 -0.9373 -0.2769
   10MOL    H95 4613   6.458   1.562   4.675 -0.0183  0.1967  0.3085
   10MOL    H96 4614   6.512   1.671   4.545  0.0755  2.0281  1.2301
   10MOL    H97 4615   6.742   1.555   4.571 -0.0113  0.2729 -0.9296
   10MOL    H98 4616   6.660   1.447   4.675  1.7893  3.0481  1.9034
   10MOL    H99 4617   6.499   1.374   4.500 -1.8423  1.9827 -0.7443
   10MOL   H100 4618   6.561   1.495   4.393 -0.6152  0.4444 -0.1279
   10MOL   H101 4619   6.656   1.359   4.431  0.3236 -2.2537  3.5236
   10MOL   C102 4620   6.541   2.153   5.136  0.2158  0.7548  0.0333
   10MOL   C103 4621   6.578   2.045   5.240 -0.9849  0.0678 -0.2833
   10MOL   O104 4622   6.562   2.103   5.366 -0.2198 -0.6623  0.2834
   10MOL   C105 4623   6.669   2.145   5.449  0.7412 -0.1072  0.4711
   10MOL   C106 4624   6.612   2.230   5.566  0.0840 -1.1502 -0.2050
   10MOL   C107 4625   6.601   2.378   5.533  0.0689  0.2421  0.1398
   10MOL   C108 4626   6.542   2.456   5.654  0.3904  1.3490  0.1533
   10MOL   C109 4627   6.517   2.607   5.642 -0.0455 -0.8482  0.0662
   10MOL   C110 4628   6.441   2.666   5.756  0.5542 -0.5235 -1.0655
   10MOL   H111 4629   6.566   2.253   5.173 -0.0931  1.5473 -1.8414
   10MOL   H112 4630   6.432   2.161   5.131  0.3426  1.7891 -1.3957
   10MOL   H113 4631   6.684   2.024   5.227 -1.3899 -1.9065 -0.4252
   10MOL   H114 4632   6.733   2.207   5.387  3.0716 -1.2520  1.6470
   10MOL   H115 4633   6.716   2.055   5.490  1.3590  0.7392  1.6703
   10MOL   H116 4634   6.676   2.220   5.653  0.7268 -1.1756 -0.6715
   10MOL   H117 4635   6.511   2.198   5.593  0.6133 -1.4742  1.4471
   10MOL   H118 4636   6.701   2.415   5.511  1.0662 -1.2020  2.0741
   10MOL   H119 4637   6.532   2.375   5.449  0.4163  0.7603 -0.1702
   10MOL   H120 4638   6.444   2.415   5.675  0.9502 -0.4500 -0.6918
   10MOL   H121 4639   6.614   2.430   5.732  1.3759  0.1190 -1.1401
   10MOL   H122 4640   6.614   2.655   5.628 -0.6288  0.2780 -0.1791
   10MOL   H123 4641   6.458   2.631   5.553 -0.3214  1.2538  0.7834
   10MOL   H124 4642   6.499   2.670   5.848  1.7226  3.1995 -1.8832
   10MOL   H125 4643   6.415   2.768   5.727  1.0054  0.0971  0.6889
   10MOL   H126 4644   6.349   2.608   5.763 -1.1278  2.0991 -0.8285
   10MOL   C127 4645   6.494   1.924   5.228  0.4455 -0.2439 -0.3207
   10MOL   C128 4646   6.540   1.791   5.308  0.6574 -0.5012 -0.0683
   10MOL   O129 4647   6.485   1.671   5.248 -0.0408 -0.1609  0.9636
   10MOL   C130 4648   6.530   1.643   5.113  0.4872 -0.2845  0.1218
   10MOL   C131 4649   6.510   1.494   5.100 -0.1138  0.5513 -0.4516
   10MOL   C132 4650   6.545   1.432   4.957  0.4561 -0.6810 -0.3752
   10MOL   C133 4651   6.470   1.299   4.937  0.6646 -0.6464  0.1244
   10MOL   C134 4652   6.482   1.244   4.792 -0.1110 -0.2932 -0.2178
   10MOL   C135 4653   6.438   1.096   4.788  0.0604  0.0933  0.1630
   10MOL   H136 4654   6.393   1.950   5.257 -0.5536 -0.9670 -3.0050
   10MOL   H137 4655   6.491   1.906   5.121  5.1350  1.3883 -0.8519
   10MOL   H138 4656   6.648   1.790   5.295  0.5778  1.2936 -1.1300
   10MOL   H139 4657   6.635   1.663   5.092 -0.0938  1.7202 -1.0020
   10MOL   H140 4658   6.462   1.688   5.040  2.0633 -0.7908 -1.7085
   10MOL   H141 4659   6.408   1.465   5.128 -0.0408  0.7757  0.0418
   10MOL   H142 4660   6.568   1.441   5.175 -0.3045  1.0184  0.0267
   10MOL   H143 4661   6.505   1.496   4.878  1.7848 -0.0417 -0.5428
   10MOL   H144 4662   6.653   1.421   4.944  0.4266 -0.0302 -1.1873
   10MOL   H145 4663   6.517   1.220   4.996  0.7213 -0.4991  0.2759
   10MOL   H146 4664   6.368   1.307   4.975  0.9705 -1.0184  1.0349
   10MOL   H147 4665   6.431   1.307   4.719  1.2935  0.3814 -0.6387
   10MOL   H148 4666   6.590   1.255   4.779  0.1238 -2.6524 -0.3988
   10MOL   H149 4667   6.332   1.077   4.771  0.0350 -1.6261  2.1066
   10MOL   H150 4668   6.492   1.051   4.705  0.9962 -1.1933  1.4415
   10MOL   H151 4669   6.463   1.045   4.881 -0.6622  0.4512  0.5616
   10MOL   C152 4670   6.512   1.793   5.462 -0.9179  0.0921 -0.0457
   10MOL   C153 4671   6.596   1.690   5.549 -0.0949 -0.7008  0.9978
   10MOL   O154 4672   6.727   1.750   5.561  0.4005  0.3186 -0.2841
   10MOL   C155 4673   6.838   1.667   5.593  0.0934 -0.5484 -0.7043
   10MOL   C156 4674   6.957   1.736   5.536 -0.2263 -0.4292  0.1354
   10MOL   C157 4675   6.965   1.710   5.381 -0.3972 -0.4903  0.2206
   10MOL   C158 4676   7.094   1.750   5.309  0.4659  0.0127 -0.3234
   10MOL   C159 4677   7.134   1.903   5.317  0.8879  0.3845  0.4142
   10MOL   C160 4678   7.262   1.930   5.244  0.1596 -0.3841 -0.1201
   10MOL   H161 4679   6.532   1.887   5.515  0.6852 -0.7879  0.9468
   10MOL   H162 4680   6.406   1.778   5.480 -0.8199  0.9561  1.3328
   10MOL   H163 4681   6.614   1.602   5.487  0.1419 -0.0593  0.1338
   10MOL   H164 4682   6.830   1.562   5.565 -1.5075 -0.7574  0.4517
   10MOL   H165 4683   6.849   1.657   5.701 -1.5203  2.6172 -0.1893
   10MOL   H166 4684   7.041   1.691   5.588  1.3794  0.6015 -1.5057
   10MOL   H167 4685   6.945   1.843   5.557 -0.4083 -0.1743 -1.2337
   10MOL   H168 4686   6.926   1.610   5.361 -2.2216  0.5482 -1.6340
   10MOL   H169 4687   6.878   1.759   5.337 -1.4137  0.5258  3.2228
   10MOL   H170 4688   7.169   1.683   5.351  0.3410  0.7341  1.0600
   10MOL   H171 4689   7.079   1.712   5.208 -2.0265 -0.5919  0.2369
   10MOL   H172 4690   7.063   1.977   5.281 -0.7197 -0.6691  1.3484
   10MOL   H173 4691   7.159   1.934   5.418  1.0840  3.1996 -0.4602
   10MOL   H174 4692   7.246   1.891   5.143 -1.0918 -1.9944  0.6875
   10MOL   H175 4693   7.291   2.035   5.233 -0.9058 -0.1951 -1.2153
   10MOL   H176 4694   7.352   1.872   5.264  0.8031 -0.0835 -1.9674
   10MOL   C177 4695   6.535   1.660   5.692 -0.4071  0.2041  0.6111
   10MOL   C178 4696   6.593   1.526   5.762  0.5681 -0.5708  0.2588
   10MOL   O179 4697   6.569   1.518   5.900  0.2062  0.0092 -0.2871
   10MOL   C180 4698   6.647   1.604   5.985  0.3911  1.1012 -0.3132
   10MOL   C181 4699   6.565   1.624   6.117 -0.0430  0.4099 -0.2955
   10MOL   C182 4700   6.577   1.503   6.209 -0.1071  0.1540  0.0598
   10MOL   C183 4701   6.486   1.518   6.327 -0.1257 -0.1649 -0.4180
   10MOL   C184 4702   6.517   1.416   6.437  0.2013 -0.7710 -0.1099
   10MOL   C185 4703   6.450   1.283   6.420 -0.0285  0.6075  0.4723
   10MOL   H186 4704   6.552   1.747   5.755 -0.4376  0.6259  0.0414
   10MOL   H187 4705   6.428   1.642   5.683  0.0277 -2.4056  0.3968
   10MOL   H188 4706   6.700   1.529   5.739 -0.2467  0.6046 -3.8261
   10MOL   H189 4707   6.663   1.699   5.934  1.6717  0.7028 -0.6801
   10MOL   H190 4708   6.746   1.563   6.006 -0.0080  1.2654  2.0558
   10MOL   H191 4709   6.463   1.660   6.106 -1.1079 -2.2125  0.4058
   10MOL   H192 4710   6.623   1.701   6.168  1.5302 -1.2895  0.5693
   10MOL   H193 4711   6.537   1.420   6.150 -2.7009  0.7074  0.9510
   10MOL   H194 4712   6.678   1.470   6.234 -0.0717  0.1269 -0.1264
   10MOL   H195 4713   6.481   1.613   6.380 -3.2669 -1.1372  1.1656
   10MOL   H196 4714   6.380   1.507   6.303 -0.9596 -0.5565  3.0910
   10MOL   H197 4715   6.625   1.411   6.456  0.2410  2.3843  0.7480
   10MOL   H198 4716   6.485   1.455   6.534  0.6607 -0.7679  0.0461
   10MOL   H199 4717   6.343   1.290   6.398  0.3694  0.0910 -1.7917
   10MOL   H200 4718   6.501   1.244   6.332  0.3187  1.2732  0.3808
   10MOL   H201 4719   6.462   1.211   6.500  0.3713  0.0613 -0.0784
   10MOL   C202 4720   6.560   1.398   5.689 -0.4005  0.2171 -0.6171
   10MOL   C203 4721   6.415   1.354   5.681  0.8454  0.4111  0.3375
   10MOL   O204 4722   6.403   1.214   5.699  0.8535 -0.1051  0.2360
   10MOL   C205 4723   6.428   1.167   5.833  0.4469  0.4753  0.1283
   10MOL   C206 4724   6.439   1.012   5.830  0.1915 -0.4805  0.4295
   10MOL   C207 4725   6.307   0.937   5.804 -0.1148  0.1253  0.6616
   10MOL   C208 4726   6.330   0.789   5.790 -0.3417 -0.0104  0.4395
   10MOL   C209 4727   6.363   0.713   5.916  0.4537  0.0602 -0.7048
   10MOL   C210 4728   6.369   0.559   5.899 -0.7755  0.4759  0.1909
   10MOL   H211 4729   6.611   1.398   5.592  1.4243 -1.3482  0.2923
   10MOL   H212 4730   6.624   1.323   5.737  1.2398  1.5769 -0.6044
   10MOL   H213 4731   6.346   1.407   5.746 -1.7044 -0.5707 -1.4620
   10MOL   H214 4732   6.354   1.198   5.907  3.0075 -0.2136  3.1073
   10MOL   H215 4733   6.513   1.216   5.881 -1.7259  0.1953  4.5214
   10MOL   H216 4734   6.475   0.978   5.927  0.3982  0.0313  0.5347
   10MOL   H217 4735   6.512   0.992   5.752  0.8415 -2.7076  1.5720
   10MOL   H218 4736   6.244   0.958   5.891 -0.3332  0.7929  0.3438
   10MOL   H219 4737   6.248   0.981   5.723  0.6373  3.2825  1.7640
   10MOL   H220 4738   6.249   0.743   5.733  0.5033 -0.8154 -0.1267
   10MOL   H221 4739   6.412   0.780   5.720 -1.3333 -2.8904 -0.4377
   10MOL   H222 4740   6.455   0.749   5.962  0.0351 -0.1411  0.3010
   10MOL   H223 4741   6.282   0.728   5.987  1.6343  0.1381  0.6454
   10MOL   H224 4742   6.457   0.520   5.847  1.4787  2.3936  2.4001
   10MOL   H225 4743   6.372   0.512   5.998 -0.6169  2.5020  1.1821
   10MOL   H226 4744   6.270   0.538   5.859 -0.3382  1.2029 -1.3089
   10MOL   C227 4745   6.372   1.378   5.528 -0.4181 -0.0004 -0.2764
   10MOL   C228 4746   6.223   1.351   5.498 -0.2624  0.5870  0.0795
   10MOL   O229 4747   6.134   1.447   5.568  0.2444 -0.3168 -0.5409
   10MOL   C230 4748   6.153   1.589   5.533 -0.4547  1.1797 -0.1532
   10MOL   C231 4749   6.022   1.656   5.555  0.2257 -0.0623  0.9155
   10MOL   C232 4750   5.993   1.662   5.705  0.0799  0.0524  0.4412
   10MOL   C233 4751   5.904   1.782   5.736 -0.4939 -0.3953  0.3370
   10MOL   C234 4752   5.868   1.787   5.888  0.1707  0.0930  0.3306
   10MOL   C235 4753   5.791   1.914   5.931  0.2793 -0.4739 -0.2413
   10MOL   H236 4754   6.388   1.478   5.489  2.9774 -0.0385  0.8105
   10MOL   H237 4755   6.421   1.299   5.470 -2.5362 -1.5681  0.0068
   10MOL   H238 4756   6.200   1.260   5.552 -0.4303  1.8817  2.2266
   10MOL   H239 4757   6.180   1.591   5.427 -0.5057  1.3688 -0.1629
   10MOL   H240 4758   6.238   1.627   5.590 -0.9035  0.8994  0.7042
   10MOL   H241 4759   5.943   1.601   5.503  0.7398 -0.1159  0.1783
   10MOL   H242 4760   6.022   1.753   5.504  2.2378 -0.0996  0.7907
   10MOL   H243 4761   5.942   1.570   5.733  0.4063  0.2718  1.7785
   10MOL   H244 4762   6.092   1.668   5.751 -0.4324 -0.4553  1.6428
   10MOL   H245 4763   5.932   1.878   5.693 -1.3794  0.2541  1.1856
   10MOL   H246 4764   5.811   1.760   5.684 -0.2205 -1.0335  0.1121
   10MOL   H247 4765   5.811   1.697   5.913 -2.6380  1.4986 -0.7277
   10MOL   H248 4766   5.954   1.773   5.953  1.7647  2.4325 -1.1897
   10MOL   H249 4767   5.842   2.010   5.922  2.5638 -1.5243  0.9692
   10MOL   H250 4768   5.697   1.926   5.877  0.3502  2.1232  0.1363
   10MOL   H251 4769   5.774   1.903   6.038 -0.1834 -4.0485 -0.6157
   10MOL   C252 4770   6.181   1.325   5.351  1.0012 -0.6338 -0.0972
   10MOL   C253 4771   6.195   1.170   5.300 -0.2742  0.2723  0.1802
   10MOL   O254 4772   6.327   1.124   5.318 -0.2885 -0.4388 -0.1961
   10MOL   C255 4773   6.332   0.995   5.375 -0.3645 -0.2689  0.2511
   10MOL   C256 4774   6.479   0.962   5.377  0.4052  0.4594 -0.1758
   10MOL   C257 4775   6.503   0.808   5.392  0.8241 -0.1592 -0.2401
   10MOL   C258 4776   6.615   0.770   5.492 -0.0663 -0.0167  0.3353
   10MOL   C259 4777   6.668   0.626   5.481 -1.1515 -0.0758  0.2658
   10MOL   C260 4778   6.763   0.612   5.596  0.2868 -0.2560 -0.2164
   10MOL   H261 4779   6.075   1.352   5.348  0.5912 -1.8585  2.4467
   10MOL   H262 4780   6.234   1.391   5.282  0.5562 -0.9182 -0.7265
   10MOL   H263 4781   6.128   1.116   5.367 -0.8426 -0.2110 -0.7528
   10MOL   H264 4782   6.263   0.931   5.321  0.7535 -1.0726 -0.2504
   10MOL   H265 4783   6.286   1.003   5.474 -1.5625 -1.4054 -0.2087
   10MOL   H266 4784   6.531   0.986   5.470  1.0183  0.7357 -0.5893
   10MOL   H267 4785   6.532   1.004   5.292  2.2942  4.2894  2.7576
   10MOL   H268 4786   6.412   0.767   5.437  0.6390  0.5976  0.0737
   10MOL   H269 4787   6.508   0.753   5.298 -0.7073 -0.3985 -0.1986
   10MOL   H270 4788   6.694   0.838   5.458 -1.4680  0.1909 -2.6185
   10MOL   H271 4789   6.610   0.801   5.597  1.5731 -0.6507  0.6094
   10MOL   H272 4790   6.585   0.560   5.505 -0.4208 -0.3892  1.9786
   10MOL   H273 4791   6.707   0.614   5.380  0.0998  0.5161  0.6680
   10MOL   H274 4792   6.831   0.696   5.583 -1.4266  0.7533 -3.2355
   10MOL   H275 4793   6.711   0.633   5.690 -0.4609  1.8181 -1.0621
   10MOL   H276 4794   6.827   0.525   5.608  1.1151  0.4129  0.2550
   10MOL   C277 4795   6.150   1.143   5.157 -0.4478 -0.6851  0.4926
   10MOL   C278 4796   6.027   1.227   5.116 -0.2898 -0.3282  0.0252
   10MOL   O279 4797   5.991   1.190   4.981 -0.4916 -0.1586 -1.0983
   10MOL   C280 4798   6.070   1.265   4.884 -0.0985 -0.1644 -0.1956
   10MOL   C281 4799   6.024   1.239   4.742 -0.2581 -0.6045  0.0735
   10MOL   C282 4800   6.113   1.330   4.644 -0.4582  0.1939 -0.3467
   10MOL   C283 4801   6.025   1.437   4.584 -0.1396 -0.1084 -0.4497
   10MOL   C284 4802   6.085   1.524   4.479  0.3550 -0.1966  0.4464
   10MOL   C285 4803   5.975   1.594   4.391  0.2753 -0.3462  0.4757
   10MOL   H286 4804   6.233   1.152   5.086  0.5361 -2.3555  1.4071
   10MOL   H287 4805   6.124   1.037   5.160  1.3991 -1.1937 -0.8059
   10MOL   H288 4806   6.049   1.334   5.118  0.4328 -0.4699 -0.1755
   10MOL   H289 4807   6.173   1.232   4.893  0.7136  1.6168 -2.4256
   10MOL   H290 4808   6.062   1.370   4.915 -1.6707 -0.1612 -0.5343
   10MOL   H291 4809   5.920   1.255   4.714  0.0415 -1.2583 -1.4793
   10MOL   H292 4810   6.045   1.132   4.730  0.7684 -0.3154 -0.8334
   10MOL   H293 4811   6.207   1.369   4.682 -0.7610  0.9689 -0.3823
   10MOL   H294 4812   6.150   1.265   4.565 -1.2703  0.6773 -1.1333
   10MOL   H295 4813   5.930   1.397   4.550 -0.1370 -1.4113  1.0036
   10MOL   H296 4814   5.998   1.510   4.660  1.9399 -1.3010  1.5121
   10MOL   H297 4815   6.156   1.594   4.522  1.6237 -0.5057 -1.1064
   10MOL   H298 4816   6.142   1.460   4.412  1.1359  0.3767  0.5619
   10MOL   H299 4817   6.006   1.668   4.318 -0.7391  0.3707  0.7466
   10MOL   H300 4818   5.902   1.524   4.350 -0.1722  1.9519 -2.8553
   10MOL   H301 4819   5.908   1.657   4.450  1.2813  1.1485  0.0506
   10MOL   C302 4820   5.899   1.215   5.203 -0.0424  0.9201 -0.2918
   10MOL   C303 4821   5.790   1.320   5.191 -0.6615  0.5555  1.2539
   10MOL   O304 4822   5.827   1.443   5.245 -0.3451  0.2848 -0.1464
   10MOL   C305 4823   5.761   1.555   5.183  0.2516 -0.0956 -0.1102
   10MOL   C306 4824   5.792   1.672   5.271 -0.2526  0.1765 -0.8327
   10MOL   C307 4825   5.737   1.805   5.220 -0.0536  0.7089 -0.1344
   10MOL   C308 4826   5.771   1.928   5.319 -0.3016 -0.1853 -0.0678
   10MOL   C309 4827   5.697   1.926   5.449  0.6817 -0.6245 -0.2882
   10MOL   C310 4828   5.715   2.049   5.538  0.1272  0.0453  0.0147
   10MOL   H311 4829   5.844   1.121   5.194  0.0398  0.6183  1.9076
   10MOL   H312 4830   5.921   1.213   5.310  1.9532  0.5876 -0.6813
   10MOL   H313 4831   5.758   1.344   5.090  0.4369  0.5263  0.8956
   10MOL   H314 4832   5.653   1.540   5.177  0.1693  0.4287  0.0398
   10MOL   H315 4833   5.811   1.570   5.087 -2.0316  0.6390 -1.2167
   10MOL   H316 4834   5.901   1.675   5.272 -0.2013 -1.3011 -0.0418
   10MOL   H317 4835   5.757   1.652   5.372  0.6301 -1.9781 -0.9184
   10MOL   H318 4836   5.778   1.829   5.122  0.9426  0.1717  0.1453
   10MOL   H319 4837   5.629   1.804   5.204 -0.0965 -1.2037  0.2234
   10MOL   H320 4838   5.876   1.949   5.334 -0.1532 -1.3421  0.6125
   10MOL   H321 4839   5.726   2.013   5.268 -2.4116 -1.6284 -0.6935
   10MOL   H322 4840   5.591   1.933   5.424  0.0609 -0.2592  2.2629
   10MOL   H323 4841   5.711   1.829   5.497 -0.4312 -0.2437  0.8309
   10MOL   H324 4842   5.819   2.060   5.570  0.1833  0.7257 -0.3883
   10MOL   H325 4843   5.688   2.150   5.506  1.2429  1.4079  3.2315
   10MOL   H326 4844   5.660   2.034   5.631 -1.4392 -1.3849 -1.1061
   10MOL   C327 4845   5.664   1.277   5.271  0.0444  0.4282  0.1546
   10MOL   C328 4846   5.537   1.233   5.186  0.0027  0.8864  0.8871
   10MOL   O329 4847   5.585   1.124   5.119 -0.0428 -0.3139  0.4260
   10MOL   C330 4848   5.540   1.108   4.983  0.1566  0.2361  0.4906
   10MOL   C331 4849   5.558   0.966   4.931  0.1477  0.0632 -0.2806
   10MOL   C332 4850   5.492   0.851   5.010  0.2038 -0.6895  0.4397
   10MOL   C333 4851   5.480   0.727   4.915  0.3413 -0.7616 -0.6160
   10MOL   C334 4852   5.420   0.598   4.965 -0.2299  0.1247  0.5432
   10MOL   C335 4853   5.404   0.498   4.855 -0.1584 -0.8217  0.1171
   10MOL   H336 4854   5.630   1.361   5.331 -0.5864  0.5154 -0.3122
   10MOL   H337 4855   5.674   1.191   5.337 -0.8481 -0.5672 -0.9768
   10MOL   H338 4856   5.505   1.305   5.111  1.7183 -2.1863 -2.9658
   10MOL   H339 4857   5.589   1.177   4.913 -2.7453 -0.1725 -2.1030
   10MOL   H340 4858   5.435   1.131   4.966  0.0677 -0.7807 -0.3882
   10MOL   H341 4859   5.664   0.942   4.924  0.0140 -0.0361 -2.1138
   10MOL   H342 4860   5.528   0.959   4.826  0.1631  0.2607 -0.2986
   10MOL   H343 4861   5.557   0.817   5.090  2.8682 -0.6663 -1.6128
   10MOL   H344 4862   5.396   0.868   5.059 -0.4092 -0.8639 -0.6800
   10MOL   H345 4863   5.422   0.758   4.828  0.0976  2.2745  0.5757
   10MOL   H346 4864   5.577   0.713   4.867  0.2922 -0.2311 -0.8682
   10MOL   H347 4865   5.492   0.542   5.025  1.9804  2.2441 -0.0525
   10MOL   H348 4866   5.324   0.609   5.016 -0.4692 -0.9076  0.3367
   10MOL   H349 4867   5.307   0.516   4.808 -0.2733  5.2417  2.2675
   10MOL   H350 4868   5.487   0.510   4.786 -1.5778 -0.3108 -1.5431
   10MOL   H351 4869   5.380   0.404   4.906 -1.2466 -0.6510 -0.0690
   10MOL   C352 4870   5.418   1.203   5.272 -0.5730 -0.1409  0.3312
   10MOL   C353 4871   5.335   1.335   5.309  0.1157  0.3020 -0.6396
   10MOL   O354 4872   5.219   1.298   5.392  0.3502  0.1663 -0.2995
   10MOL   C355 4873   5.252   1.269   5.530  0.1122 -0.0847  0.7210
   10MOL   C356 4874   5.110   1.247   5.603 -0.4019  0.9918 -0.0643
   10MOL   C357 4875   5.131   1.187   5.739  0.3343  0.0690  0.3600
   10MOL   C358 4876   4.995   1.183   5.805 -0.3453 -0.1494 -0.1335
   10MOL   C359 4877   4.998   1.083   5.923  0.2284 -0.0751 -0.6699
   10MOL   C360 4878   4.862   1.041   5.973 -0.1030 -0.4717  0.2644
   10MOL   H361 4879   5.357   1.127   5.223  0.4949 -0.6654 -0.1879
   10MOL   H362 4880   5.446   1.159   5.368  1.5216  0.7095  0.1368
   10MOL   H363 4881   5.406   1.400   5.360 -0.0258  0.9432 -1.2528
   10MOL   H364 4882   5.316   1.342   5.579 -1.1212  0.2682  1.8468
   10MOL   H365 4883   5.306   1.174   5.527  4.4836  2.2681  1.0847
   10MOL   H366 4884   5.045   1.189   5.538  1.6823  2.4258 -3.5832
   10MOL   H367 4885   5.063   1.345   5.615 -1.4038  0.4135  0.8560
   10MOL   H368 4886   5.183   1.092   5.730  3.4451  1.6709  0.9170
   10MOL   H369 4887   5.196   1.251   5.799  0.4096 -0.5977  1.0002
   10MOL   H370 4888   4.969   1.283   5.839  0.6351  1.3096 -3.4150
   10MOL   H371 4889   4.910   1.154   5.742  0.0224 -0.1680 -0.6288
   10MOL   H372 4890   5.050   0.992   5.891 -0.2020 -1.0139  1.2568
   10MOL   H373 4891   5.062   1.120   6.003 -1.4893  0.4640  0.4748
   10MOL   H374 4892   4.810   1.118   6.030 -0.6993 -0.1064 -0.7566
   10MOL   H375 4893   4.800   1.006   5.891 -0.4150  0.2876  0.1674
   10MOL   H376 4894   4.859   0.957   6.043 -1.4487 -1.1147 -0.5422
   10MOL   C377 4895   5.270   1.408   5.192  0.9296 -0.4031  0.0086
   10MOL   C378 4896   5.179   1.525   5.235 -0.3414  0.3313  0.4693
   10MOL   O379 4897   5.128   1.569   5.112  0.6167 -0.0718 -0.1652
   10MOL   C380 4898   4.985   1.563   5.111  0.1808 -0.0703  0.1948
   10MOL   C381 4899   4.931   1.621   4.980  0.9389 -0.3586  0.8227
   10MOL   C382 4900   4.976   1.764   4.955  0.4114 -0.6172  0.9601
   10MOL   C383 4901   4.948   1.810   4.807  0.0703 -0.6783 -0.7740
   10MOL   C384 4902   4.999   1.953   4.782  0.4635  0.1926  0.2177
   10MOL   C385 4903   5.153   1.959   4.772 -0.5164 -0.4142  0.0149
   10MOL   H386 4904   5.353   1.447   5.132  2.8931 -2.4847  1.2976
   10MOL   H387 4905   5.206   1.336   5.141  0.2998 -0.0051  0.2287
   10MOL   H388 4906   5.103   1.512   5.312  0.0821 -0.5688  0.7469
   10MOL   H389 4907   4.936   1.617   5.192 -2.3791 -0.8403 -0.7643
   10MOL   H390 4908   4.948   1.461   5.120 -0.6138 -0.0464 -2.2538
   10MOL   H391 4909   4.822   1.620   4.987  0.9837  2.9126  2.7549
   10MOL   H392 4910   4.961   1.555   4.898  1.3669  0.6077  0.1933
   10MOL   H393 4911   4.927   1.826   5.029  0.5450  0.1047  0.4483
   10MOL   H394 4912   5.084   1.767   4.970  0.4699  2.6071  0.1707
   10MOL   H395 4913   5.000   1.740   4.743  1.8554  1.0620 -1.2957
   10MOL   H396 4914   4.843   1.805   4.778  0.0073  1.4594 -1.0365
   10MOL   H397 4915   4.968   1.991   4.684  2.9025  0.7622 -0.3914
   10MOL   H398 4916   4.968   2.030   4.852 -2.0581 -0.7535  0.1786
   10MOL   H399 4917   5.177   2.066   4.769 -0.0370 -0.4721  1.7025
   10MOL   H400 4918   5.216   1.925   4.853  1.7072  2.0064 -0.6150
   10MOL   H401 4919   5.194   1.929   4.675  1.5775 -2.1230  1.4128
   10MOL   C402 4920   5.271   1.642   5.284 -0.4616  0.0598  0.4086
   10MOL   C403 4921   5.190   1.776   5.306  0.2426  0.7357  0.4878
   10MOL   O404 4922   5.268   1.888   5.296  0.1921 -0.3540 -0.1218
   10MOL   C405 4923   5.295   1.936   5.163 -0.0634  0.0386  0.1728
   10MOL   C406 4924   5.307   2.086   5.150 -0.7523 -0.5620  0.2186
   10MOL   C407 4925   5.197   2.163   5.215  0.7805 -0.6920  0.0115
   10MOL   C408 4926   5.224   2.316   5.245 -0.1204  0.2507 -0.2014
   10MOL   C409 4927   5.112   2.385   5.331 -0.2268 -0.4639 -0.4748
   10MOL   C410 4928   5.155   2.528   5.368 -0.2391  0.2226  0.0510
   10MOL   H411 4929   5.347   1.656   5.207 -0.3933  0.8017  0.6131
   10MOL   H412 4930   5.322   1.615   5.376 -1.5897 -1.7330  0.5335
   10MOL   H413 4931   5.115   1.775   5.227  0.4416 -1.1571  0.2811
   10MOL   H414 4932   5.215   1.910   5.093  0.8014  0.1933 -0.8820
   10MOL   H415 4933   5.383   1.888   5.121  0.6725  0.1865  1.5362
   10MOL   H416 4934   5.310   2.126   5.049  0.2138  0.9113  0.8043
   10MOL   H417 4935   5.395   2.109   5.211 -1.6228 -0.5219  1.4748
   10MOL   H418 4936   5.113   2.159   5.146  3.0787 -2.7155 -2.7654
   10MOL   H419 4937   5.174   2.103   5.303  3.9543 -1.3855  0.4240
   10MOL   H420 4938   5.315   2.332   5.304 -0.7247 -0.1504  0.8575
   10MOL   H421 4939   5.248   2.362   5.149 -0.1727 -1.0925 -0.8691
   10MOL   H422 4940   5.017   2.388   5.276  0.1821 -1.1283 -1.2219
   10MOL   H423 4941   5.103   2.328   5.424  2.4080  1.1783  0.8418
   10MOL   H424 4942   5.105   2.579   5.451  1.5563  2.0722  0.0369
   10MOL   H425 4943   5.260   2.534   5.398  0.2090 -3.7279 -0.4680
   10MOL   H426 4944   5.165   2.586   5.276  2.1183 -2.4237 -1.4551
   10MOL   C427 4945   5.118   1.766   5.443 -0.4649 -0.0772  0.5673
   10MOL   C428 4946   5.020   1.883   5.460  0.0329  0.3724  0.1850
   10MOL   O429 4947   4.926   1.895   5.346 -0.0069  0.4471 -0.1042
   10MOL   C430 4948   4.864   2.019   5.339  0.4626 -1.1605 -0.1081
   10MOL   C431 4949   4.783   2.026   5.212  0.1151 -0.5921 -0.2181
   10MOL   C432 4950   4.678   1.922   5.196  0.3293  0.0602 -0.8699
   10MOL   C433 4951   4.569   1.955   5.100  0.1763  0.1112 -0.4299
   10MOL   C434 4952   4.611   1.909   4.953 -0.2887  0.2918  0.0584
   10MOL   C435 4953   4.503   1.941   4.847 -0.1005  0.5823  1.0244
   10MOL   H436 4954   5.066   1.672   5.460 -0.6490 -0.1787 -0.5049
   10MOL   H437 4955   5.195   1.779   5.519  0.6528  0.7811 -0.6869
   10MOL   H438 4956   5.075   1.977   5.458 -2.5122  1.9087 -0.6815
   10MOL   H439 4957   4.939   2.098   5.339  0.5904 -1.2688  1.0052
   10MOL   H440 4958   4.806   2.030   5.431 -0.6434 -0.1275 -0.9129
   10MOL   H441 4959   4.849   2.017   5.125 -1.0297  0.8794 -1.2624
   10MOL   H442 4960   4.735   2.124   5.209  0.7253 -0.2701  0.3740
   10MOL   H443 4961   4.717   1.820   5.190 -1.2190 -0.6892  0.9833
   10MOL   H444 4962   4.624   1.921   5.291  1.1881  1.5561 -0.3597
   10MOL   H445 4963   4.471   1.912   5.124 -0.7081  1.3194 -1.7267
   10MOL   H446 4964   4.554   2.062   5.111 -0.0685  0.0223  0.1039
   10MOL   H447 4965   4.698   1.967   4.921  1.7176 -2.0499  1.0697
   10MOL   H448 4966   4.644   1.805   4.952 -1.1223  0.0313 -1.2174
   10MOL   H449 4967   4.533   1.906   4.749 -0.4042 -1.3450  1.5838
   10MOL   H450 4968   4.409   1.891   4.872 -0.3493  0.4180 -0.2532
   10MOL   H451 4969   4.488   2.049   4.846  2.0088  0.9293  2.4457
   10MOL   C452 4970   4.940   1.858   5.591  0.4449 -0.1496 -0.1314
   10MOL   C453 4971   5.022   1.893   5.715  0.2047  0.2671  0.2175
   10MOL   O454 4972   5.135   1.808   5.738 -0.2018 -0.4648 -0.7812
   10MOL   C455 4973   5.246   1.869   5.799  0.0513  0.6510  0.0506
   10MOL   C456 4974   5.339   1.756   5.846 -0.2912 -0.4753  0.4279
   10MOL   C457 4975   5.414   1.698   5.725 -0.1765  0.4189  0.5244
   10MOL   C458 4976   5.485   1.570   5.771 -0.3551 -0.6054  0.0259
   10MOL   C459 4977   5.594   1.529   5.673  0.0393  0.3578 -0.4034
   10MOL   C460 4978   5.678   1.426   5.738 -0.1771 -0.6428  0.2515
   10MOL   H461 4979   4.853   1.924   5.597  0.8645  0.8162 -3.4767
   10MOL   H462 4980   4.891   1.761   5.600 -0.6638  0.4817  0.8208
   10MOL   H463 4981   5.067   1.990   5.693  2.1604 -0.7613 -0.4123
   10MOL   H464 4982   5.219   1.918   5.893  0.9519  2.0704 -0.4245
   10MOL   H465 4983   5.295   1.939   5.732 -0.0765  1.8857  1.2312
   10MOL   H466 4984   5.286   1.674   5.893 -2.8187  1.8873  1.8352
   10MOL   H467 4985   5.417   1.792   5.913  0.2066 -0.7734  0.0084
   10MOL   H468 4986   5.340   1.680   5.647  1.0807 -0.4279 -0.4912
   10MOL   H469 4987   5.470   1.775   5.672 -1.3743  0.6106 -0.4988
   10MOL   H470 4988   5.539   1.598   5.862 -0.6406 -1.2019  0.3807
   10MOL   H471 4989   5.418   1.485   5.787  1.6363 -2.6236 -2.1104
   10MOL   H472 4990   5.538   1.496   5.585  0.6567  0.1911 -0.7349
   10MOL   H473 4991   5.651   1.619   5.651  1.3653 -0.3111  0.2971
   10MOL   H474 4992   5.621   1.354   5.797  0.2472 -0.0949  1.3465
   10MOL   H475 4993   5.729   1.370   5.659 -0.0338  0.0748 -0.1718
   10MOL   H476 4994   5.751   1.472   5.804 -0.7429  1.1312 -0.3345
   10MOL   C477 4995   4.941   1.897   5.848  0.0313  0.4055  0.5795
   10MOL   C478 4996   4.901   1.754   5.887 -0.6372 -0.8059 -0.9080
   10MOL   O479 4997   4.817   1.754   6.001  0.6336 -0.3733  0.2548
   10MOL   C480 4998   4.741   1.640   6.023 -0.1823 -0.5524 -1.3934
   10MOL   C481 4999   4.824   1.511   6.023 -0.4633 -0.1914 -0.7511
   10MOL   C482 5000   4.931   1.506   6.137 -0.0245  0.2544 -0.1149
   10MOL   C483 5001   5.012   1.379   6.140  0.3891  0.9797 -0.6365
   10MOL   C484 5002   5.127   1.383   6.249  0.2009 -0.2303  0.1619
   10MOL   C485 5003   5.210   1.255   6.242  1.0034  0.4309  0.5481
   10MOL   H486 5004   5.002   1.950   5.920  1.2029 -0.9917  0.6335
   10MOL   H487 5005   4.851   1.959   5.845 -0.3450 -0.1422  0.5228
   10MOL   H488 5006   4.857   1.692   5.809  1.1945 -0.9143 -1.8670
   10MOL   H489 5007   4.676   1.641   5.936  0.5223 -0.3172 -1.9215
   10MOL   H490 5008   4.684   1.649   6.116 -0.1032 -1.4360 -1.2606
   10MOL   H491 5009   4.867   1.494   5.924 -0.1575 -2.6189 -0.2331
   10MOL   H492 5010   4.768   1.418   6.040  1.2614 -1.1034  0.0576
   10MOL   H493 5011   4.991   1.595   6.116  2.6118 -1.5231 -0.3540
   10MOL   H494 5012   4.892   1.516   6.238  0.9419  2.9661  0.0420
   10MOL   H495 5013   4.942   1.297   6.158  1.5091  0.5018  1.7549
   10MOL   H496 5014   5.046   1.374   6.036  0.9195  1.5789 -0.4938
   10MOL   H497 5015   5.187   1.473   6.241 -1.0316  0.4402 -1.8560
   10MOL   H498 5016   5.086   1.387   6.350 -0.0875 -0.8499  0.0704
   10MOL   H499 5017   5.299   1.253   6.306  0.6916  2.5342  1.0760
   10MOL   H500 5018   5.160   1.158   6.249 -0.5009  1.1519  0.0212
   10MOL   H501 5019   5.257   1.245   6.144 -0.3270 -2.1558  0.1362
   10MOL   H502 5020   4.991   1.703   5.922 -0.6718  1.2116  2.2941
   11MOL     C1 5021   2.799   6.603   3.685 -0.6443  0.0486 -0.0614
   11MOL     C2 5022   2.732   6.638   3.551 -0.1586  0.5615 -0.2362
   11MOL     O3 5023   2.613   6.700   3.580  0.0898 -0.2901  0.0796
   11MOL     C4 5024   2.613   6.841   3.590 -0.9312  0.8255 -0.1530
   11MOL     C5 5025   2.502   6.890   3.673 -0.4769 -0.5704  0.3288
   11MOL     C6 5026   2.470   7.042   3.663  0.8657 -0.1043  1.1065
   11MOL     C7 5027   2.325   7.069   3.685 -0.2294 -0.1789  0.0840
   11MOL     C8 5028   2.286   7.219   3.673 -0.6715 -0.0029  0.1585
   11MOL     C9 5029   2.160   7.257   3.739  0.3411 -0.1894 -0.0299
   11MOL    H10 5030   2.726   6.552   3.748  1.6516 -3.2141  0.0828
   11MOL    H11 5031   2.881   6.533   3.676 -0.8220  0.0239 -1.6415
   11MOL    H12 5032   2.797   6.693   3.483 -0.0158 -1.1941 -1.5652
   11MOL    H13 5033   2.598   6.867   3.485  2.7700  1.2852 -0.6224
   11MOL    H14 5034   2.710   6.888   3.602 -0.1172 -1.1306  1.1349
   11MOL    H15 5035   2.519   6.865   3.778 -0.2220 -0.0963  0.4002
   11MOL    H16 5036   2.415   6.837   3.635  1.1894 -1.7692 -1.9083
   11MOL    H17 5037   2.542   7.083   3.734  3.1565 -1.1385 -0.5444
   11MOL    H18 5038   2.490   7.076   3.561 -1.4676  0.0847  0.6829
   11MOL    H19 5039   2.266   7.005   3.619 -1.9694  0.4051  1.0549
   11MOL    H20 5040   2.297   7.043   3.787 -0.1579  1.9019  0.6378
   11MOL    H21 5041   2.283   7.227   3.564 -2.7597 -0.5527  0.1456
   11MOL    H22 5042   2.363   7.289   3.705 -0.3811 -0.6247  0.8340
   11MOL    H23 5043   2.118   7.181   3.804 -0.8511  0.9920  0.6118
   11MOL    H24 5044   2.183   7.349   3.792  1.3488  0.2343 -1.1778
   11MOL    H25 5045   2.089   7.287   3.661  0.2195  0.8712  0.4756
   11MOL    H26 5046   2.839   6.697   3.724 -0.6707 -0.5516  1.4329
   11MOL    C27 5047   2.697   6.509   3.480 -0.7000  0.8796 -0.5495
   11MOL    C28 5048   2.626   6.516   3.346 -0.5716 -0.2006 -0.7263
   11MOL    O29 5049   2.722   6.556   3.250 -0.3157 -0.1632  0.7930
   11MOL    C30 5050   2.687   6.659   3.156  0.8450  0.1115 -0.7572
   11MOL    C31 5051   2.808   6.711   3.081 -0.2398 -0.6097  0.5736
   11MOL    C32 5052   2.863   6.609   2.979 -0.3038 -1.1029 -0.0525
   11MOL    C33 5053   2.998   6.650   2.921  0.0568 -0.2869  0.4468
   11MOL    C34 5054   3.048   6.561   2.805 -0.7774 -0.1560  0.3228
   11MOL    C35 5055   2.957   6.564   2.689  0.2758  0.3755 -0.0833
   11MOL    H36 5056   2.790   6.454   3.473 -0.2530  1.1851  2.3007
   11MOL    H37 5057   2.636   6.450   3.548 -0.0721 -0.0814 -0.8085
   11MOL    H38 5058   2.543   6.586   3.345 -1.1442 -0.8818 -0.8541
   11MOL    H39 5059   2.661   6.741   3.223  1.9755  2.9072 -3.6241
   11MOL    H40 5060   2.597   6.638   3.098  1.0735  2.5765 -2.0867
   11MOL    H41 5061   2.880   6.721   3.162  0.3188 -1.7105  0.2206
   11MOL    H42 5062   2.784   6.808   3.038  1.0086 -0.4752  0.1715
   11MOL    H43 5063   2.852   6.509   3.019 -0.1470 -0.7037  0.9927
   11MOL    H44 5064   2.801   6.616   2.889  1.4100 -2.4576 -1.3726
   11MOL    H45 5065   2.994   6.751   2.881  0.8715 -0.4347 -0.0335
   11MOL    H46 5066   3.078   6.653   2.994 -1.3572  0.8072  1.9777
   11MOL    H47 5067   3.139   6.610   2.770 -0.9032  0.4648  0.8486
   11MOL    H48 5068   3.072   6.458   2.832  0.0454 -0.3065 -0.9311
   11MOL    H49 5069   2.992   6.541   2.589 -0.7960 -0.9313 -0.1749
   11MOL    H50 5070   2.869   6.502   2.705 -1.0337  2.4771  1.1787
   11MOL    H51 5071   2.926   6.668   2.675 -0.0449  0.2559 -0.2585
   11MOL    C52 5072   2.593   6.373   3.296  0.2231 -0.0423  0.5146
   11MOL    C53 5073   2.520   6.366   3.155 -0.1480  0.0982 -0.0564
   11MOL    O54 5074   2.528   6.234   3.105 -0.3333 -0.0232  0.1955
   11MOL    C55 5075   2.646   6.201   3.032  0.7329 -0.0940  0.2541
   11MOL    C56 5076   2.635   6.058   2.993  0.3791 -0.0769  0.3521
   11MOL    C57 5077   2.734   6.025   2.891 -1.0208 -0.1418 -0.8064
   11MOL    C58 5078   2.716   5.878   2.844  0.5936 -0.3437  0.1221
   11MOL    C59 5079   2.779   5.844   2.707 -0.1277  0.0015 -0.2445
   11MOL    C60 5080   2.923   5.878   2.687 -0.4413 -0.6592  0.5860
   11MOL    H61 5081   2.534   6.323   3.373  0.2651 -0.5298  0.2376
   11MOL    H62 5082   2.691   6.326   3.285 -0.0436 -0.6713  0.8197
   11MOL    H63 5083   2.574   6.429   3.083  1.4489 -0.4945  0.5888
   11MOL    H64 5084   2.730   6.223   3.097  3.0855 -1.3334 -2.2804
   11MOL    H65 5085   2.665   6.263   2.945  0.1346 -0.1264  0.0931
   11MOL    H66 5086   2.532   6.039   2.963  1.3697 -0.6047 -2.8553
   11MOL    H67 5087   2.646   5.994   3.081  0.0539  0.4045  0.7486
   11MOL    H68 5088   2.711   6.070   2.795  0.4410 -2.1831 -2.1591
   11MOL    H69 5089   2.833   6.062   2.920 -0.7649 -0.7332 -0.9126
   11MOL    H70 5090   2.748   5.807   2.920 -0.8262 -0.0148  1.0476
   11MOL    H71 5091   2.608   5.867   2.838  0.4636  0.0127  1.7838
   11MOL    H72 5092   2.766   5.736   2.694  1.5813 -0.5267  2.0266
   11MOL    H73 5093   2.720   5.893   2.629  0.0303 -1.0505 -1.0400
   11MOL    H74 5094   2.950   5.834   2.592 -0.5199  0.5135  0.0071
   11MOL    H75 5095   2.941   5.985   2.699 -0.2907 -0.5712 -0.3824
   11MOL    H76 5096   2.981   5.824   2.762  0.6357  0.1055  0.3276
   11MOL    C77 5097   2.368   6.401   3.151  0.0864 -0.9977  1.1337
   11MOL    C78 5098   2.305   6.391   3.013 -0.1080 -0.3846 -0.4762
   11MOL    O79 5099   2.400   6.459   2.931  0.8309 -0.2261  0.0094
   11MOL    C80 5100   2.412   6.421   2.799 -0.1881  0.1694 -0.5732
   11MOL    C81 5101   2.538   6.477   2.740  0.0460  0.4031 -1.0452
   11MOL    C82 5102   2.561   6.451   2.587  0.6397  0.0420  0.1756
   11MOL    C83 5103   2.600   6.303   2.560  0.5091  0.3051 -0.3875
   11MOL    C84 5104   2.752   6.277   2.566  0.1297  0.5579 -0.9614
   11MOL    C85 5105   2.830   6.336   2.444  0.6527 -0.1973 -0.4780
   11MOL    H86 5106   2.364   6.507   3.176  2.5253 -0.7711  0.6431
   11MOL    H87 5107   2.314   6.343   3.226  2.1805 -2.4637  1.5224
   11MOL    H88 5108   2.286   6.285   2.996  0.6790 -0.4356 -1.0355
   11MOL    H89 5109   2.323   6.445   2.741 -0.3902 -0.0960 -0.3784
   11MOL    H90 5110   2.426   6.312   2.795 -0.7537 -0.0271  2.0608
   11MOL    H91 5111   2.625   6.446   2.797 -1.7593 -0.3592  1.3602
   11MOL    H92 5112   2.545   6.585   2.756 -0.0233  0.5205 -1.7768
   11MOL    H93 5113   2.473   6.476   2.529  0.8650 -2.0426 -1.1417
   11MOL    H94 5114   2.642   6.517   2.555  1.5514 -0.2681  1.7917
   11MOL    H95 5115   2.549   6.234   2.629  0.7692 -1.5306 -1.9870
   11MOL    H96 5116   2.551   6.278   2.466 -0.9561 -1.3531  0.7810
   11MOL    H97 5117   2.787   6.334   2.651 -0.6045  0.5997 -0.6813
   11MOL    H98 5118   2.772   6.171   2.581 -0.3361  0.7364  0.9720
   11MOL    H99 5119   2.795   6.277   2.359 -0.0168  0.5402 -0.7136
   11MOL   H100 5120   2.822   6.442   2.421  0.6570  0.3777  2.0041
   11MOL   H101 5121   2.937   6.330   2.464  0.7047 -0.2515 -0.7717
   11MOL   C102 5122   2.165   6.454   2.992 -0.0790 -0.4829  0.1550
   11MOL   C103 5123   2.051   6.380   3.065  0.2439 -0.0716 -0.6764
   11MOL   O104 5124   1.942   6.458   3.064  0.4092  0.3580  0.2906
   11MOL   C105 5125   1.941   6.572   3.161 -0.5770 -0.4220 -0.1175
   11MOL   C106 5126   1.803   6.641   3.149  0.6069 -0.2360 -0.5150
   11MOL   C107 5127   1.783   6.722   3.018 -0.6705  0.1421 -0.0386
   11MOL   C108 5128   1.638   6.772   3.007 -0.5711  0.6444  0.0556
   11MOL   C109 5129   1.606   6.859   2.886  0.6713  0.0722  1.3894
   11MOL   C110 5130   1.459   6.892   2.877 -0.4776  0.1013 -0.7793
   11MOL   H111 5131   2.160   6.555   3.031 -2.9801  0.5327 -2.5916
   11MOL   H112 5132   2.136   6.451   2.887 -1.5518 -0.5255  0.5518
   11MOL   H113 5133   2.081   6.357   3.167  0.9906  1.1087 -0.6235
   11MOL   H114 5134   2.021   6.646   3.154 -1.2024  0.5262  2.2261
   11MOL   H115 5135   1.951   6.528   3.260  1.2323  0.4760  0.1212
   11MOL   H116 5136   1.797   6.711   3.233 -0.5183 -1.7743  0.7187
   11MOL   H117 5137   1.721   6.570   3.158 -0.6706  1.3866  1.0862
   11MOL   H118 5138   1.852   6.806   3.025 -0.1369 -0.2837 -0.2120
   11MOL   H119 5139   1.815   6.671   2.928 -0.6744  1.1040 -0.5967
   11MOL   H120 5140   1.568   6.688   3.007  1.0464 -0.7345  0.6825
   11MOL   H121 5141   1.629   6.833   3.097  3.0495  2.3182 -0.6529
   11MOL   H122 5142   1.684   6.935   2.881 -0.1184  0.7739 -1.3140
   11MOL   H123 5143   1.632   6.801   2.797  0.7582  2.0735  0.0786
   11MOL   H124 5144   1.394   6.804   2.875 -2.2380  1.3478  0.4973
   11MOL   H125 5145   1.439   6.953   2.965  0.0888  0.5830 -0.9810
   11MOL   H126 5146   1.425   6.948   2.790 -0.0494  0.4696 -0.7090
   11MOL   C127 5147   2.011   6.254   2.991  0.4295  0.4199 -0.1961
   11MOL   C128 5148   1.897   6.173   3.065  0.3783 -0.6809  0.7861
   11MOL   O129 5149   1.934   6.160   3.202 -0.5675 -0.1252  0.1589
   11MOL   C130 5150   1.822   6.152   3.292 -0.6745  0.6552  0.6930
   11MOL   C131 5151   1.867   6.221   3.417  0.0880  0.4110 -0.5237
   11MOL   C132 5152   1.759   6.269   3.523  0.0224  0.3231  0.5398
   11MOL   C133 5153   1.687   6.162   3.604 -0.0537 -0.1529  0.4328
   11MOL   C134 5154   1.535   6.173   3.605  0.0195 -0.1156 -0.3652
   11MOL   C135 5155   1.465   6.068   3.691 -0.0080  0.3081  0.1641
   11MOL   H136 5156   1.963   6.278   2.896 -0.3717  0.4480  0.2182
   11MOL   H137 5157   2.088   6.181   2.964 -1.1476 -1.1264 -0.5961
   11MOL   H138 5158   1.810   6.238   3.053  1.0108 -0.3656 -2.5280
   11MOL   H139 5159   1.785   6.049   3.294 -1.0142  0.7518 -0.2057
   11MOL   H140 5160   1.744   6.214   3.248 -1.7193  0.0350  1.6499
   11MOL   H141 5161   1.920   6.308   3.378 -1.0218  0.7763 -1.2401
   11MOL   H142 5162   1.938   6.155   3.465  1.5480 -0.3612 -3.6456
   11MOL   H143 5163   1.815   6.329   3.595  0.9073  1.3044 -0.9280
   11MOL   H144 5164   1.699   6.329   3.454  3.1982  1.7246 -1.1156
   11MOL   H145 5165   1.711   6.064   3.563 -1.4015  0.2062 -1.3232
   11MOL   H146 5166   1.727   6.170   3.705  3.0240  1.2236 -0.8435
   11MOL   H147 5167   1.503   6.272   3.640  1.5050 -0.1130  1.0449
   11MOL   H148 5168   1.491   6.152   3.508 -0.0105 -2.2279  0.0845
   11MOL   H149 5169   1.358   6.077   3.672 -0.4897 -0.8327  2.1835
   11MOL   H150 5170   1.495   5.966   3.669 -0.4992 -0.5224  3.0298
   11MOL   H151 5171   1.479   6.085   3.798 -1.1969  0.2655  0.3350
   11MOL   C152 5172   1.867   6.036   2.994 -0.1014  0.4604 -0.3103
   11MOL   C153 5173   1.771   6.045   2.874 -0.1076 -0.2228  0.0781
   11MOL   O154 5174   1.832   6.119   2.766  0.4590  0.9942  0.3795
   11MOL   C155 5175   1.921   6.032   2.702  0.3154  0.2817  0.4400
   11MOL   C156 5176   2.040   6.118   2.656  0.1127 -0.8359  0.0434
   11MOL   C157 5177   1.998   6.223   2.554 -0.7190  0.0470 -0.1174
   11MOL   C158 5178   2.113   6.313   2.519 -0.4395  0.2298  0.4161
   11MOL   C159 5179   2.227   6.255   2.427  0.5325 -0.1318 -0.2868
   11MOL   C160 5180   2.189   6.271   2.274  0.1355 -0.0433  0.5879
   11MOL   H161 5181   1.965   5.994   2.971  0.8136  1.0701  2.2731
   11MOL   H162 5182   1.819   5.969   3.065  3.3431  0.5921  2.2738
   11MOL   H163 5183   1.692   6.111   2.910 -0.0989 -0.0234 -0.2652
   11MOL   H164 5184   1.872   5.990   2.614  1.0393 -1.6443  0.9256
   11MOL   H165 5185   1.974   5.961   2.765 -0.0709 -1.0692 -0.7343
   11MOL   H166 5186   2.122   6.055   2.620 -0.1685 -1.2054  0.0463
   11MOL   H167 5187   2.090   6.165   2.741 -0.6261  0.0248  0.0079
   11MOL   H168 5188   1.959   6.182   2.461 -0.0838 -1.1873  0.1611
   11MOL   H169 5189   1.921   6.279   2.609 -0.0743  1.5109 -0.6838
   11MOL   H170 5190   2.074   6.396   2.461  0.5697  0.4007 -0.0285
   11MOL   H171 5191   2.154   6.357   2.610 -0.3927  0.4726  0.2785
   11MOL   H172 5192   2.325   6.298   2.449  0.5926 -0.8566  0.9387
   11MOL   H173 5193   2.250   6.150   2.443  2.0514  0.4123  1.2500
   11MOL   H174 5194   2.155   6.170   2.249  2.5065 -0.9687  0.9639
   11MOL   H175 5195   2.138   6.361   2.241 -1.5354 -1.4235 -0.7281
   11MOL   H176 5196   2.284   6.284   2.221 -1.2186  0.5835 -1.7352
   11MOL   C177 5197   1.705   5.911   2.842 -0.1610  0.4395 -0.7106
   11MOL   C178 5198   1.587   5.876   2.932 -0.4463  0.6053 -0.4675
   11MOL   O179 5199   1.484   5.967   2.906 -0.1058  0.0208  0.1529
   11MOL   C180 5200   1.435   6.042   3.010  0.2086  0.1126 -0.9729
   11MOL   C181 5201   1.337   6.156   2.962  0.9362 -0.4689 -0.2960
   11MOL   C182 5202   1.291   6.256   3.065 -0.4658  0.3041 -0.5990
   11MOL   C183 5203   1.202   6.367   3.010  0.0588 -0.6995 -0.4481
   11MOL   C184 5204   1.048   6.330   3.017 -0.0784  0.2202  0.7581
   11MOL   C185 5205   0.962   6.435   2.953 -0.3814  0.0066  0.0623
   11MOL   H186 5206   1.664   5.913   2.741 -0.1242  1.1509 -0.7150
   11MOL   H187 5207   1.786   5.838   2.839 -0.8789 -0.4156  0.2525
   11MOL   H188 5208   1.617   5.874   3.036  5.2136 -2.2500 -1.9554
   11MOL   H189 5209   1.522   6.092   3.053  0.0545  0.0598 -0.5951
   11MOL   H190 5210   1.396   5.965   3.077  0.6145  2.0035  1.5069
   11MOL   H191 5211   1.252   6.112   2.911 -0.4632  2.0329 -0.1604
   11MOL   H192 5212   1.378   6.212   2.878  1.6038  2.0901  1.6677
   11MOL   H193 5213   1.244   6.204   3.148  0.1636  2.4322  1.1546
   11MOL   H194 5214   1.381   6.302   3.106 -0.9532  1.1840 -0.4922
   11MOL   H195 5215   1.221   6.455   3.071  2.6767 -1.2363 -0.4038
   11MOL   H196 5216   1.232   6.382   2.906  0.5013 -0.5533 -0.3009
   11MOL   H197 5217   1.041   6.229   2.977 -3.9141  0.2546  1.1728
   11MOL   H198 5218   1.018   6.318   3.121 -2.7217 -1.3031 -0.1274
   11MOL   H199 5219   0.857   6.404   2.952 -0.8566  1.5339 -1.7569
   11MOL   H200 5220   0.969   6.523   3.017  0.8516 -1.2723  1.7140
   11MOL   H201 5221   0.981   6.458   2.848 -0.5609  3.3329  0.7007
   11MOL   C202 5222   1.532   5.732   2.896 -0.8682  0.1989  0.2272
   11MOL   C203 5223   1.625   5.615   2.949  0.7170  0.0337  0.4541
   11MOL   O204 5224   1.753   5.620   2.886 -0.1631 -0.0703 -1.2401
   11MOL   C205 5225   1.857   5.579   2.974  0.5252  0.3839 -1.0691
   11MOL   C206 5226   1.975   5.529   2.897  0.2507 -0.3234  0.4768
   11MOL   C207 5227   1.931   5.440   2.779 -0.4961  0.0865  0.3172
   11MOL   C208 5228   2.045   5.426   2.670  0.1557 -0.0890  0.2797
   11MOL   C209 5229   1.999   5.332   2.557  0.2315 -0.5486 -0.2322
   11MOL   C210 5230   2.112   5.321   2.456  0.3780 -0.2592 -0.1809
   11MOL   H211 5231   1.438   5.727   2.950 -0.9889  0.7824  0.0728
   11MOL   H212 5232   1.503   5.706   2.794 -1.1519  0.7550  0.1671
   11MOL   H213 5233   1.635   5.633   3.056  0.0992  1.1935  0.3262
   11MOL   H214 5234   1.814   5.513   3.049 -0.5268 -0.1899 -2.1644
   11MOL   H215 5235   1.891   5.672   3.020  1.1357  0.6266 -2.0027
   11MOL   H216 5236   2.035   5.470   2.967  0.3854 -0.0135  0.6246
   11MOL   H217 5237   2.029   5.616   2.859 -0.1876 -0.0690  0.4345
   11MOL   H218 5238   1.900   5.342   2.815 -1.6777  0.1681 -0.4316
   11MOL   H219 5239   1.844   5.477   2.725  0.0100  0.2819 -0.3718
   11MOL   H220 5240   2.068   5.528   2.638 -0.5780 -0.5169 -1.6434
   11MOL   H221 5241   2.140   5.394   2.712  1.4846 -0.5536 -2.9532
   11MOL   H222 5242   1.973   5.230   2.583 -2.0032  0.3194  1.0128
   11MOL   H223 5243   1.912   5.371   2.504 -0.5774 -3.0797 -0.8360
   11MOL   H224 5244   2.204   5.277   2.496 -1.2564 -0.4081  3.5644
   11MOL   H225 5245   2.091   5.261   2.368 -1.4066  0.7094 -0.4381
   11MOL   H226 5246   2.145   5.421   2.424  1.7605 -0.6118  0.0845
   11MOL   C227 5247   1.569   5.475   2.919 -0.0119 -0.5811  0.3820
   11MOL   C228 5248   1.417   5.444   2.933 -1.1150 -0.5651  0.4965
   11MOL   O229 5249   1.382   5.313   2.880  0.2738 -0.3657  0.6222
   11MOL   C230 5250   1.260   5.307   2.815 -0.5499  0.3555  0.6052
   11MOL   C231 5251   1.271   5.257   2.670 -0.5770 -0.3374  0.2526
   11MOL   C232 5252   1.151   5.274   2.583  0.2416  0.0639  0.0638
   11MOL   C233 5253   1.155   5.173   2.470 -0.6396 -0.7197 -0.3315
   11MOL   C234 5254   1.274   5.197   2.369  0.5311 -0.8060 -0.2654
   11MOL   C235 5255   1.255   5.127   2.229 -0.7644 -0.3524 -0.8381
   11MOL   H236 5256   1.589   5.464   2.812 -1.2104  3.1485 -0.3009
   11MOL   H237 5257   1.628   5.393   2.960  3.1971  1.2481 -0.3853
   11MOL   H238 5258   1.370   5.523   2.875  0.7151  0.1458 -0.0669
   11MOL   H239 5259   1.195   5.395   2.816 -3.2761 -1.6123  2.7206
   11MOL   H240 5260   1.212   5.224   2.866 -3.5463  0.7458 -1.4427
   11MOL   H241 5261   1.297   5.151   2.678 -0.0922 -0.1825  0.7515
   11MOL   H242 5262   1.364   5.291   2.624 -0.0692 -0.6435  1.0407
   11MOL   H243 5263   1.065   5.257   2.647  1.2459 -0.0003  1.4229
   11MOL   H244 5264   1.136   5.372   2.539  0.8312  0.6732  1.1884
   11MOL   H245 5265   1.147   5.072   2.511  0.9028 -0.4937  0.5458
   11MOL   H246 5266   1.062   5.189   2.415 -0.5571 -0.2422 -0.3286
   11MOL   H247 5267   1.273   5.304   2.351 -0.3987 -0.6045  0.9273
   11MOL   H248 5268   1.372   5.164   2.404  1.3723 -0.1033 -1.9082
   11MOL   H249 5269   1.161   5.152   2.180 -3.7386 -1.2797  4.0631
   11MOL   H250 5270   1.338   5.169   2.172 -0.7772  0.2872 -0.3906
   11MOL   H251 5271   1.248   5.019   2.233  0.4889 -0.3594  2.8331
   11MOL   C252 5272   1.390   5.451   3.086  0.5161  0.2389 -0.1094
   11MOL   C253 5273   1.245   5.439   3.138 -0.3865  0.1818 -0.2484
   11MOL   O254 5274   1.235   5.497   3.267  0.2504  0.1655 -0.7081
   11MOL   C255 5275   1.207   5.633   3.270 -0.1356  0.3185 -0.3709
   11MOL   C256 5276   1.218   5.681   3.416  0.1488 -0.4692  0.4204
   11MOL   C257 5277   1.176   5.823   3.447 -0.7038 -0.2831 -0.3254
   11MOL   C258 5278   1.034   5.857   3.402 -0.4170 -0.4580  0.5557
   11MOL   C259 5279   1.002   6.006   3.430  1.2200  0.3058 -0.5810
   11MOL   C260 5280   0.900   6.072   3.340 -0.3010  0.3009  0.4031
   11MOL   H261 5281   1.450   5.377   3.140  0.8327 -0.0575 -0.8627
   11MOL   H262 5282   1.437   5.542   3.124 -0.1964  0.1760  0.9321
   11MOL   H263 5283   1.175   5.489   3.071 -1.3747  1.3154  1.6083
   11MOL   H264 5284   1.109   5.639   3.223  1.4448  1.7086 -3.6435
   11MOL   H265 5285   1.272   5.696   3.210  1.6904  1.0560  2.2916
   11MOL   H266 5286   1.323   5.678   3.444  0.4189  0.7863 -0.4093
   11MOL   H267 5287   1.160   5.616   3.482 -0.2058 -1.8904 -1.2581
   11MOL   H268 5288   1.194   5.870   3.544  1.3473 -0.8663 -0.4210
   11MOL   H269 5289   1.243   5.889   3.393 -0.0340  1.0731  2.0816
   11MOL   H270 5290   1.037   5.847   3.294 -0.6459 -3.2216  0.7745
   11MOL   H271 5291   0.954   5.790   3.434 -0.1892 -0.9637  0.0553
   11MOL   H272 5292   0.976   6.019   3.535  2.7113  1.8843 -0.3672
   11MOL   H273 5293   1.090   6.069   3.412  2.5330 -1.4939 -0.6639
   11MOL   H274 5294   0.934   6.081   3.237 -2.3114 -0.8583 -0.3850
   11MOL   H275 5295   0.805   6.019   3.339  0.0820 -0.3790  0.1604
   11MOL   H276 5296   0.876   6.173   3.376  2.0048  0.2533  2.1464
   11MOL   C277 5297   1.194   5.299   3.163 -0.7123 -0.5854 -0.0150
   11MOL   C278 5298   1.042   5.278   3.141 -0.0136 -0.6399  0.4900
   11MOL   O279 5299   1.013   5.299   3.002  0.1555  0.4029  0.1632
   11MOL   C280 5300   0.873   5.343   2.991 -0.0663  0.4576  0.2917
   11MOL   C281 5301   0.825   5.311   2.861  0.1277  0.2870  0.1079
   11MOL   C282 5302   0.674   5.327   2.858 -0.4607  0.2639 -0.3229
   11MOL   C283 5303   0.619   5.273   2.726  1.1789  0.3041  0.1192
   11MOL   C284 5304   0.469   5.287   2.689  0.4496 -0.0953 -0.5375
   11MOL   C285 5305   0.374   5.280   2.816 -0.1407 -0.2150  0.1500
   11MOL   H286 5306   1.238   5.228   3.092 -4.3851 -1.4965 -1.5182
   11MOL   H287 5307   1.217   5.277   3.267  1.9966  2.2662  0.0449
   11MOL   H288 5308   0.994   5.360   3.193  2.1729  1.2330 -0.3582
   11MOL   H289 5309   0.879   5.450   3.009  0.5894  0.0705  2.5267
   11MOL   H290 5310   0.805   5.305   3.067  0.2028  0.4234  0.5205
   11MOL   H291 5311   0.847   5.208   2.833 -0.4469  0.6456 -1.7081
   11MOL   H292 5312   0.868   5.385   2.794 -0.7345  0.7456  0.0635
   11MOL   H293 5313   0.627   5.260   2.931  0.8118 -0.5397 -0.2362
   11MOL   H294 5314   0.653   5.432   2.877  2.6892  0.9475 -0.3910
   11MOL   H295 5315   0.674   5.326   2.648  1.5409 -0.6880 -0.2997
   11MOL   H296 5316   0.649   5.169   2.714 -0.8554 -0.3047  0.1843
   11MOL   H297 5317   0.447   5.381   2.639 -0.9865 -0.2092 -0.1403
   11MOL   H298 5318   0.440   5.216   2.611  1.5584  0.1493 -1.1948
   11MOL   H299 5319   0.419   5.339   2.895 -0.9864 -0.2684  0.6763
   11MOL   H300 5320   0.278   5.328   2.800 -0.2933 -0.0588  1.5111
   11MOL   H301 5321   0.352   5.179   2.851  1.0951 -0.3628  0.5240
   11MOL   C302 5322   0.988   5.141   3.184  0.5515  0.2716 -0.1035
   11MOL   C303 5323   0.959   5.134   3.336 -0.0018  0.0178  0.2884
   11MOL   O304 5324   0.951   4.990   3.363 -0.7916 -0.4921  0.2346
   11MOL   C305 5325   1.042   4.930   3.455 -0.7296  0.3661 -0.5424
   11MOL   C306 5326   0.987   4.804   3.509 -0.3326 -0.6627 -0.4173
   11MOL   C307 5327   1.085   4.743   3.615 -0.2112  1.2609  0.1623
   11MOL   C308 5328   1.130   4.835   3.726 -0.0526 -0.2060  0.0192
   11MOL   C309 5329   1.244   4.770   3.815 -0.2545 -0.2917 -0.4872
   11MOL   C310 5330   1.209   4.665   3.913 -0.4645  0.7224 -0.4030
   11MOL   H311 5331   0.888   5.127   3.142  0.1008 -0.6546  1.2242
   11MOL   H312 5332   1.060   5.067   3.151 -1.4544 -2.6192  1.7652
   11MOL   H313 5333   1.045   5.176   3.388 -1.2574  4.5377 -1.0993
   11MOL   H314 5334   1.066   4.995   3.539  2.0020 -1.3615  0.0986
   11MOL   H315 5335   1.139   4.919   3.406 -0.2686  0.5474  0.3145
   11MOL   H316 5336   0.977   4.731   3.429 -0.8689 -0.6924 -0.3225
   11MOL   H317 5337   0.890   4.821   3.555 -1.4861 -1.2997 -2.5468
   11MOL   H318 5338   1.031   4.653   3.646 -0.2503  1.2116 -0.0464
   11MOL   H319 5339   1.172   4.698   3.566  0.1007  0.3792  1.4724
   11MOL   H320 5340   1.171   4.927   3.685 -0.9117  0.2837  0.2504
   11MOL   H321 5341   1.043   4.873   3.780 -0.5056 -1.3957  0.1499
   11MOL   H322 5342   1.327   4.746   3.750  0.3633  1.6049 -0.4156
   11MOL   H323 5343   1.284   4.861   3.860 -0.7650 -0.2320 -0.1369
   11MOL   H324 5344   1.225   4.696   4.016 -2.2442  1.1898 -0.2585
   11MOL   H325 5345   1.105   4.643   3.891 -0.0574 -1.1159 -0.6214
   11MOL   H326 5346   1.268   4.577   3.888 -1.5515 -1.0680  3.0465
   11MOL   C327 5347   0.826   5.199   3.384 -0.0679 -0.1066  0.2863
   11MOL   C328 5348   0.795   5.201   3.541 -0.4702 -0.3519  0.1754
   11MOL   O329 5349   0.896   5.278   3.604  0.1121  0.3722  0.5490
   11MOL   C330 5350   0.914   5.238   3.740 -0.2401 -0.1089 -0.2013
   11MOL   C331 5351   1.047   5.282   3.802 -0.3657 -0.3221  0.1495
   11MOL   C332 5352   1.066   5.291   3.960  0.4166 -0.2829  0.6218
   11MOL   C333 5353   1.202   5.338   4.004  0.4663  0.4928  0.5881
   11MOL   C334 5354   1.251   5.282   4.139 -0.5528 -0.2482  0.2649
   11MOL   C335 5355   1.384   5.344   4.187  0.9123  0.0233 -0.5236
   11MOL   H336 5356   0.744   5.146   3.336 -0.3205  1.4126 -1.0214
   11MOL   H337 5357   0.828   5.302   3.348 -1.9922 -0.4402 -0.8241
   11MOL   H338 5358   0.794   5.102   3.587 -1.7871 -0.6504 -0.4688
   11MOL   H339 5359   0.905   5.130   3.751 -3.4664  0.1219 -0.2893
   11MOL   H340 5360   0.832   5.291   3.788 -1.4803 -3.5229  1.5444
   11MOL   H341 5361   1.079   5.375   3.757 -2.4626  0.5175  0.3268
   11MOL   H342 5362   1.113   5.206   3.759 -0.4184 -0.3560  0.1284
   11MOL   H343 5363   0.985   5.344   4.010  0.5411 -2.5779  3.3570
   11MOL   H344 5364   1.056   5.185   3.982 -3.0598 -0.2631 -0.4834
   11MOL   H345 5365   1.284   5.328   3.933  2.0671  2.1145  2.1574
   11MOL   H346 5366   1.181   5.445   4.010 -0.4130  0.3455  0.2214
   11MOL   H347 5367   1.175   5.291   4.217 -0.8542  0.5777 -0.1121
   11MOL   H348 5368   1.259   5.175   4.123 -1.0260 -0.1435 -0.7258
   11MOL   H349 5369   1.463   5.327   4.113 -0.0593 -1.6089 -1.2253
   11MOL   H350 5370   1.366   5.450   4.204 -0.4848 -0.2429 -0.2890
   11MOL   H351 5371   1.429   5.302   4.277  0.2791 -0.8727 -0.6136
   11MOL   C352 5372   0.651   5.253   3.572 -0.7304  0.1654  0.1120
   11MOL   C353 5373   0.531   5.159   3.530 -0.4348  0.4332 -0.4148
   11MOL   O354 5374   0.522   5.148   3.382  0.4591 -0.3732 -0.7415
   11MOL   C355 5375   0.499   5.010   3.348  0.1368 -0.2673 -0.3571
   11MOL   C356 5376   0.499   4.993   3.200  0.3989 -0.3054  0.1814
   11MOL   C357 5377   0.632   5.024   3.127  0.6346  0.1051  0.3388
   11MOL   C358 5378   0.632   4.994   2.972 -0.2160  0.3821 -0.2006
   11MOL   C359 5379   0.624   4.847   2.934  0.0166 -0.3358  0.2708
   11MOL   C360 5380   0.627   4.839   2.775  0.4547 -0.5043  0.8389
   11MOL   H361 5381   0.625   5.272   3.676 -0.7708 -0.8693  0.2951
   11MOL   H362 5382   0.643   5.349   3.520  1.2821 -0.7767 -2.0324
   11MOL   H363 5383   0.552   5.068   3.586  0.0595  1.4523  1.0780
   11MOL   H364 5384   0.404   4.971   3.385  0.9021 -1.8383  0.0466
   11MOL   H365 5385   0.588   4.960   3.387  0.6615  1.1395  0.2886
   11MOL   H366 5386   0.427   5.059   3.151  0.1026  1.5238  2.9602
   11MOL   H367 5387   0.475   4.889   3.183  2.5815 -0.8096 -0.0551
   11MOL   H368 5388   0.649   5.130   3.146  1.9257 -0.1728  0.8112
   11MOL   H369 5389   0.715   4.971   3.175 -0.3639 -2.6340 -0.8688
   11MOL   H370 5390   0.544   5.038   2.926  1.2608  2.1141 -1.4399
   11MOL   H371 5391   0.726   5.033   2.935  0.8482  0.8466  2.8718
   11MOL   H372 5392   0.706   4.793   2.982  0.2096  0.1313  0.4670
   11MOL   H373 5393   0.528   4.812   2.971 -0.3814  1.5182  1.0343
   11MOL   H374 5394   0.567   4.914   2.724  3.1114  0.3461 -1.1471
   11MOL   H375 5395   0.727   4.854   2.735  0.0176 -2.9663 -1.2905
   11MOL   H376 5396   0.589   4.742   2.743 -1.9506  0.0901  1.8101
   11MOL   C377 5397   0.393   5.228   3.572  0.1770 -0.2241 -0.1943
   11MOL   C378 5398   0.370   5.226   3.726 -0.9644  0.4796  0.2518
   11MOL   O379 5399   0.390   5.083   3.757  0.1394 -0.0583  0.2720
   11MOL   C380 5400   0.458   5.063   3.879 -0.3010  0.7789 -0.1938
   11MOL   C381 5401   0.504   4.916   3.897 -0.3315  0.0516 -0.3641
   11MOL   C382 5402   0.614   4.877   3.812 -0.2770 -0.6986  0.1523
   11MOL   C383 5403   0.666   4.730   3.843  0.1877  0.5209 -0.0610
   11MOL   C384 5404   0.760   4.713   3.968 -0.2140 -0.8029  0.0492
   11MOL   C385 5405   0.745   4.588   4.047  0.1605  0.2510  0.3746
   11MOL   H386 5406   0.383   5.329   3.535 -1.8808  0.1598  1.3134
   11MOL   H387 5407   0.313   5.167   3.530  0.0375 -1.7365  2.1158
   11MOL   H388 5408   0.454   5.284   3.765 -1.1205  0.7194  0.2306
   11MOL   H389 5409   0.390   5.072   3.964  0.6474 -0.4673  0.7140
   11MOL   H390 5410   0.548   5.120   3.900  0.4586 -0.5860  0.2872
   11MOL   H391 5411   0.419   4.850   3.880 -2.1580  2.2650 -0.0838
   11MOL   H392 5412   0.529   4.895   4.001 -1.7346 -1.8575 -0.3833
   11MOL   H393 5413   0.580   4.861   3.709 -1.5597 -0.6362  0.5527
   11MOL   H394 5414   0.702   4.941   3.823 -0.7892 -0.1729  1.2299
   11MOL   H395 5415   0.584   4.660   3.858  3.1899 -3.5714 -1.8200
   11MOL   H396 5416   0.711   4.689   3.752  1.1954  0.1713  0.5906
   11MOL   H397 5417   0.860   4.724   3.927  0.1424 -1.1416  0.8235
   11MOL   H398 5418   0.737   4.795   4.036 -1.0119 -1.5041  0.6373
   11MOL   H399 5419   0.643   4.555   4.066 -0.0648  0.8870  0.2873
   11MOL   H400 5420   0.786   4.502   3.994 -0.2380 -0.0908  0.6164
   11MOL   H401 5421   0.790   4.596   4.146 -1.8879 -1.6576  1.5121
   11MOL   C402 5422   0.229   5.271   3.779 -0.0417 -0.0683  0.8788
   11MOL   C403 5423   0.195   5.408   3.737  0.5525  0.0751 -0.0341
   11MOL   O404 5424   0.282   5.495   3.807  0.5281  0.1644 -0.3085
   11MOL   C405 5425   0.318   5.614   3.735  0.1297 -0.2349 -0.1654
   11MOL   C406 5426   0.455   5.675   3.791 -0.0936 -0.0972  0.3158
   11MOL   C407 5427   0.588   5.613   3.726 -0.3033  0.3837  0.6139
   11MOL   C408 5428   0.714   5.672   3.792  0.9067 -0.7578  0.2835
   11MOL   C409 5429   0.851   5.657   3.724  0.1935  0.1730 -0.4308
   11MOL   C410 5430   0.961   5.721   3.808  0.1186 -0.0231 -0.7071
   11MOL   H411 5431   0.232   5.253   3.887  0.7010 -0.6584  0.7671
   11MOL   H412 5432   0.152   5.203   3.744 -0.4052  1.4124 -1.2716
   11MOL   H413 5433   0.193   5.421   3.629  1.7723  1.8428  0.1358
   11MOL   H414 5434   0.240   5.689   3.744  0.1308  0.0583 -2.3925
   11MOL   H415 5435   0.347   5.596   3.631  0.0649 -0.9507 -0.0643
   11MOL   H416 5436   0.465   5.654   3.897  2.8263 -0.9449 -0.0758
   11MOL   H417 5437   0.456   5.783   3.781  0.8063 -0.3348 -2.7170
   11MOL   H418 5438   0.589   5.505   3.737  1.1264  0.4092  0.7787
   11MOL   H419 5439   0.588   5.646   3.623 -1.4990  3.9707  1.6963
   11MOL   H420 5440   0.709   5.778   3.817 -2.1952 -0.3977 -1.5961
   11MOL   H421 5441   0.729   5.618   3.886  1.2722  1.8613  1.7629
   11MOL   H422 5442   0.871   5.553   3.700 -1.6926 -0.6013  1.1563
   11MOL   H423 5443   0.829   5.706   3.629 -0.2444  0.8992  0.0398
   11MOL   H424 5444   0.954   5.698   3.914 -0.4234 -0.6078 -0.8660
   11MOL   H425 5445   1.063   5.701   3.774  0.5712 -0.0776  0.6844
   11MOL   H426 5446   0.948   5.829   3.802 -2.0558 -0.2955 -1.3018
   11MOL   C427 5447   0.052   5.455   3.784  0.4022 -0.2303 -0.5868
   11MOL   C428 5448   7.711   5.370   3.735  0.0175  0.9730 -0.3459
   11MOL   O429 5449   7.592   5.415   3.806  0.1749  0.5914 -0.0791
   11MOL   C430 5450   7.539   5.326   3.907 -0.2053 -0.4450 -0.5318
   11MOL   C431 5451   7.646   5.320   4.013 -0.5429 -0.7977  0.5014
   11MOL   C432 5452   7.608   5.216   4.120  0.1763 -0.5848  0.2272
   11MOL   C433 5453   7.573   5.072   4.073  0.0556 -0.9858 -0.2019
   11MOL   C434 5454   7.680   5.005   3.984 -0.3251 -0.5160  0.2189
   11MOL   C435 5455   7.656   4.857   3.951 -0.1663  0.4020  0.3688
   11MOL   H436 5456   0.055   5.464   3.893 -1.0043  1.4313 -0.6766
   11MOL   H437 5457   0.025   5.556   3.755 -0.7280 -0.5732 -0.7231
   11MOL   H438 5458   7.725   5.263   3.753  3.1418  1.3707 -0.1596
   11MOL   H439 5459   7.516   5.225   3.874 -2.6443 -0.3650  0.8057
   11MOL   H440 5460   7.453   5.375   3.952  0.6718  0.7518 -0.1166
   11MOL   H441 5461   7.657   5.423   4.048  2.2804 -1.3055  1.2033
   11MOL   H442 5462   7.735   5.280   3.966 -1.3476 -0.2063 -1.5789
   11MOL   H443 5463   7.690   5.193   4.188 -1.2909 -2.5346  1.3958
   11MOL   H444 5464   7.524   5.257   4.177  0.3704 -1.2814  1.0274
   11MOL   H445 5465   7.541   5.008   4.155 -2.8562 -0.4703 -0.8853
   11MOL   H446 5466   7.480   5.071   4.016 -0.0705  0.4441 -0.0252
   11MOL   H447 5467   7.702   5.043   3.884  1.2727 -1.5503  0.1653
   11MOL   H448 5468   7.775   5.015   4.035  1.0563 -0.1697 -2.3393
   11MOL   H449 5469   7.573   4.852   3.880 -1.1301  0.2269  1.5118
   11MOL   H450 5470   7.746   4.822   3.900 -0.8379 -0.4626 -0.2497
   11MOL   H451 5471   7.642   4.790   4.035  1.7059  2.2455  2.2236
   11MOL   C452 5472   7.693   5.407   3.583  0.3561 -0.1125  0.0473
   11MOL   C453 5473   7.604   5.293   3.517  0.1868 -0.7357  0.5190
   11MOL   O454 5474   7.682   5.174   3.490 -0.3606  0.3274  0.1417
   11MOL   C455 5475   7.621   5.047   3.517  0.3980  0.3581 -0.4727
   11MOL   C456 5476   7.712   4.929   3.469  0.1025 -0.2024 -0.2599
   11MOL   C457 5477   0.057   4.916   3.554  0.2076  0.1455 -0.3756
   11MOL   C458 5478   0.162   4.816   3.494 -0.2633  0.3566  1.4141
   11MOL   C459 5479   0.270   4.794   3.597 -0.0989 -0.0146 -0.2779
   11MOL   C460 5480   0.368   4.681   3.557  0.5563 -0.2303 -0.2092
   11MOL   H461 5481   7.643   5.503   3.570 -1.6423 -0.9896  0.9739
   11MOL   H462 5482   0.007   5.405   3.523  1.1742 -1.6387  1.2999
   11MOL   H463 5483   7.511   5.273   3.570 -1.3332  2.2390 -0.8800
   11MOL   H464 5484   7.530   5.050   3.457  1.2271 -2.4125 -1.9324
   11MOL   H465 5485   7.589   5.030   3.620  0.8784  1.4390 -0.1346
   11MOL   H466 5486   7.739   4.956   3.367  2.8310 -2.3469 -0.1461
   11MOL   H467 5487   7.645   4.844   3.475 -1.1741  0.8592  0.8973
   11MOL   H468 5488   0.106   5.010   3.578  0.1817 -0.2742  1.4402
   11MOL   H469 5489   0.017   4.896   3.653 -1.2185 -0.0588 -0.9865
   11MOL   H470 5490   0.100   4.729   3.473  2.1503 -0.6795 -1.7553
   11MOL   H471 5491   0.197   4.848   3.396 -0.1377 -2.4880  0.4853
   11MOL   H472 5492   0.326   4.887   3.611  2.3697 -1.2876 -1.4800
   11MOL   H473 5493   0.230   4.770   3.696  1.3270 -2.5650 -0.2712
   11MOL   H474 5494   0.451   4.672   3.626  0.2582  1.2847  0.3605
   11MOL   H475 5495   0.306   4.591   3.548 -0.1126  0.2206 -0.1094
   11MOL   H476 5496   0.425   4.686   3.464  2.5077 -0.9670  0.9202
   11MOL   C477 5497   7.567   5.327   3.379  0.3917 -0.6249 -0.0329
   11MOL   C478 5498   7.469   5.442   3.365  0.5387 -0.3191  0.0188
   11MOL   O479 5499   7.344   5.420   3.422  0.1383 -0.6036  0.3517
   11MOL   C480 5500   7.250   5.508   3.352 -0.5703  0.1349 -0.2568
   11MOL   C481 5501   7.114   5.511   3.408  0.0502  0.1541 -0.9483
   11MOL   C482 5502   7.109   5.605   3.528 -0.3572 -0.2363 -0.3565
   11MOL   C483 5503   6.966   5.625   3.579  0.2278  0.4505 -0.0254
   11MOL   C484 5504   6.960   5.708   3.703  0.4028  0.6794 -0.4958
   11MOL   C485 5505   6.816   5.729   3.761 -0.3359 -0.2964 -0.0755
   11MOL   H486 5506   7.655   5.349   3.319  0.1655  0.8678  0.1569
   11MOL   H487 5507   7.508   5.252   3.325 -0.1546  0.6197 -1.2063
   11MOL   H488 5508   7.511   5.537   3.397 -1.7237  0.3505  1.0946
   11MOL   H489 5509   7.240   5.473   3.249  3.0552  2.0917 -1.3621
   11MOL   H490 5510   7.306   5.602   3.341 -0.7356  0.3778  0.9173
   11MOL   H491 5511   7.078   5.411   3.433  1.9022 -0.3682 -0.2882
   11MOL   H492 5512   7.038   5.546   3.338 -1.7373 -0.8881  0.4168
   11MOL   H493 5513   7.168   5.560   3.608  0.5007  0.5184 -0.5535
   11MOL   H494 5514   7.146   5.706   3.510 -1.4833 -0.0778 -1.8398
   11MOL   H495 5515   6.906   5.661   3.496  0.5125 -0.7555 -0.7705
   11MOL   H496 5516   6.917   5.530   3.601 -1.6547  1.2978 -0.4577
   11MOL   H497 5517   7.014   5.651   3.779 -1.1105  0.8776  0.7628
   11MOL   H498 5518   7.009   5.804   3.685 -0.4143  1.1914 -0.0359
   11MOL   H499 5519   6.822   5.770   3.862 -0.4941 -0.7066  0.1007
   11MOL   H500 5520   6.753   5.795   3.702 -0.3893  0.2305  0.5610
   11MOL   H501 5521   6.778   5.627   3.769  1.1326 -0.8695 -0.1600
   11MOL   H502 5522   7.458   5.452   3.257 -0.9989 -2.2275 -0.0412
   12MOL     C1 5523   5.383   4.919   3.114 -0.2128 -0.2367 -0.4172
   12MOL     C2 5524   5.420   5.032   3.011 -0.3556  0.5605 -0.5320
   12MOL     O3 5525   5.332   5.025   2.901  0.5353  0.1563  0.6660
   12MOL     C4 5526   5.236   5.129   2.900 -0.4413  0.6581  0.6700
   12MOL     C5 5527   5.144   5.106   2.782 -0.9591 -0.1347  0.0105
   12MOL     C6 5528   5.079   4.970   2.769  0.1610  0.0711 -0.8623
   12MOL     C7 5529   4.979   4.949   2.653  0.3984 -0.4112  0.4506
   12MOL     C8 5530   4.901   4.818   2.659 -0.1603 -0.7480  0.3975
   12MOL     C9 5531   4.970   4.701   2.592 -0.7608 -0.6025  0.6931
   12MOL    H10 5532   5.307   4.951   3.185  0.3468  1.0760 -0.4048
   12MOL    H11 5533   5.360   4.824   3.066  0.8157 -0.5805 -0.2513
   12MOL    H12 5534   5.418   5.131   3.057  2.2852  0.7453 -0.7498
   12MOL    H13 5535   5.284   5.227   2.889  0.2194  0.1402 -1.2522
   12MOL    H14 5536   5.185   5.128   2.996 -2.4718 -1.1873 -0.3939
   12MOL    H15 5537   5.204   5.120   2.693  0.8137  0.3266  1.2395
   12MOL    H16 5538   5.059   5.174   2.779 -1.2732 -0.5952 -1.9827
   12MOL    H17 5539   5.152   4.894   2.738  1.6039  1.2464 -0.4331
   12MOL    H18 5540   5.039   4.943   2.867  0.7686  0.2329 -0.5636
   12MOL    H19 5541   4.899   5.024   2.659  1.5697  1.2166 -3.0127
   12MOL    H20 5542   5.026   4.966   2.556  0.3783 -0.3062  0.4588
   12MOL    H21 5543   4.807   4.838   2.608  1.2417  0.2275 -1.9207
   12MOL    H22 5544   4.874   4.781   2.757 -0.4900 -0.7912  0.2893
   12MOL    H23 5545   4.943   4.706   2.486  0.5988  0.1530  0.3710
   12MOL    H24 5546   5.078   4.699   2.586 -0.5820  0.5246  3.0177
   12MOL    H25 5547   4.933   4.603   2.620  1.1019 -0.9991  1.8308
   12MOL    H26 5548   5.461   4.893   3.185  0.1744 -0.8631 -1.0530
   12MOL    C27 5549   5.550   5.016   2.944 -0.3440 -0.0612 -0.5656
   12MOL    C28 5550   5.609   5.131   2.865 -0.5682  0.8776  0.0436
   12MOL    O29 5551   5.635   5.245   2.946 -0.1138 -0.5790  0.6366
   12MOL    C30 5552   5.547   5.357   2.926 -0.3250  0.7626 -0.1306
   12MOL    C31 5553   5.608   5.474   3.007 -0.2499  0.2165  0.4258
   12MOL    C32 5554   5.602   5.439   3.158 -0.3158  0.0346 -0.4199
   12MOL    C33 5555   5.710   5.508   3.242 -0.4730  0.4065 -0.0534
   12MOL    C34 5556   5.704   5.464   3.388  0.6817 -0.2969  0.3776
   12MOL    C35 5557   5.831   5.520   3.455  0.6289  0.3957 -0.2185
   12MOL    H36 5558   5.623   5.012   3.025 -0.7936  1.6532 -0.0476
   12MOL    H37 5559   5.559   4.930   2.877 -1.3747 -1.3490  0.9160
   12MOL    H38 5560   5.529   5.153   2.795 -0.9640 -1.7767 -0.3961
   12MOL    H39 5561   5.446   5.334   2.960  0.4028 -2.7589 -0.0879
   12MOL    H40 5562   5.534   5.370   2.819  0.9576 -1.0682 -0.5551
   12MOL    H41 5563   5.564   5.568   2.976 -3.0298 -1.1937 -0.1126
   12MOL    H42 5564   5.713   5.476   2.976  0.4038  0.8890  2.5944
   12MOL    H43 5565   5.500   5.463   3.187  0.3185  0.7853  1.2468
   12MOL    H44 5566   5.607   5.331   3.171 -0.9759  0.2527  1.8421
   12MOL    H45 5567   5.806   5.479   3.200 -0.2593  1.4995 -0.3409
   12MOL    H46 5568   5.693   5.615   3.228  0.2918  0.3303 -1.7215
   12MOL    H47 5569   5.615   5.500   3.438  1.0070  1.9633 -0.6105
   12MOL    H48 5570   5.691   5.356   3.389 -0.2873 -0.1805  0.7436
   12MOL    H49 5571   5.827   5.505   3.563  0.9704 -0.1973 -0.2835
   12MOL    H50 5572   5.918   5.461   3.428  0.8796  1.5910 -2.1309
   12MOL    H51 5573   5.848   5.624   3.429  1.7318 -0.2525 -2.2055
   12MOL    C52 5574   5.738   5.104   2.789 -0.1262 -0.1993 -0.6303
   12MOL    C53 5575   5.794   5.221   2.701  0.8409  0.2630 -0.1312
   12MOL    O54 5576   5.924   5.181   2.656  0.5950 -0.4272 -0.1298
   12MOL    C55 5577   6.027   5.239   2.742 -0.0876 -0.3955  0.2453
   12MOL    C56 5578   6.169   5.214   2.692 -0.6021  0.1660  0.2978
   12MOL    C57 5579   6.182   5.278   2.557  0.5021  0.2125 -0.1785
   12MOL    C58 5580   6.327   5.284   2.508 -0.4602  0.1997  0.2745
   12MOL    C59 5581   6.336   5.327   2.360  0.1684 -1.1204 -0.7140
   12MOL    C60 5582   6.313   5.214   2.255 -0.6295  0.3159 -0.0484
   12MOL    H61 5583   5.749   5.010   2.736  1.2391  0.0829 -0.8660
   12MOL    H62 5584   5.815   5.096   2.866 -0.5156 -0.0851 -0.2233
   12MOL    H63 5585   5.791   5.315   2.756  2.6285 -0.3593  1.0732
   12MOL    H64 5586   6.026   5.202   2.845  0.8040 -0.9377  0.0695
   12MOL    H65 5587   6.001   5.344   2.757  0.5294 -0.3996  1.4200
   12MOL    H66 5588   6.186   5.108   2.678 -1.6790 -0.0710  0.7350
   12MOL    H67 5589   6.244   5.246   2.764  0.8054 -0.9511 -0.6409
   12MOL    H68 5590   6.129   5.215   2.485  0.2128  1.2760 -0.9060
   12MOL    H69 5591   6.138   5.378   2.551  1.3497  0.4456 -2.6214
   12MOL    H70 5592   6.378   5.350   2.578  0.0083  0.0034  0.1198
   12MOL    H71 5593   6.383   5.192   2.526  1.2624  1.4712  1.5436
   12MOL    H72 5594   6.254   5.395   2.337 -0.9454 -1.3929  2.2633
   12MOL    H73 5595   6.435   5.367   2.340  0.0542 -0.7659 -0.5775
   12MOL    H74 5596   6.365   5.121   2.279 -0.3078  0.5062 -0.0178
   12MOL    H75 5597   6.210   5.177   2.256 -0.9649  1.2413  0.0210
   12MOL    H76 5598   6.352   5.242   2.157  0.5515 -2.1603 -0.3240
   12MOL    C77 5599   5.704   5.232   2.579 -0.8352 -0.0427  0.2251
   12MOL    C78 5600   5.710   5.353   2.479  0.4743  0.8952  0.3287
   12MOL    O79 5601   5.684   5.473   2.552 -0.0746  0.4234 -0.2094
   12MOL    C80 5602   5.805   5.540   2.579  0.1357 -0.5916  0.2530
   12MOL    C81 5603   5.780   5.628   2.700  0.0196 -0.3465 -0.0818
   12MOL    C82 5604   5.898   5.713   2.743 -0.2830 -0.4217 -0.1076
   12MOL    C83 5605   5.874   5.816   2.854  0.1171 -0.1412 -0.1160
   12MOL    C84 5606   5.998   5.905   2.875 -0.4276 -0.5716  0.6585
   12MOL    C85 5607   5.979   6.031   2.970  0.2434 -0.1331 -0.9057
   12MOL    H86 5608   5.603   5.227   2.618 -0.0153 -1.0048  2.2839
   12MOL    H87 5609   5.722   5.144   2.518 -0.6269  0.0118  0.2041
   12MOL    H88 5610   5.812   5.349   2.439  0.8473 -2.7774  1.4575
   12MOL    H89 5611   5.841   5.604   2.499  0.9422 -3.2851 -1.6452
   12MOL    H90 5612   5.882   5.469   2.610 -0.0213 -1.0895 -0.4947
   12MOL    H91 5613   5.732   5.582   2.787 -1.7623  1.3329 -0.1274
   12MOL    H92 5614   5.706   5.703   2.671  0.8396  0.3421 -0.4173
   12MOL    H93 5615   5.975   5.643   2.776  0.0657  0.7040  1.5006
   12MOL    H94 5616   5.932   5.764   2.653 -0.0503  3.0817  1.8642
   12MOL    H95 5617   5.785   5.875   2.832 -0.3374 -0.2435  1.4122
   12MOL    H96 5618   5.846   5.773   2.950 -0.7611 -2.4932 -1.3856
   12MOL    H97 5619   6.081   5.845   2.913  1.2247  0.8003 -0.6764
   12MOL    H98 5620   6.031   5.942   2.777 -3.9047  0.2621 -0.2600
   12MOL    H99 5621   5.913   6.013   3.055  0.0468 -2.6067 -1.5271
   12MOL   H100 5622   6.076   6.056   3.012 -0.5754 -1.0345  1.6582
   12MOL   H101 5623   5.939   6.120   2.922 -1.4279  0.1018  0.8415
   12MOL   C102 5624   5.620   5.341   2.363  0.3513 -0.7458  0.0380
   12MOL   C103 5625   5.652   5.444   2.249  0.1501  0.3639  0.5606
   12MOL   O104 5626   5.700   5.364   2.134 -0.2652  0.0079  0.1902
   12MOL   C105 5627   5.840   5.350   2.120 -0.9164 -0.5405 -0.3610
   12MOL   C106 5628   5.877   5.220   2.048  0.2744 -0.3883 -0.0309
   12MOL   C107 5629   6.028   5.235   2.006 -0.2774 -0.4895 -0.4548
   12MOL   C108 5630   6.069   5.116   1.915  0.8722  1.1866  0.2688
   12MOL   C109 5631   6.223   5.111   1.900  0.2326 -0.8129  0.2353
   12MOL   C110 5632   6.297   5.241   1.865  0.1758  0.3014  0.1453
   12MOL   H111 5633   5.600   5.243   2.320 -2.5468  0.6237 -1.8509
   12MOL   H112 5634   5.524   5.361   2.411  1.4140  3.4687  0.6222
   12MOL   H113 5635   5.731   5.511   2.283  0.5849  0.0475  0.1755
   12MOL   H114 5636   5.895   5.355   2.214 -2.0897  0.6572  0.2812
   12MOL   H115 5637   5.871   5.438   2.063 -2.7501 -1.9612 -3.7394
   12MOL   H116 5638   5.806   5.201   1.968 -1.3626 -1.2397  1.5818
   12MOL   H117 5639   5.874   5.134   2.114  1.6819  0.2441  0.9002
   12MOL   H118 5640   6.047   5.333   1.962 -0.8720  0.3796  1.1982
   12MOL   H119 5641   6.087   5.235   2.098 -2.6833 -2.8988  1.1515
   12MOL   H120 5642   6.026   5.029   1.964 -1.0104 -0.0263 -3.3586
   12MOL   H121 5643   6.022   5.126   1.816  0.1455  0.7940  0.5714
   12MOL   H122 5644   6.261   5.073   1.994  1.2040  0.8333  0.5222
   12MOL   H123 5645   6.233   5.031   1.826  0.3068 -0.7865  0.2172
   12MOL   H124 5646   6.241   5.275   1.778  1.2183 -2.3843 -1.6250
   12MOL   H125 5647   6.277   5.318   1.940 -0.5727  4.0749 -3.7393
   12MOL   H126 5648   6.403   5.226   1.845 -0.2663  1.1318 -2.9878
   12MOL   C127 5649   5.523   5.514   2.190 -0.4904 -0.2241  0.5269
   12MOL   C128 5650   5.455   5.622   2.283 -1.2122  0.4061  0.1208
   12MOL   O129 5651   5.326   5.635   2.233 -0.3509  0.0187  0.1326
   12MOL   C130 5652   5.228   5.548   2.300 -0.2270  0.3867 -0.4091
   12MOL   C131 5653   5.082   5.592   2.301  0.5032  0.0777  0.0231
   12MOL   C132 5654   5.059   5.722   2.379 -0.3989  0.1816  0.6025
   12MOL   C133 5655   4.914   5.737   2.408 -0.0323 -0.4933 -0.3061
   12MOL   C134 5656   4.880   5.850   2.507 -0.2753 -0.6893  0.0007
   12MOL   C135 5657   4.735   5.864   2.552 -0.1436 -0.0067 -0.3046
   12MOL   H136 5658   5.548   5.557   2.093  0.4817 -0.3264  0.7288
   12MOL   H137 5659   5.443   5.444   2.164  1.1619 -2.0163  0.1832
   12MOL   H138 5660   5.453   5.589   2.387 -2.2147  0.2850  0.0714
   12MOL   H139 5661   5.252   5.536   2.406 -0.9747 -0.1289 -0.2982
   12MOL   H140 5662   5.230   5.443   2.272  0.4481  0.4087 -0.4680
   12MOL   H141 5663   5.015   5.524   2.354 -0.9008 -1.3109 -3.3740
   12MOL   H142 5664   5.047   5.612   2.199  0.5062 -0.4206 -0.0803
   12MOL   H143 5665   5.105   5.722   2.478  0.3014  2.7008  0.2992
   12MOL   H144 5666   5.100   5.806   2.325  0.9854 -0.3640  0.7906
   12MOL   H145 5667   4.864   5.756   2.313 -0.4889 -0.1644 -0.0074
   12MOL   H146 5668   4.869   5.650   2.456 -2.8995 -0.2663 -2.4360
   12MOL   H147 5669   4.939   5.851   2.598  0.5490  0.8040 -0.5336
   12MOL   H148 5670   4.909   5.942   2.456 -0.7474  0.1115  1.1526
   12MOL   H149 5671   4.700   5.911   2.644  0.1690 -0.8277  0.2360
   12MOL   H150 5672   4.671   5.909   2.476 -3.3818 -2.1388  1.0457
   12MOL   H151 5673   4.697   5.762   2.564 -0.5972 -0.2318 -3.2180
   12MOL   C152 5674   5.519   5.755   2.273  0.4128  0.1048 -0.3369
   12MOL   C153 5675   5.503   5.844   2.394  0.5634  0.1314 -0.0168
   12MOL   O154 5676   5.588   5.959   2.381 -0.0331  0.7302 -0.3234
   12MOL   C155 5677   5.716   5.945   2.443  0.2081 -0.7106  0.0479
   12MOL   C156 5678   5.788   6.077   2.428  0.6319 -0.6069  0.7095
   12MOL   C157 5679   5.731   6.195   2.507 -0.5449  0.0985  0.1185
   12MOL   C158 5680   5.830   6.318   2.522 -0.2822  0.5989  0.5587
   12MOL   C159 5681   5.866   6.377   2.383 -0.1061 -0.4048  0.1877
   12MOL   C160 5682   5.991   6.468   2.375  0.0697  0.2256  0.7641
   12MOL   H161 5683   5.625   5.730   2.268  0.5279  0.2275  1.4157
   12MOL   H162 5684   5.491   5.793   2.175 -1.6549 -0.1690  0.1312
   12MOL   H163 5685   5.527   5.790   2.486 -1.3399  0.0221  0.4235
   12MOL   H164 5686   5.779   5.870   2.396  1.2161 -0.3504  0.8123
   12MOL   H165 5687   5.702   5.910   2.545 -0.7724 -2.1756 -0.5739
   12MOL   H166 5688   5.798   6.099   2.322 -2.3719  0.5496  0.6086
   12MOL   H167 5689   5.893   6.066   2.455  1.0724 -0.5246 -0.9189
   12MOL   H168 5690   5.636   6.225   2.464 -1.3218 -0.5380  1.3494
   12MOL   H169 5691   5.701   6.162   2.607 -1.0293 -1.7458 -0.6194
   12MOL   H170 5692   5.783   6.402   2.574 -0.7868  1.2295 -0.8916
   12MOL   H171 5693   5.911   6.282   2.585 -1.7358 -1.3307  1.3928
   12MOL   H172 5694   5.869   6.301   2.305  0.9411 -1.7614  1.5232
   12MOL   H173 5695   5.783   6.436   2.342  1.1869  0.4305 -1.3085
   12MOL   H174 5696   5.990   6.525   2.282  1.9923  1.8226  1.6862
   12MOL   H175 5697   5.998   6.538   2.458  2.1687  0.8107  0.1396
   12MOL   H176 5698   6.075   6.398   2.375  1.9785  2.4596 -0.3947
   12MOL   C177 5699   5.364   5.906   2.400  0.0796  0.3090  0.3652
   12MOL   C178 5700   5.341   6.011   2.511 -1.0316 -0.5294 -0.9251
   12MOL   O179 5701   5.216   6.065   2.485  0.7497 -0.1352 -0.1276
   12MOL   C180 5702   5.211   6.156   2.374 -0.1609  0.4078  0.3621
   12MOL   C181 5703   5.069   6.216   2.373 -0.1303  0.0671  0.2074
   12MOL   C182 5704   5.035   6.322   2.470 -0.3998  0.2075  0.3660
   12MOL   C183 5705   4.896   6.381   2.433  1.3072  0.6360  0.3318
   12MOL   C184 5706   4.839   6.487   2.527  0.5108 -0.1456 -0.1849
   12MOL   C185 5707   4.930   6.612   2.542 -0.5589 -0.1450 -0.3857
   12MOL   H186 5708   5.333   5.944   2.302 -0.3865  1.0410  0.7929
   12MOL   H187 5709   5.288   5.830   2.418  0.0919  0.6853  2.0679
   12MOL   H188 5710   5.412   6.094   2.508 -2.2576  0.6183  1.1232
   12MOL   H189 5711   5.229   6.111   2.276  1.6507 -2.9541  2.1622
   12MOL   H190 5712   5.271   6.246   2.390  0.4861 -0.4525  3.0265
   12MOL   H191 5713   4.994   6.137   2.381  0.9979 -1.1289 -0.8637
   12MOL   H192 5714   5.043   6.257   2.275 -0.8076  1.6817  1.0412
   12MOL   H193 5715   5.026   6.277   2.569 -2.0995 -0.2960  0.0076
   12MOL   H194 5716   5.112   6.399   2.472 -2.9162  2.8047  0.3356
   12MOL   H195 5717   4.905   6.421   2.331 -0.8338 -0.0091 -0.1370
   12MOL   H196 5718   4.818   6.307   2.417 -1.3617  2.8092  2.6878
   12MOL   H197 5719   4.743   6.522   2.491  0.2238  0.8272  1.4645
   12MOL   H198 5720   4.826   6.446   2.628 -0.9420 -2.5556 -1.2903
   12MOL   H199 5721   4.909   6.674   2.630  0.6706  0.3729 -0.4345
   12MOL   H200 5722   5.033   6.584   2.567 -0.5854 -0.9081 -1.1254
   12MOL   H201 5723   4.929   6.674   2.453  2.8965 -1.8495 -1.7148
   12MOL   C202 5724   5.331   5.950   2.656 -0.1813  0.4723  0.2451
   12MOL   C203 5725   5.349   6.050   2.769  0.0586 -0.6146  0.0941
   12MOL   O204 5726   5.381   5.983   2.891  0.4585  0.0265 -0.0958
   12MOL   C205 5727   5.513   5.973   2.930  0.2103 -0.7065 -0.1789
   12MOL   C206 5728   5.498   5.890   3.062 -0.3865 -0.3689 -0.0793
   12MOL   C207 5729   5.441   5.976   3.177  0.2774 -0.1586 -0.1805
   12MOL   C208 5730   5.361   5.907   3.285 -0.8514 -0.3001 -0.0054
   12MOL   C209 5731   5.435   5.783   3.347 -0.1176  0.5147  0.6856
   12MOL   C210 5732   5.351   5.695   3.438 -1.0227  0.6152  0.2774
   12MOL   H211 5733   5.242   5.888   2.664 -0.7702  1.1016 -1.2796
   12MOL   H212 5734   5.409   5.874   2.650 -1.5672 -1.1771  2.4289
   12MOL   H213 5735   5.433   6.116   2.749 -0.6315 -0.3077 -1.8892
   12MOL   H214 5736   5.556   6.073   2.942 -0.9356 -0.0288 -1.4832
   12MOL   H215 5737   5.569   5.917   2.855 -0.9678 -0.3317 -1.3704
   12MOL   H216 5738   5.594   5.842   3.080  1.0180  2.6009  0.5794
   12MOL   H217 5739   5.430   5.808   3.037 -0.3434 -0.0385 -1.3366
   12MOL   H218 5740   5.514   6.031   3.237 -1.5605  1.3878  0.6629
   12MOL   H219 5741   5.380   6.058   3.139 -0.0108 -0.5870 -0.6539
   12MOL   H220 5742   5.331   5.974   3.365  0.4861  1.4931 -0.9718
   12MOL   H221 5743   5.264   5.883   3.241  0.5060 -1.2856 -2.5601
   12MOL   H222 5744   5.470   5.723   3.263 -0.2024  1.3832  0.0200
   12MOL   H223 5745   5.517   5.815   3.410  0.0391 -0.5370  1.0168
   12MOL   H224 5746   5.283   5.638   3.374  0.0880 -0.8567  0.3802
   12MOL   H225 5747   5.397   5.623   3.506 -1.5322  0.4758  0.4769
   12MOL   H226 5748   5.303   5.760   3.511  2.4489  3.9057 -0.2182
   12MOL   C227 5749   5.228   6.133   2.789  0.4437 -0.0502 -0.3821
   12MOL   C228 5750   5.225   6.235   2.904 -0.2349  0.2265  0.2222
   12MOL   O229 5751   5.312   6.334   2.868 -0.5153 -0.3470  0.3437
   12MOL   C230 5752   5.386   6.397   2.968 -0.1390  0.3226 -0.3448
   12MOL   C231 5753   5.503   6.471   2.906  0.3776 -0.4409 -0.5664
   12MOL   C232 5754   5.576   6.550   3.017 -0.3621  0.0396 -0.2444
   12MOL   C233 5755   5.707   6.611   2.963 -0.0431  0.0812  0.0611
   12MOL   C234 5756   5.801   6.678   3.066  0.4694  0.0171  0.0740
   12MOL   C235 5757   5.904   6.766   3.013 -0.1136  0.3375  0.0700
   12MOL   H236 5758   5.214   6.188   2.696 -0.7978  0.3463  0.0346
   12MOL   H237 5759   5.143   6.068   2.808  0.2252  0.3794  0.1189
   12MOL   H238 5760   5.258   6.177   2.990  0.9090  1.3389  0.5422
   12MOL   H239 5761   5.418   6.325   3.044  0.9475  0.1840 -0.9293
   12MOL   H240 5762   5.320   6.459   3.029  0.7533  0.7002  0.2435
   12MOL   H241 5763   5.463   6.547   2.839  1.1546 -0.0244 -0.5638
   12MOL   H242 5764   5.572   6.409   2.849 -0.2100 -0.4182 -1.3179
   12MOL   H243 5765   5.508   6.622   3.063  0.5830  0.4392  0.5525
   12MOL   H244 5766   5.604   6.480   3.095  0.5462  0.1021 -0.5055
   12MOL   H245 5767   5.767   6.538   2.910 -0.3375 -0.8979  1.0483
   12MOL   H246 5768   5.685   6.685   2.887 -0.1816 -1.6672 -1.6308
   12MOL   H247 5769   5.736   6.728   3.138  2.3890  1.1720  1.0591
   12MOL   H248 5770   5.854   6.600   3.122 -1.0016 -1.4771 -0.5661
   12MOL   H249 5771   5.857   6.858   2.978  0.6138  1.2275  1.3664
   12MOL   H250 5772   5.983   6.784   3.086 -0.0570 -0.0006  0.0902
   12MOL   H251 5773   5.966   6.714   2.940 -0.0357 -1.3573  1.3226
   12MOL   C252 5774   5.087   6.298   2.934 -1.1193  0.1225 -0.4580
   12MOL   C253 5775   4.976   6.208   2.991  0.1053 -0.4868  1.1038
   12MOL   O254 5776   4.854   6.280   2.967  0.8334  0.6031  0.1882
   12MOL   C255 5777   4.762   6.220   2.872 -0.5152 -0.5297  0.7021
   12MOL   C256 5778   4.636   6.308   2.860 -0.9759 -0.1987 -0.3447
   12MOL   C257 5779   4.534   6.259   2.762  0.6921  0.2124  0.1215
   12MOL   C258 5780   4.581   6.263   2.610 -0.0907 -0.0369  0.7678
   12MOL   C259 5781   4.489   6.188   2.516 -0.6508  0.3096  0.3661
   12MOL   C260 5782   4.553   6.196   2.369  0.4307  1.3987 -0.8396
   12MOL   H261 5783   5.106   6.380   3.003  1.2710 -0.9926  0.2577
   12MOL   H262 5784   5.045   6.342   2.844  0.7510 -1.3061 -2.0945
   12MOL   H263 5785   4.968   6.120   2.928 -0.5426 -0.5238  1.2356
   12MOL   H264 5786   4.732   6.119   2.902  0.3426 -0.7702  0.7542
   12MOL   H265 5787   4.807   6.208   2.774 -1.1101  0.2663  0.3281
   12MOL   H266 5788   4.668   6.401   2.811 -0.8254 -1.9678 -3.7809
   12MOL   H267 5789   4.601   6.331   2.960  0.9527 -0.3817  0.3868
   12MOL   H268 5790   4.503   6.160   2.796 -0.1381  0.9140  1.4759
   12MOL   H269 5791   4.446   6.319   2.786 -0.4013 -1.5602  0.6694
   12MOL   H270 5792   4.592   6.369   2.583 -1.7021  0.2567  1.2061
   12MOL   H271 5793   4.679   6.216   2.607  0.2606  0.7638 -0.8567
   12MOL   H272 5794   4.457   6.098   2.568 -0.0687  0.8560  1.7000
   12MOL   H273 5795   4.397   6.246   2.507 -0.4544  0.9638  2.4442
   12MOL   H274 5796   4.646   6.140   2.362 -0.7096 -0.6532 -0.1038
   12MOL   H275 5797   4.480   6.162   2.296 -0.8713  1.7768  0.2551
   12MOL   H276 5798   4.582   6.300   2.353  0.0825  1.4455 -1.1681
   12MOL   C277 5799   5.002   6.190   3.140 -0.0606  0.8792 -0.3044
   12MOL   C278 5800   4.917   6.075   3.205 -0.1991 -0.0517 -0.3293
   12MOL   O279 5801   4.972   5.955   3.156 -0.6275 -0.3497 -0.1043
   12MOL   C280 5802   4.899   5.869   3.077  0.1915  0.9286  0.0149
   12MOL   C281 5803   4.980   5.748   3.034  0.1867  0.4835  0.4645
   12MOL   C282 5804   5.111   5.767   2.959  0.7926 -0.2140  0.2596
   12MOL   C283 5805   5.172   5.643   2.890  0.8637  0.1992  0.7097
   12MOL   C284 5806   5.092   5.607   2.765 -0.0307  0.1912 -0.3396
   12MOL   C285 5807   5.165   5.493   2.685 -0.5162 -0.1994  0.7085
   12MOL   H286 5808   5.106   6.178   3.169  0.2144  3.9044  0.0641
   12MOL   H287 5809   4.970   6.283   3.187  1.7597  2.2537 -1.7244
   12MOL   H288 5810   4.813   6.081   3.173 -0.3067 -0.5313 -0.0653
   12MOL   H289 5811   4.863   5.925   2.990 -1.4691 -2.8238 -1.8043
   12MOL   H290 5812   4.805   5.841   3.125 -1.0817  0.8137 -2.4450
   12MOL   H291 5813   4.916   5.689   2.968  0.3171  1.9607 -1.0363
   12MOL   H292 5814   4.985   5.684   3.122 -0.6644  1.6174  1.3609
   12MOL   H293 5815   5.098   5.844   2.882  0.4774 -0.5283 -0.0011
   12MOL   H294 5816   5.179   5.812   3.031 -1.0068  1.8058  0.7572
   12MOL   H295 5817   5.276   5.674   2.880  1.0845 -0.8818 -0.4835
   12MOL   H296 5818   5.165   5.560   2.960 -0.1623 -0.0498  0.3219
   12MOL   H297 5819   5.000   5.559   2.799  0.2460 -1.0749 -1.3465
   12MOL   H298 5820   5.074   5.691   2.698 -2.3401  1.1949  1.4823
   12MOL   H299 5821   5.109   5.479   2.593  1.8424 -0.6311 -0.7226
   12MOL   H300 5822   5.267   5.503   2.647  0.3121 -4.9897  1.3222
   12MOL   H301 5823   5.149   5.401   2.741 -1.8935  0.4681  1.4216
   12MOL   C302 5824   4.934   6.078   3.358 -0.1358 -0.2411  0.0974
   12MOL   C303 5825   4.817   6.021   3.445  0.7586  0.6024  1.0580
   12MOL   O304 5826   4.723   6.122   3.434 -0.0570 -0.3758 -0.4664
   12MOL   C305 5827   4.594   6.077   3.469 -0.0363 -0.0744 -0.0790
   12MOL   C306 5828   4.486   6.166   3.409 -0.2322  0.7025  0.0569
   12MOL   C307 5829   4.488   6.142   3.258 -0.2528 -0.6029  0.6000
   12MOL   C308 5830   4.354   6.175   3.191  0.2715  0.2982 -0.4752
   12MOL   C309 5831   4.301   6.321   3.195 -0.2606 -0.0475 -0.6543
   12MOL   C310 5832   4.193   6.352   3.093  0.5484  0.1076  0.4136
   12MOL   H311 5833   5.028   6.031   3.387  0.3271  1.7986  1.9805
   12MOL   H312 5834   4.962   6.178   3.389 -0.2746  0.0643 -0.7547
   12MOL   H313 5835   4.773   5.930   3.404  0.4112  1.4371 -0.4539
   12MOL   H314 5836   4.578   6.071   3.577 -3.1218 -0.0452 -0.4928
   12MOL   H315 5837   4.573   5.980   3.425 -0.8532  1.0772 -2.3357
   12MOL   H316 5838   4.500   6.273   3.426  1.4028  0.7195 -1.2731
   12MOL   H317 5839   4.393   6.138   3.457 -0.1089  0.1280 -0.0395
   12MOL   H318 5840   4.568   6.201   3.214 -0.3758 -1.1660 -0.3778
   12MOL   H319 5841   4.512   6.041   3.228 -0.0875  0.0303 -1.4436
   12MOL   H320 5842   4.369   6.134   3.091 -1.1030  0.3758 -0.7198
   12MOL   H321 5843   4.274   6.109   3.224  1.3672 -0.7943  0.0095
   12MOL   H322 5844   4.269   6.342   3.297 -1.0757  0.3571 -0.9939
   12MOL   H323 5845   4.390   6.384   3.183 -1.4705  1.4377 -2.0856
   12MOL   H324 5846   4.155   6.454   3.103  1.8534  0.6104  0.3503
   12MOL   H325 5847   4.228   6.351   2.990 -1.1713  0.3702 -0.1810
   12MOL   H326 5848   4.109   6.284   3.106  0.0146  1.1357  2.6907
   12MOL   C327 5849   4.865   6.000   3.590 -0.1905  0.0177 -0.4147
   12MOL   C328 5850   4.985   5.902   3.627 -0.2158  0.4567 -0.1829
   12MOL   O329 5851   5.067   5.963   3.728 -0.5907  0.2908  0.2141
   12MOL   C330 5852   5.139   6.074   3.685  0.9110  0.2176 -0.4032
   12MOL   C331 5853   5.183   6.145   3.813  0.2695 -0.6616 -1.1530
   12MOL   C332 5854   5.296   6.249   3.790  0.4647  0.7171 -0.2046
   12MOL   C333 5855   5.349   6.295   3.923  1.0540 -0.0400 -0.5483
   12MOL   C334 5856   5.466   6.397   3.912 -0.8638 -0.5120 -0.3363
   12MOL   C335 5857   5.459   6.511   4.001  0.1008  0.0309 -0.3039
   12MOL   H336 5858   4.770   5.973   3.636 -0.3177 -1.0061 -1.2504
   12MOL   H337 5859   4.877   6.097   3.638 -4.0490 -0.0118  0.7592
   12MOL   H338 5860   5.054   5.868   3.550  0.9675  2.0850  0.1204
   12MOL   H339 5861   5.072   6.135   3.624 -0.9269  0.2103  1.5412
   12MOL   H340 5862   5.224   6.031   3.631 -1.4444 -1.4561 -2.9582
   12MOL   H341 5863   5.216   6.076   3.891 -0.2563  0.5136  0.1387
   12MOL   H342 5864   5.088   6.186   3.847  0.0394  0.9886 -3.6961
   12MOL   H343 5865   5.376   6.206   3.730  0.6458 -2.0496  1.9334
   12MOL   H344 5866   5.254   6.334   3.736  3.1296  2.2614  0.0518
   12MOL   H345 5867   5.265   6.334   3.981  0.9382  0.3863 -0.9968
   12MOL   H346 5868   5.379   6.205   3.977 -0.2141 -0.1571 -0.0088
   12MOL   H347 5869   5.567   6.361   3.929 -0.8337 -0.5904 -0.6819
   12MOL   H348 5870   5.463   6.435   3.810 -0.6604 -1.6614 -0.7777
   12MOL   H349 5871   5.366   6.569   4.002 -0.8866 -1.5135  1.2690
   12MOL   H350 5872   5.499   6.485   4.099  0.4888 -0.6494 -0.6397
   12MOL   H351 5873   5.536   6.584   3.975 -0.1799  1.7908  3.4053
   12MOL   C352 5874   4.939   5.777   3.703  0.8862  0.1453  0.3545
   12MOL   C353 5875   4.845   5.685   3.615  0.5344 -0.0780 -0.1604
   12MOL   O354 5876   4.826   5.558   3.676  0.1560  1.0339 -0.1001
   12MOL   C355 5877   4.742   5.560   3.788  0.2327  0.0262  0.5858
   12MOL   C356 5878   4.713   5.417   3.819  0.0607 -0.0581 -0.4187
   12MOL   C357 5879   4.650   5.332   3.707  0.2494  0.0651 -0.5840
   12MOL   C358 5880   4.546   5.231   3.761  0.3416  0.6675 -0.0028
   12MOL   C359 5881   4.470   5.164   3.643 -0.5284  0.0820 -0.2350
   12MOL   C360 5882   4.387   5.039   3.678  0.6842 -0.3738  0.4166
   12MOL   H361 5883   5.027   5.719   3.732  1.9487  0.5977 -1.8512
   12MOL   H362 5884   4.889   5.814   3.793  2.9316  1.3460  1.0402
   12MOL   H363 5885   4.751   5.740   3.613 -0.0000 -0.7527  2.9290
   12MOL   H364 5886   4.655   5.624   3.773  0.5034  0.0493 -0.9850
   12MOL   H365 5887   4.801   5.593   3.873 -0.6093  0.4077  1.0380
   12MOL   H366 5888   4.650   5.416   3.908 -1.4752 -1.0895 -1.4861
   12MOL   H367 5889   4.803   5.366   3.853 -1.4181 -0.0610  3.7651
   12MOL   H368 5890   4.596   5.399   3.641  1.9662  1.9563 -0.1293
   12MOL   H369 5891   4.725   5.281   3.646 -1.0277 -1.2366 -1.0723
   12MOL   H370 5892   4.593   5.150   3.816  1.6235 -0.3269 -2.4890
   12MOL   H371 5893   4.477   5.289   3.822  0.7727  1.2670 -0.0906
   12MOL   H372 5894   4.405   5.237   3.595  0.3190  1.4189  0.6317
   12MOL   H373 5895   4.536   5.112   3.573  0.6503 -0.9147  1.5936
   12MOL   H374 5896   4.375   4.969   3.596 -0.4268  2.7197 -2.1748
   12MOL   H375 5897   4.426   4.985   3.765  2.6391 -0.3035 -0.3868
   12MOL   H376 5898   4.286   5.069   3.706 -0.0816  0.1645 -2.8155
   12MOL   C377 5899   4.907   5.653   3.478  0.0699 -0.2089 -0.0711
   12MOL   C378 5900   4.823   5.557   3.398  0.1782  0.3853 -0.4097
   12MOL   O379 5901   4.894   5.531   3.279 -0.1979  0.9382 -0.6262
   12MOL   C380 5902   4.936   5.395   3.271 -0.5534 -0.3778  0.5606
   12MOL   C381 5903   4.997   5.374   3.123  0.4234  0.1513  0.2704
   12MOL   C382 5904   4.891   5.359   3.011 -0.2938  0.1639  0.1334
   12MOL   C383 5905   4.834   5.218   3.000  0.0844  0.3992  0.0686
   12MOL   C384 5906   4.747   5.189   2.880  0.4083  0.8314  0.3876
   12MOL   C385 5907   4.686   5.049   2.885 -0.4786 -0.0485 -0.4555
   12MOL   H386 5908   4.917   5.747   3.424 -1.2266  0.5030  0.8984
   12MOL   H387 5909   5.008   5.614   3.494  2.0297  3.7021 -2.2657
   12MOL   H388 5910   4.801   5.468   3.459  1.0397 -0.5817 -1.4983
   12MOL   H389 5911   4.867   5.313   3.291  2.4354 -3.0413  0.3814
   12MOL   H390 5912   5.022   5.383   3.337  2.3117  1.2771 -2.7229
   12MOL   H391 5913   5.066   5.291   3.112  0.5598  0.1031  1.4512
   12MOL   H392 5914   5.060   5.461   3.100  1.9004 -1.7619 -3.3163
   12MOL   H393 5915   4.808   5.429   3.021 -0.8689 -0.1624 -2.0621
   12MOL   H394 5916   4.940   5.377   2.916 -2.9779  1.2747 -1.0959
   12MOL   H395 5917   4.914   5.143   2.998 -1.3751 -1.2032  0.0517
   12MOL   H396 5918   4.785   5.196   3.095 -0.3007  0.5619 -0.0946
   12MOL   H397 5919   4.668   5.263   2.869  0.3195  0.5673 -0.7337
   12MOL   H398 5920   4.808   5.196   2.790 -0.8040  0.0336 -0.5028
   12MOL   H399 5921   4.769   4.980   2.901  1.1441  1.8660 -0.3902
   12MOL   H400 5922   4.614   5.031   2.964  0.7828 -2.6024  0.1495
   12MOL   H401 5923   4.647   5.032   2.784  0.3710  0.3693 -0.8658
   12MOL   C402 5924   4.690   5.626   3.360  0.0420 -0.7008  0.0640
   12MOL   C403 5925   4.602   5.548   3.263 -0.1932  0.1666 -0.0512
   12MOL   O404 5926   4.500   5.641   3.234 -0.5774  0.0636  0.1525
   12MOL   C405 5927   4.513   5.688   3.099 -0.2058 -0.1476 -0.7871
   12MOL   C406 5928   4.403   5.785   3.062  0.1513  0.4958 -1.0662
   12MOL   C407 5929   4.379   5.809   2.911  1.0709  0.3068 -0.0505
   12MOL   C408 5930   4.268   5.917   2.895  0.7920  0.2046 -0.2582
   12MOL   C409 5931   4.221   5.930   2.744 -0.5865 -0.1929  0.4110
   12MOL   C410 5932   4.157   6.071   2.720  0.1029 -0.1315  0.1636
   12MOL   H411 5933   4.727   5.721   3.321  1.0654 -1.3519 -0.5786
   12MOL   H412 5934   4.619   5.640   3.441 -2.0030 -0.5307 -1.7119
   12MOL   H413 5935   4.656   5.515   3.174 -0.8149 -0.3154 -0.2574
   12MOL   H414 5936   4.523   5.606   3.029 -0.6854 -0.9761  0.0927
   12MOL   H415 5937   4.606   5.744   3.110  0.0431 -0.7453  0.2687
   12MOL   H416 5938   4.408   5.870   3.129  1.5008 -1.8717  1.9714
   12MOL   H417 5939   4.313   5.732   3.094  0.6353 -1.2516 -2.5226
   12MOL   H418 5940   4.472   5.835   2.862 -0.2601  2.2813 -1.6186
   12MOL   H419 5941   4.340   5.713   2.876  0.0585 -0.0052  1.8348
   12MOL   H420 5942   4.189   5.891   2.965  1.5037  1.1674  0.9188
   12MOL   H421 5943   4.307   6.010   2.936 -0.3063  0.3032  0.5720
   12MOL   H422 5944   4.308   5.922   2.679 -0.3911 -0.9106  0.7612
   12MOL   H423 5945   4.151   5.854   2.711 -0.0338 -0.1721 -0.8364
   12MOL   H424 5946   4.225   6.152   2.748  0.7375 -1.2219  1.8816
   12MOL   H425 5947   4.144   6.080   2.613  0.4699 -0.1819  0.1139
   12MOL   H426 5948   4.062   6.066   2.774 -0.9667 -1.1967 -1.7886
   12MOL   C427 5949   4.535   5.438   3.333 -0.5582  0.2468 -0.1934
   12MOL   C428 5950   4.429   5.379   3.235  0.1801 -0.1751 -0.7745
   12MOL   O429 5951   4.419   5.238   3.266  0.1301 -0.6146  0.1080
   12MOL   C430 5952   4.499   5.155   3.190  0.2929  0.0718  0.3456
   12MOL   C431 5953   4.498   5.016   3.264  0.8229 -0.1553  0.1606
   12MOL   C432 5954   4.362   4.949   3.245 -0.4994  0.2282 -0.2193
   12MOL   C433 5955   4.361   4.811   3.323  0.5066  0.0064  0.1469
   12MOL   C434 5956   4.242   4.728   3.271 -0.6427 -0.0293  0.1550
   12MOL   C435 5957   4.203   4.626   3.373  0.4711 -0.3383  0.2422
   12MOL   H436 5958   4.600   5.365   3.382 -0.3754  0.9941  0.6750
   12MOL   H437 5959   4.487   5.481   3.420 -0.1020  1.0113 -0.3191
   12MOL   H438 5960   4.443   5.391   3.128  0.2502 -0.8854 -0.8473
   12MOL   H439 5961   4.602   5.189   3.178 -0.6003  3.0568  0.6380
   12MOL   H440 5962   4.453   5.139   3.092  1.6553 -1.2687 -0.0923
   12MOL   H441 5963   4.516   5.039   3.369 -0.1863  1.2446  0.0465
   12MOL   H442 5964   4.582   4.956   3.231  0.4879 -1.5437  1.7805
   12MOL   H443 5965   4.276   5.011   3.270 -0.0120  0.3184  1.2331
   12MOL   H444 5966   4.353   4.915   3.141 -0.5052 -1.5209  0.3328
   12MOL   H445 5967   4.451   4.750   3.316  1.5707  1.4862  0.6542
   12MOL   H446 5968   4.344   4.846   3.424 -1.4216 -1.0361  0.1948
   12MOL   H447 5969   4.148   4.783   3.262  0.0061  1.2597  1.0346
   12MOL   H448 5970   4.264   4.690   3.172 -1.2393 -0.7998  0.3119
   12MOL   H449 5971   4.183   4.666   3.473 -0.1439  1.6671 -0.6508
   12MOL   H450 5972   4.116   4.572   3.335  0.7991  0.0813 -1.1303
   12MOL   H451 5973   4.271   4.542   3.379 -0.0680 -0.6335  2.6065
   12MOL   C452 5974   4.282   5.427   3.275  0.3581 -0.0889  0.0192
   12MOL   C453 5975   4.182   5.371   3.183  0.1920 -0.8702  0.5527
   12MOL   O454 5976   4.217   5.429   3.060  0.1658  0.2206  0.8616
   12MOL   C455 5977   4.180   5.341   2.948 -0.1998  0.0716 -0.4379
   12MOL   C456 5978   4.245   5.407   2.826  0.1851  0.1904  0.3755
   12MOL   C457 5979   4.399   5.382   2.807  0.0123 -0.6568  0.3909
   12MOL   C458 5980   4.428   5.435   2.665  0.6993 -0.4442  1.0014
   12MOL   C459 5981   4.568   5.417   2.619  0.0734  0.0146  0.0754
   12MOL   C460 5982   4.669   5.507   2.694  0.1501 -0.5028  0.4958
   12MOL   H461 5983   4.268   5.398   3.380 -0.1079  2.0961  0.5748
   12MOL   H462 5984   4.281   5.535   3.284 -1.4485 -0.1499  0.7727
   12MOL   H463 5985   4.193   5.262   3.182  1.8228 -0.7179  0.7234
   12MOL   H464 5986   4.073   5.330   2.929  0.1205 -3.4596 -0.5185
   12MOL   H465 5987   4.224   5.243   2.967  0.0697  0.2009 -0.3864
   12MOL   H466 5988   4.231   5.515   2.833  2.6376  0.5391  0.0347
   12MOL   H467 5989   4.188   5.382   2.737 -0.4132 -1.1677  1.1240
   12MOL   H468 5990   4.456   5.443   2.877 -2.0156  0.4041  1.1680
   12MOL   H469 5991   4.436   5.281   2.821 -0.3215 -0.6215  1.5811
   12MOL   H470 5992   4.362   5.388   2.592  2.0022 -1.8250  0.6821
   12MOL   H471 5993   4.406   5.542   2.663  0.7040 -0.4224  2.1443
   12MOL   H472 5994   4.603   5.314   2.623  0.0814 -0.0134 -0.6936
   12MOL   H473 5995   4.568   5.440   2.513  0.2369 -0.9419 -0.1294
   12MOL   H474 5996   4.759   5.516   2.633  0.0327  0.7580  0.4932
   12MOL   H475 5997   4.631   5.609   2.700 -0.0951 -0.5164 -0.7855
   12MOL   H476 5998   4.687   5.468   2.794  0.7029 -1.1778  0.1364
   12MOL   C477 5999   4.033   5.415   3.218 -0.0505  1.2126 -0.2669
   12MOL   C478 6000   3.981   5.347   3.346 -0.4311  0.1005 -0.0390
   12MOL   O479 6001   3.999   5.210   3.343  0.2428  0.4019 -0.0414
   12MOL   C480 6002   3.984   5.145   3.466 -0.3085 -0.4422 -0.1926
   12MOL   C481 6003   3.956   4.999   3.458 -0.5318 -0.6468  0.0495
   12MOL   C482 6004   3.823   4.952   3.397  0.0698  0.4836 -0.7797
   12MOL   C483 6005   3.764   4.818   3.450 -0.0403  0.0691  0.1599
   12MOL   C484 6006   3.621   4.808   3.392  0.2968  0.3646  0.0702
   12MOL   C485 6007   3.524   4.716   3.465  0.3346 -0.1408  0.6276
   12MOL   H486 6008   4.037   5.519   3.250 -0.5741  0.7667  1.3198
   12MOL   H487 6009   3.960   5.400   3.138 -0.2875  1.6924 -0.1383
   12MOL   H488 6010   4.032   5.397   3.428 -0.9893  0.6764 -0.0367
   12MOL   H489 6011   3.905   5.193   3.523 -0.3026  1.0217 -1.3760
   12MOL   H490 6012   4.065   5.164   3.536  0.9297 -2.5884 -0.9783
   12MOL   H491 6013   3.966   4.945   3.553  1.7661  0.4609  0.4874
   12MOL   H492 6014   4.035   4.949   3.402  2.0579  2.0238  1.1761
   12MOL   H493 6015   3.752   5.034   3.404 -0.9189 -0.4847  0.6273
   12MOL   H494 6016   3.838   4.955   3.289 -3.5653  0.6283 -1.3511
   12MOL   H495 6017   3.829   4.731   3.446 -0.7358 -0.5645  2.0440
   12MOL   H496 6018   3.753   4.837   3.557 -0.4148  0.8574 -0.0156
   12MOL   H497 6019   3.574   4.904   3.374  2.7995  1.6255  0.0999
   12MOL   H498 6020   3.632   4.768   3.291 -2.5610 -1.0215  0.2797
   12MOL   H499 6021   3.503   4.734   3.570  0.4439 -0.6464  0.7350
   12MOL   H500 6022   3.430   4.700   3.412 -0.3143  2.0793  1.0499
   12MOL   H501 6023   3.569   4.617   3.473  2.6070  0.9442  1.4659
   12MOL   H502 6024   3.878   5.377   3.366 -0.3536  0.5747 -0.3310
   13MOL     C1 6025   0.713   6.156   6.582  0.5265  0.5326  0.2727
   13MOL     C2 6026   0.678   6.276   6.489  0.8112  0.0342  0.2224
   13MOL     O3 6027   0.650   6.398   6.558 -0.7342 -0.6697  0.4164
   13MOL     C4 6028   0.762   6.441   6.642 -0.0697 -0.1250  0.5507
   13MOL     C5 6029   0.734   6.591   6.685 -0.1305 -0.5333  0.3922
   13MOL     C6 6030   0.766   6.683   6.562  0.0955  0.6882  0.3025
   13MOL     C7 6031   0.788   6.826   6.600  0.5733  0.2927 -0.3521
   13MOL     C8 6032   0.863   6.898   6.486  0.0035 -0.3233 -0.7083
   13MOL     C9 6033   0.898   7.043   6.525 -0.0752 -0.0221  0.4373
   13MOL    H10 6034   0.816   6.167   6.616  0.5190  3.7419 -0.6606
   13MOL    H11 6035   0.647   6.163   6.669  1.4846 -0.3465  1.0879
   13MOL    H12 6036   0.763   6.305   6.427  1.7752  0.2592  1.6213
   13MOL    H13 6037   0.851   6.435   6.580 -0.8044  0.4908 -0.5871
   13MOL    H14 6038   0.769   6.370   6.724 -2.0550 -3.5419 -2.0740
   13MOL    H15 6039   0.801   6.597   6.772 -1.9804 -1.4893  1.9208
   13MOL    H16 6040   0.630   6.613   6.709 -0.4400 -0.5180 -0.9183
   13MOL    H17 6041   0.855   6.634   6.522 -0.9732  2.1217 -4.0820
   13MOL    H18 6042   0.685   6.674   6.490  0.9352 -0.3531 -0.5396
   13MOL    H19 6043   0.688   6.869   6.607 -0.1694 -1.5079  0.3909
   13MOL    H20 6044   0.841   6.829   6.695  1.2192 -1.7599 -0.6202
   13MOL    H21 6045   0.804   6.899   6.394  0.8505 -1.5413 -1.2737
   13MOL    H22 6046   0.953   6.845   6.457 -1.0053 -0.4299 -3.8036
   13MOL    H23 6047   0.806   7.100   6.513  0.8678  0.9796 -2.6566
   13MOL    H24 6048   0.918   7.046   6.632  0.3263 -2.4319  0.4473
   13MOL    H25 6049   0.982   7.093   6.477 -0.3137 -0.7338 -0.7363
   13MOL    H26 6050   0.705   6.059   6.532 -0.0440  0.3529  0.7022
   13MOL    C27 6051   0.557   6.240   6.403 -0.2074 -0.0807  0.3239
   13MOL    C28 6052   0.522   6.347   6.294  1.0967  0.2451 -0.8204
   13MOL    O29 6053   0.625   6.347   6.200  0.3185  0.1208  0.3091
   13MOL    C30 6054   0.708   6.455   6.206 -0.2140 -0.0636  0.6217
   13MOL    C31 6055   0.650   6.572   6.129 -0.8374  0.2228 -0.2780
   13MOL    C32 6056   0.747   6.693   6.105 -0.5182  0.3375 -0.4643
   13MOL    C33 6057   0.677   6.814   6.053 -0.0486  0.6456  0.2102
   13MOL    C34 6058   0.778   6.919   6.018  0.2160 -0.2024  0.5959
   13MOL    C35 6059   0.731   7.059   6.006  0.0644 -0.1916 -1.0473
   13MOL    H36 6060   0.582   6.145   6.357  2.2775 -0.4495  2.3007
   13MOL    H37 6061   0.473   6.221   6.471 -0.2951  0.1543  0.2813
   13MOL    H38 6062   0.509   6.446   6.338  1.5146 -0.6430  1.3880
   13MOL    H39 6063   0.799   6.446   6.147  0.2175  1.2286  1.0750
   13MOL    H40 6064   0.724   6.487   6.309  2.8852 -0.3837  0.2889
   13MOL    H41 6065   0.564   6.609   6.185 -0.4181  0.2852  0.3325
   13MOL    H42 6066   0.594   6.531   6.045 -1.2517 -0.9643  0.5822
   13MOL    H43 6067   0.800   6.717   6.197  0.3226 -1.6616 -0.4214
   13MOL    H44 6068   0.826   6.659   6.038  0.5439 -0.9368  1.4158
   13MOL    H45 6069   0.611   6.790   5.969  0.3126  0.1177  0.0744
   13MOL    H46 6070   0.602   6.844   6.126 -1.9128 -0.5885 -1.1455
   13MOL    H47 6071   0.861   6.918   6.090  0.5290  0.8490  0.2680
   13MOL    H48 6072   0.832   6.892   5.927  2.6410  0.1985  1.8778
   13MOL    H49 6073   0.645   7.073   5.940 -1.1980 -0.2975  0.5485
   13MOL    H50 6074   0.702   7.096   6.104 -2.0865 -0.1299 -1.6725
   13MOL    H51 6075   0.808   7.126   5.969 -1.4355  0.7346 -2.5697
   13MOL    C52 6076   0.385   6.309   6.229  0.3947 -0.1020  0.7542
   13MOL    C53 6077   0.254   6.309   6.318  0.3679 -0.6496  0.3317
   13MOL    O54 6078   0.234   6.441   6.364 -0.1206 -0.2382 -0.4253
   13MOL    C55 6079   0.251   6.472   6.498  0.3738 -0.4721 -0.4086
   13MOL    C56 6080   0.331   6.599   6.503  0.6641  0.3565  0.6140
   13MOL    C57 6081   0.306   6.701   6.390  0.0705  0.3680  0.3139
   13MOL    C58 6082   0.394   6.823   6.393  0.2650 -0.5317 -0.3537
   13MOL    C59 6083   0.367   6.931   6.495  0.4849 -0.7923  0.4243
   13MOL    C60 6084   0.227   6.995   6.503  0.2399  0.3405 -0.3965
   13MOL    H61 6085   0.392   6.215   6.173 -1.1018  1.8196 -2.8975
   13MOL    H62 6086   0.376   6.373   6.141 -3.4974  2.2873  2.7487
   13MOL    H63 6087   0.266   6.237   6.398  0.6654 -2.6867 -1.4969
   13MOL    H64 6088   0.307   6.396   6.552  1.9706  1.5198  0.8342
   13MOL    H65 6089   0.159   6.495   6.553  0.6987 -2.0647  0.8316
   13MOL    H66 6090   0.438   6.577   6.497  0.5082 -0.5478  1.0789
   13MOL    H67 6091   0.317   6.658   6.594  1.6566  0.5617  0.6418
   13MOL    H68 6092   0.343   6.653   6.300  1.2499 -1.5076  1.7433
   13MOL    H69 6093   0.200   6.723   6.388 -0.4276 -1.8389  0.7685
   13MOL    H70 6094   0.496   6.787   6.401  0.9693  1.6790  1.0041
   13MOL    H71 6095   0.386   6.863   6.292 -2.1779 -0.7791 -0.2904
   13MOL    H72 6096   0.391   6.884   6.591  1.9570  0.3495  0.6404
   13MOL    H73 6097   0.445   7.007   6.492 -0.6280  0.3798  0.5667
   13MOL    H74 6098   0.227   7.065   6.587  0.3376  0.0702 -0.1678
   13MOL    H75 6099   0.196   7.040   6.409  2.7085  1.6302 -0.6482
   13MOL    H76 6100   0.159   6.914   6.529  0.6938  0.6391  1.8080
   13MOL    C77 6101   0.122   6.284   6.235 -0.4069 -0.3775 -0.3363
   13MOL    C78 6102   7.775   6.248   6.336 -0.0042  0.8590  0.0869
   13MOL    O79 6103   7.745   6.108   6.333  0.4159  0.0781 -0.1342
   13MOL    C80 6104   0.061   6.022   6.407  0.1224  0.3082  1.0748
   13MOL    C81 6105   0.042   5.867   6.359 -0.0392  0.5861 -0.7815
   13MOL    C82 6106   0.142   5.779   6.426  0.7935  0.4180 -0.4488
   13MOL    C83 6107   0.140   5.632   6.391  0.3071  0.4001 -0.1391
   13MOL    C84 6108   0.263   5.560   6.444 -0.3040 -0.2490  0.4834
   13MOL    C85 6109   0.279   5.416   6.384 -0.2378  0.0774  0.1236
   13MOL    H86 6110   0.127   6.205   6.160 -1.6255  1.2077 -2.1265
   13MOL    H87 6111   0.099   6.377   6.182  1.5205  0.0380 -0.4571
   13MOL    H88 6112   0.035   6.274   6.435  0.6646  2.4290 -0.5603
   13MOL    H89 6113   0.057   6.036   6.515  2.5341  0.6734  1.1352
   13MOL    H90 6114   0.160   6.055   6.375 -1.3719  2.3147 -1.7398
   13MOL    H91 6115   0.066   5.862   6.253 -0.7176 -0.0455 -0.9056
   13MOL    H92 6116   7.714   5.848   6.380 -0.2821  1.6139 -1.0416
   13MOL    H93 6117   0.231   5.814   6.373  1.2216 -0.8728 -0.6038
   13MOL    H94 6118   0.149   5.810   6.530  2.2268 -0.1017 -0.3684
   13MOL    H95 6119   0.044   5.593   6.427  0.6677 -1.4855 -1.1460
   13MOL    H96 6120   0.145   5.621   6.283 -0.0418  2.7733 -0.4226
   13MOL    H97 6121   0.360   5.603   6.420 -1.2970  0.8979 -1.6235
   13MOL    H98 6122   0.268   5.555   6.553 -0.8150 -4.9032  0.3822
   13MOL    H99 6123   0.376   5.371   6.404  0.0177  0.2347 -0.7270
   13MOL   H100 6124   0.205   5.342   6.415  0.3431 -0.5991 -0.0939
   13MOL   H101 6125   0.267   5.420   6.276  0.4035 -0.2721  0.0392
   13MOL   C102 6126   7.654   6.331   6.302  0.5417 -0.6061  0.2155
   13MOL   C103 6127   7.532   6.293   6.395  0.3825  0.8406  0.2814
   13MOL   O104 6128   7.570   6.314   6.527 -0.0825 -0.1787  0.2915
   13MOL   C105 6129   7.552   6.204   6.619  0.5195  0.1794  0.0414
   13MOL   C106 6130   7.634   6.239   6.745 -0.1978  0.1150 -0.3218
   13MOL   C107 6131   7.616   6.116   6.845  0.2501 -0.0108  0.2505
   13MOL   C108 6132   7.650   6.147   6.992 -0.2295  0.0553  0.4057
   13MOL   C109 6133   7.621   6.023   7.074 -0.4246 -0.3533  0.4371
   13MOL   C110 6134   7.738   5.916   7.070 -0.3755 -0.4406 -0.4777
   13MOL   H111 6135   7.668   6.438   6.319 -0.5009 -0.4222 -0.0706
   13MOL   H112 6136   7.620   6.315   6.199 -1.2400  2.1234  0.3305
   13MOL   H113 6137   7.506   6.189   6.374 -1.5317  1.1926  0.7703
   13MOL   H114 6138   7.596   6.113   6.578 -0.1166  0.4400 -1.2248
   13MOL   H115 6139   7.443   6.203   6.626  0.3081 -0.4793 -2.6935
   13MOL   H116 6140   7.591   6.325   6.796 -0.5145  0.6202 -1.4280
   13MOL   H117 6141   7.740   6.257   6.726  0.1740 -0.1617  1.3326
   13MOL   H118 6142   7.510   6.098   6.834  0.2714 -0.7769  1.3241
   13MOL   H119 6143   7.672   6.025   6.822  1.1542 -0.1018  2.6939
   13MOL   H120 6144   7.755   6.177   6.999 -0.5169  1.0824  0.4042
   13MOL   H121 6145   7.596   6.233   7.031  0.6650  1.1237 -0.6876
   13MOL   H122 6146   7.600   6.045   7.179  0.5950  0.5695  0.4670
   13MOL   H123 6147   7.534   5.968   7.039 -0.7277 -0.3515  1.1648
   13MOL   H124 6148   0.053   5.957   7.112 -1.2518  1.1089 -0.0149
   13MOL   H125 6149   7.710   5.833   7.134  0.8450 -0.6767 -0.2506
   13MOL   H126 6150   7.761   5.878   6.971 -0.2603 -0.4128 -0.4621
   13MOL   C127 6151   7.411   6.385   6.366  0.1695 -0.1231 -0.3047
   13MOL   C128 6152   7.326   6.365   6.238 -0.4535  0.0446  0.6919
   13MOL   O129 6153   7.252   6.488   6.210  0.2750  0.4721 -0.6127
   13MOL   C130 6154   7.304   6.581   6.117  0.6089  0.2905  0.5814
   13MOL   C131 6155   7.202   6.695   6.127 -0.4766  0.1939 -0.1866
   13MOL   C132 6156   7.066   6.660   6.070  0.4313 -1.0844 -0.1760
   13MOL   C133 6157   6.979   6.784   6.061  0.1601 -0.2058 -0.0457
   13MOL   C134 6158   6.836   6.756   6.003  0.2505 -0.3494 -0.0408
   13MOL   C135 6159   6.759   6.889   5.991  0.2855 -0.7865 -0.5918
   13MOL   H136 6160   7.345   6.382   6.452 -0.7071  1.4204 -0.8938
   13MOL   H137 6161   7.440   6.490   6.365  0.8359 -0.2751  1.5189
   13MOL   H138 6162   7.394   6.347   6.154 -0.5893  1.8702  0.1704
   13MOL   H139 6163   7.297   6.547   6.014 -1.0358 -0.6924  0.9849
   13MOL   H140 6164   7.404   6.620   6.134  0.4600  0.0627  2.0278
   13MOL   H141 6165   7.241   6.781   6.072  0.1973 -0.6779 -1.0825
   13MOL   H142 6166   7.205   6.725   6.232  1.1016 -0.0007 -0.1722
   13MOL   H143 6167   7.084   6.624   5.969  0.5689 -2.3639  0.2948
   13MOL   H144 6168   7.013   6.583   6.126 -2.6009  1.4220  0.5638
   13MOL   H145 6169   6.959   6.825   6.160  2.3559 -0.5567  0.5808
   13MOL   H146 6170   7.022   6.866   6.004  0.8126 -1.6188 -1.6544
   13MOL   H147 6171   6.843   6.707   5.906  0.1172 -0.5993  0.0749
   13MOL   H148 6172   6.779   6.683   6.061 -0.1218 -2.9739 -3.5596
   13MOL   H149 6173   6.823   6.971   5.961 -0.6897  0.8497  1.6594
   13MOL   H150 6174   6.678   6.871   5.921  0.8223  0.8015 -1.6185
   13MOL   H151 6175   6.707   6.924   6.081 -2.0276 -1.0036 -1.7906
   13MOL   C152 6176   7.231   6.247   6.251 -0.6223 -0.0535  0.4980
   13MOL   C153 6177   7.162   6.227   6.122 -0.4809 -0.0097  0.0656
   13MOL   O154 6178   7.273   6.192   6.031 -0.0113  0.0316 -0.5301
   13MOL   C155 6179   7.259   6.214   5.888 -0.5756 -0.0915 -0.3181
   13MOL   C156 6180   7.363   6.130   5.812  0.7932 -0.4743 -0.5778
   13MOL   C157 6181   7.357   6.127   5.662 -0.4060  0.1125  0.3912
   13MOL   C158 6182   7.415   6.002   5.600 -0.3809  0.2868  0.4047
   13MOL   C159 6183   7.398   5.998   5.449  0.5570 -0.0434 -0.5397
   13MOL   C160 6184   7.485   5.907   5.370 -0.1624 -0.1715  0.6105
   13MOL   H161 6185   7.283   6.156   6.279  2.5219  0.6991 -2.3991
   13MOL   H162 6186   7.169   6.289   6.330  0.9415  0.8311  1.2906
   13MOL   H163 6187   7.121   6.314   6.072  2.8957  0.8842 -1.3021
   13MOL   H164 6188   7.253   6.319   5.859  0.8680 -0.1860 -0.9851
   13MOL   H165 6189   7.159   6.182   5.859 -0.6523 -1.3814  1.2981
   13MOL   H166 6190   7.363   6.025   5.840 -0.3053 -0.5954 -1.0033
   13MOL   H167 6191   7.462   6.163   5.842 -0.1398 -0.2783  2.4190
   13MOL   H168 6192   7.255   6.133   5.624 -0.2856  0.0171  0.0532
   13MOL   H169 6193   7.416   6.209   5.620 -1.0996  1.6694  2.3598
   13MOL   H170 6194   7.523   6.006   5.616 -0.3073 -0.8946  0.2290
   13MOL   H171 6195   7.377   5.906   5.637 -1.9537  0.6189 -0.3112
   13MOL   H172 6196   7.290   5.979   5.442  0.5446 -0.1150 -0.1852
   13MOL   H173 6197   7.421   6.094   5.403 -1.3570  1.6156  1.8228
   13MOL   H174 6198   7.587   5.946   5.373 -0.1059  0.1969 -3.0785
   13MOL   H175 6199   7.477   5.806   5.411  1.3405 -0.8380 -0.7042
   13MOL   H176 6200   7.446   5.913   5.268  1.9651  1.0625 -0.1452
   13MOL   C177 6201   7.065   6.109   6.140 -0.2910 -0.1583  0.5870
   13MOL   C178 6202   6.942   6.132   6.231  0.7129 -0.1929  0.4134
   13MOL   O179 6203   6.980   6.125   6.365  0.5295 -0.0245 -0.0608
   13MOL   C180 6204   6.968   5.998   6.429 -0.1455 -0.3360 -0.8758
   13MOL   C181 6205   7.038   5.993   6.559 -0.1282 -0.0644 -0.9097
   13MOL   C182 6206   6.981   6.094   6.670 -0.5361 -0.5740  0.8204
   13MOL   C183 6207   7.029   6.059   6.814 -0.2763 -0.1874 -0.0362
   13MOL   C184 6208   7.181   6.080   6.837 -0.1975 -0.2534  0.5845
   13MOL   C185 6209   7.212   6.223   6.802  0.2616  0.1781 -0.6461
   13MOL   H186 6210   7.025   6.096   6.040 -2.2563  2.3520  1.0100
   13MOL   H187 6211   7.107   6.010   6.161  1.4751  0.3966 -0.2401
   13MOL   H188 6212   6.870   6.053   6.210 -0.2153  0.3679  1.4423
   13MOL   H189 6213   6.993   5.909   6.372  1.5315  0.5992 -1.6319
   13MOL   H190 6214   6.864   5.988   6.462  0.5876  0.5134  1.8562
   13MOL   H191 6215   7.144   6.009   6.543  0.2807 -0.9405  0.7543
   13MOL   H192 6216   7.024   5.891   6.597  0.6117 -0.2935 -1.2506
   13MOL   H193 6217   6.989   6.195   6.630  1.4375 -1.0073  0.0648
   13MOL   H194 6218   6.873   6.086   6.658 -0.3419  0.4290 -1.9281
   13MOL   H195 6219   6.968   6.106   6.891 -0.0046  0.5679 -0.2799
   13MOL   H196 6220   7.011   5.952   6.821 -0.5370 -0.0643  1.2141
   13MOL   H197 6221   7.187   6.069   6.945  0.8409  0.4871  0.6137
   13MOL   H198 6222   7.230   6.004   6.776 -1.2010 -2.2923  2.2650
   13MOL   H199 6223   7.210   6.235   6.694 -0.1790  0.2427 -0.6296
   13MOL   H200 6224   7.138   6.289   6.847  0.5882 -1.3457  2.2845
   13MOL   H201 6225   7.316   6.247   6.822  0.3450  0.5295 -1.4752
   13MOL   C202 6226   6.878   6.268   6.201  0.1959 -0.2742  0.2394
   13MOL   C203 6227   6.729   6.282   6.246 -0.2128  0.1512 -0.4483
   13MOL   O204 6228   6.643   6.187   6.174  0.0084  0.3966 -0.2032
   13MOL   C205 6229   6.592   6.096   6.265  0.1489 -0.0188 -0.2936
   13MOL   C206 6230   6.467   6.155   6.337 -0.9017 -0.1642  0.3058
   13MOL   C207 6231   6.365   6.038   6.373  0.4157  0.3779  0.8261
   13MOL   C208 6232   6.323   5.949   6.250  0.2309 -0.2449 -0.1207
   13MOL   C209 6233   6.207   5.855   6.285 -0.3989 -0.1236  0.3087
   13MOL   C210 6234   6.239   5.715   6.339  0.2892  0.5006  0.5171
   13MOL   H211 6235   6.935   6.340   6.260  2.0356 -0.4618 -1.2600
   13MOL   H212 6236   6.868   6.287   6.095  1.6614 -0.2282  0.1063
   13MOL   H213 6237   6.727   6.273   6.354  2.3724  3.9534  0.0119
   13MOL   H214 6238   6.669   6.052   6.328  1.1056  1.3402 -0.4889
   13MOL   H215 6239   6.573   6.013   6.197 -2.3846  0.5991 -0.3761
   13MOL   H216 6240   6.431   6.228   6.265 -2.2707  0.8963  2.0348
   13MOL   H217 6241   6.502   6.210   6.425 -1.2378  1.8312 -0.7829
   13MOL   H218 6242   6.415   5.971   6.443 -0.9851 -2.1714 -0.5742
   13MOL   H219 6243   6.281   6.085   6.424 -0.6949 -1.0019  0.2774
   13MOL   H220 6244   6.278   6.008   6.171 -0.9573  0.2974  0.9379
   13MOL   H221 6245   6.410   5.890   6.221 -0.2544 -1.1876  0.3120
   13MOL   H222 6246   6.133   5.903   6.348  1.4919  0.0229  2.4768
   13MOL   H223 6247   6.158   5.831   6.191 -0.9175 -0.9076  0.7699
   13MOL   H224 6248   6.144   5.668   6.362 -1.1051  2.7968 -0.4514
   13MOL   H225 6249   6.306   5.663   6.269 -1.0333  0.3488 -0.6636
   13MOL   H226 6250   6.302   5.713   6.428  1.9304 -1.4564 -0.6260
   13MOL   C227 6251   6.665   6.430   6.209  0.2486 -0.0138  0.1906
   13MOL   C228 6252   6.671   6.545   6.313  0.2252 -0.4499  0.2226
   13MOL   O229 6253   6.804   6.590   6.317  0.4533  0.2902  0.1996
   13MOL   C230 6254   6.847   6.602   6.452 -0.0284  0.5104  0.3336
   13MOL   C231 6255   6.974   6.693   6.457  0.7785  0.4513  0.4873
   13MOL   C232 6256   6.928   6.841   6.449  0.4152 -0.3738  0.1225
   13MOL   C233 6257   7.043   6.941   6.442  0.4009  0.8753  0.6402
   13MOL   C234 6258   6.981   7.084   6.418  0.1384  0.5327  0.6581
   13MOL   C235 6259   7.081   7.195   6.460  0.2659 -0.1668 -0.4738
   13MOL   H236 6260   6.693   6.462   6.109 -1.0102  3.2237  0.8351
   13MOL   H237 6261   6.558   6.416   6.196  0.0825  1.2854  0.0991
   13MOL   H238 6262   6.630   6.507   6.407  2.1257  0.8575  1.6352
   13MOL   H239 6263   6.872   6.500   6.481  0.4377 -0.1035 -2.0910
   13MOL   H240 6264   6.773   6.643   6.520 -2.1391 -1.4106 -0.7629
   13MOL   H241 6265   7.044   6.676   6.375  1.5441  1.5990  0.8853
   13MOL   H242 6266   7.028   6.680   6.550  0.4905 -1.7485  0.3630
   13MOL   H243 6267   6.850   6.851   6.373 -1.5131  0.3087  2.1408
   13MOL   H244 6268   6.872   6.859   6.541  1.4790 -0.1360  0.7283
   13MOL   H245 6269   7.098   6.932   6.536  1.6442  3.2353  0.1619
   13MOL   H246 6270   7.112   6.923   6.360  0.0213 -1.4868  0.8017
   13MOL   H247 6271   6.967   7.093   6.310 -0.9641  1.8396  0.9064
   13MOL   H248 6272   6.882   7.085   6.463  0.2820 -1.8785  1.0961
   13MOL   H249 6273   7.175   7.181   6.406  0.1560 -0.6603 -0.5373
   13MOL   H250 6274   7.030   7.290   6.445 -0.9451 -0.5739  0.9521
   13MOL   H251 6275   7.099   7.188   6.567 -0.2912 -0.4916 -0.3975
   13MOL   C252 6276   6.595   6.675   6.263 -0.0986  0.4449 -0.1652
   13MOL   C253 6277   6.461   6.718   6.335  0.0407 -0.2301  0.3231
   13MOL   O254 6278   6.495   6.770   6.459 -0.4912  0.2231 -0.5736
   13MOL   C255 6279   6.515   6.913   6.463  0.4493  0.3282  0.1110
   13MOL   C256 6280   6.577   6.954   6.590 -0.4368  0.3627 -0.2679
   13MOL   C257 6281   6.596   7.098   6.611  0.5925 -0.5322  0.3372
   13MOL   C258 6282   6.634   7.134   6.760 -0.7930 -0.3692  0.0261
   13MOL   C259 6283   6.773   7.092   6.800 -0.2361  0.7913 -0.8673
   13MOL   C260 6284   6.769   7.029   6.933 -0.4276 -0.4688 -0.5940
   13MOL   H261 6285   6.667   6.756   6.255  2.0472 -1.1936  1.8474
   13MOL   H262 6286   6.571   6.670   6.157  1.8927 -0.5578 -0.5893
   13MOL   H263 6287   6.411   6.789   6.269 -0.1021 -1.4459 -0.8945
   13MOL   H264 6288   6.421   6.962   6.439  0.9058  1.0741 -0.1702
   13MOL   H265 6289   6.592   6.942   6.392 -0.5469  0.9868 -0.7118
   13MOL   H266 6290   6.675   6.908   6.604 -1.3643 -1.5013  0.1725
   13MOL   H267 6291   6.514   6.908   6.665  0.6286  0.0236  0.4292
   13MOL   H268 6292   6.665   7.138   6.537 -2.1300  2.3741 -0.7308
   13MOL   H269 6293   6.504   7.150   6.585  0.4903 -1.7376 -1.8114
   13MOL   H270 6294   6.627   7.243   6.759  1.6723 -0.1515  2.2989
   13MOL   H271 6295   6.554   7.100   6.826 -0.4154 -0.9543  0.1810
   13MOL   H272 6296   6.822   7.023   6.731 -0.8628  0.1454 -0.6619
   13MOL   H273 6297   6.827   7.187   6.798  0.2429  0.5312 -0.5697
   13MOL   H274 6298   6.748   7.110   7.003  1.0637  0.1114 -0.7956
   13MOL   H275 6299   6.691   6.953   6.922  0.0085 -1.1087  0.5856
   13MOL   H276 6300   6.871   6.992   6.945  0.0107  1.2528  1.1879
   13MOL   C277 6301   6.360   6.599   6.363 -0.4746  0.2996 -0.0724
   13MOL   C278 6302   6.208   6.633   6.375 -0.7780 -0.4504  0.2511
   13MOL   O279 6303   6.154   6.626   6.242  0.7382 -0.4875  0.1836
   13MOL   C280 6304   6.028   6.687   6.222 -0.4405 -0.5103 -0.3998
   13MOL   C281 6305   6.013   6.726   6.074  0.1749 -0.0679  0.4444
   13MOL   C282 6306   6.133   6.816   6.034  0.3443  0.6325  0.2833
   13MOL   C283 6307   6.102   6.863   5.888  0.1934  0.0053 -0.3181
   13MOL   C284 6308   6.001   6.972   5.885  0.1415 -0.1370  0.2584
   13MOL   C285 6309   6.005   7.052   5.753  0.1599  0.5424 -0.4974
   13MOL   H286 6310   6.369   6.529   6.279  0.1444 -0.3909  0.5582
   13MOL   H287 6311   6.400   6.552   6.453 -0.3317  1.8128  0.6674
   13MOL   H288 6312   6.200   6.726   6.430  1.8668 -0.9688  1.5941
   13MOL   H289 6313   6.024   6.778   6.282  2.2682 -0.2840 -0.5075
   13MOL   H290 6314   5.955   6.611   6.250 -2.2555  0.2098 -3.0068
   13MOL   H291 6315   5.923   6.785   6.062  0.4588  0.1452 -0.6979
   13MOL   H292 6316   6.003   6.639   6.009  1.3497  0.0615  0.0811
   13MOL   H293 6317   6.160   6.896   6.103  2.2398 -0.1415  0.4821
   13MOL   H294 6318   6.218   6.748   6.026 -0.9461 -0.9193 -0.6123
   13MOL   H295 6319   6.192   6.895   5.835  0.0294  0.1563 -0.5060
   13MOL   H296 6320   6.071   6.777   5.828 -0.3998  0.1953 -0.2821
   13MOL   H297 6321   5.904   6.925   5.897  0.3551 -1.1193 -1.7711
   13MOL   H298 6322   6.019   7.046   5.963 -0.5495  0.0464  0.2479
   13MOL   H299 6323   6.103   7.096   5.738 -0.0962  1.5682  0.7693
   13MOL   H300 6324   5.979   6.995   5.664  0.1782 -1.7413  0.8941
   13MOL   H301 6325   5.928   7.129   5.751 -1.2096 -0.7386  1.3558
   13MOL   C302 6326   6.134   6.522   6.454  0.8411 -0.5038 -0.0902
   13MOL   C303 6327   6.158   6.514   6.613 -0.5902  0.3205  0.6599
   13MOL   O304 6328   6.139   6.374   6.641 -0.1329  0.2040 -0.5653
   13MOL   C305 6329   6.245   6.282   6.638  0.2794 -0.3417  0.1848
   13MOL   C306 6330   6.224   6.176   6.743  0.1468 -0.0219  0.4481
   13MOL   C307 6331   6.093   6.102   6.715 -0.1302  0.0515 -0.2674
   13MOL   C308 6332   6.073   5.983   6.814 -0.6425  0.0236  0.3989
   13MOL   C309 6333   5.942   5.904   6.808  0.3177 -0.2806 -0.4204
   13MOL   C310 6334   5.913   5.829   6.678 -0.1408 -0.0150  0.2055
   13MOL   H311 6335   6.026   6.530   6.441  0.4633  1.1523  3.3099
   13MOL   H312 6336   6.153   6.430   6.399 -2.0312 -1.6914  0.8049
   13MOL   H313 6337   6.262   6.542   6.631 -0.0847 -0.4979 -0.9141
   13MOL   H314 6338   6.341   6.332   6.645  0.0395  0.2717 -0.8574
   13MOL   H315 6339   6.240   6.247   6.535 -0.4601 -2.9928  1.0689
   13MOL   H316 6340   6.212   6.216   6.843 -0.5631 -0.7426  0.6525
   13MOL   H317 6341   6.302   6.100   6.735 -0.7062 -0.7180 -1.6921
   13MOL   H318 6342   6.005   6.166   6.719  0.4754  0.8833 -0.1626
   13MOL   H319 6343   6.098   6.058   6.616  2.9996 -1.3572  0.4636
   13MOL   H320 6344   6.161   5.923   6.791 -0.5381  0.6048 -0.7853
   13MOL   H321 6345   6.090   6.016   6.916 -0.3143  0.2496  0.2746
   13MOL   H322 6346   5.928   5.826   6.883  2.5610 -0.2007  0.1182
   13MOL   H323 6347   5.857   5.972   6.812  0.1715 -0.4162 -1.2296
   13MOL   H324 6348   5.828   5.761   6.688  0.8334 -1.4943 -1.2478
   13MOL   H325 6349   5.893   5.900   6.598 -1.8277 -0.0816  0.5416
   13MOL   H326 6350   6.001   5.771   6.651 -0.5580 -0.0311 -1.1451
   13MOL   C327 6351   6.070   6.598   6.703 -0.2386  0.2493  0.4181
   13MOL   C328 6352   6.102   6.576   6.855  0.0879 -0.0243 -0.5556
   13MOL   O329 6353   6.126   6.705   6.913 -0.6703 -0.3542 -0.1189
   13MOL   C330 6354   6.255   6.768   6.903  0.4448 -0.4418 -0.1843
   13MOL   C331 6355   6.228   6.918   6.924  0.8344  0.6696  0.2003
   13MOL   C332 6356   6.138   6.988   6.831 -0.2226 -0.0048  0.4323
   13MOL   C333 6357   6.179   6.998   6.684  0.2166  0.7593 -0.4584
   13MOL   C334 6358   6.066   7.048   6.595 -0.0192 -0.1755  0.3830
   13MOL   C335 6359   6.109   7.042   6.448  0.4159 -0.1764  0.1481
   13MOL   H336 6360   5.964   6.583   6.681  0.0143  1.7441 -1.9815
   13MOL   H337 6361   6.086   6.705   6.686  1.4478  0.2956  2.0589
   13MOL   H338 6362   6.196   6.522   6.873  0.1470 -0.2652 -1.5347
   13MOL   H339 6363   6.293   6.751   6.802  0.1990 -1.3009 -0.1373
   13MOL   H340 6364   6.327   6.731   6.975 -0.5141  1.4472  1.7940
   13MOL   H341 6365   6.327   6.965   6.926  1.4466 -0.5750 -0.4745
   13MOL   H342 6366   6.190   6.920   7.026  0.7214 -0.7315  0.1999
   13MOL   H343 6367   6.046   6.930   6.832  1.0861 -2.1664 -0.2682
   13MOL   H344 6368   6.118   7.089   6.866  0.4820  0.7128 -1.1622
   13MOL   H345 6369   6.266   7.063   6.676  0.2176  0.7190 -0.7652
   13MOL   H346 6370   6.216   6.905   6.643 -0.5877  0.8957 -1.5170
   13MOL   H347 6371   5.974   6.991   6.609 -0.5669  0.7109  0.4862
   13MOL   H348 6372   6.041   7.152   6.617  0.4810 -0.4822  2.5308
   13MOL   H349 6373   6.111   6.938   6.415  0.2337  0.0120 -0.4568
   13MOL   H350 6374   6.037   7.097   6.387  1.8645  1.6308  0.0313
   13MOL   H351 6375   6.201   7.097   6.430 -0.1565  0.6710 -0.2347
   13MOL   C352 6376   5.988   6.516   6.941  0.6560 -0.2017 -0.0557
   13MOL   C353 6377   6.007   6.486   7.093 -0.4907  0.9079  1.2570
   13MOL   O354 6378   6.110   6.386   7.093  0.2926  0.8107  0.4957
   13MOL   C355 6379   6.225   6.443   7.157  0.1153 -0.9436 -0.2791
   13MOL   C356 6380   6.332   6.334   7.171 -0.6626  0.5184  0.7165
   13MOL   C357 6381   6.443   6.369   7.273  0.8264  0.0639  0.3145
   13MOL   C358 6382   6.535   6.247   7.291  0.5269 -0.3540 -0.3241
   13MOL   C359 6383   6.628   6.255   7.418 -0.0350 -0.4289 -0.0407
   13MOL   C360 6384   6.552   6.221   7.540 -0.3361  0.0459  0.4018
   13MOL   H361 6385   5.906   6.588   6.946  1.5607  0.7003  2.9665
   13MOL   H362 6386   5.965   6.429   6.880 -0.2321  0.3508 -0.5252
   13MOL   H363 6387   6.040   6.577   7.144 -1.6791  1.5964  0.8272
   13MOL   H364 6388   6.199   6.478   7.257 -3.2844  1.6409 -1.9607
   13MOL   H365 6389   6.258   6.528   7.097  1.2129 -0.9851  0.2692
   13MOL   H366 6390   6.390   6.309   7.083 -0.6108  2.7751  0.0857
   13MOL   H367 6391   6.280   6.240   7.193 -0.7141  0.8294  1.9564
   13MOL   H368 6392   6.515   6.447   7.247 -0.3976  1.6250  1.5320
   13MOL   H369 6393   6.396   6.393   7.368 -0.1025  0.4446 -0.2347
   13MOL   H370 6394   6.493   6.147   7.280  0.7504 -0.5753  0.8053
   13MOL   H371 6395   6.594   6.229   7.200 -0.5092 -1.0013 -0.8864
   13MOL   H372 6396   6.705   6.179   7.432  1.1158  0.6271 -0.5136
   13MOL   H373 6397   6.669   6.356   7.417 -2.2019  0.4958  0.5851
   13MOL   H374 6398   6.628   6.194   7.614  0.0800 -0.0164 -0.0429
   13MOL   H375 6399   6.485   6.296   7.581  0.4432 -0.1240  1.9991
   13MOL   H376 6400   6.491   6.132   7.528 -1.8353  1.4041 -2.5662
   13MOL   C377 6401   5.882   6.423   7.157 -0.0463 -0.3588  0.3687
   13MOL   C378 6402   5.891   6.390   7.308 -0.3994 -0.0657  0.7843
   13MOL   O379 6403   5.767   6.338   7.345 -0.0269 -0.2016 -0.0112
   13MOL   C380 6404   5.761   6.195   7.344  0.7916 -1.4121 -0.1216
   13MOL   C381 6405   5.624   6.153   7.404 -0.6684  0.0088  0.8392
   13MOL   C382 6406   5.596   6.219   7.533 -0.0342 -0.2001  0.1554
   13MOL   C383 6407   5.448   6.194   7.583 -0.4630 -0.2148  0.2896
   13MOL   C384 6408   5.439   6.254   7.724  0.4933 -0.4969 -0.0602
   13MOL   C385 6409   5.321   6.214   0.036 -0.4738 -1.1487  0.0944
   13MOL   H386 6410   5.803   6.498   7.151 -0.2961 -0.7029 -0.7357
   13MOL   H387 6411   5.850   6.337   7.098  0.9196 -0.8554  0.5454
   13MOL   H388 6412   5.973   6.320   7.326 -0.5541 -0.0895  1.4057
   13MOL   H389 6413   5.843   6.149   7.400  1.5355 -0.9278 -0.7949
   13MOL   H390 6414   5.769   6.162   7.241 -0.0034 -2.0669  0.0207
   13MOL   H391 6415   5.627   6.045   7.410  2.2598 -0.0563 -0.5923
   13MOL   H392 6416   5.556   6.175   7.322  0.2238 -2.2053 -0.5198
   13MOL   H393 6417   5.654   6.185   7.619 -1.0815 -2.6858 -0.0600
   13MOL   H394 6418   5.614   6.326   7.521  0.2476 -0.1245  1.1737
   13MOL   H395 6419   5.371   6.228   7.514 -0.3469 -1.3189 -0.3964
   13MOL   H396 6420   5.437   6.085   7.587  0.0893 -0.2521  0.7595
   13MOL   H397 6421   5.521   6.221   0.011 -0.1957  0.6050  1.4117
   13MOL   H398 6422   5.446   6.363   7.730  2.1211 -0.6918  2.3258
   13MOL   H399 6423   5.225   6.247   7.772  0.2105 -0.9035 -1.3379
   13MOL   H400 6424   5.332   6.107   0.048 -0.1038 -1.0768  0.4167
   13MOL   H401 6425   5.330   6.267   0.131  2.6223 -0.9651 -0.2436
   13MOL   C402 6426   5.909   6.518   7.392  0.3365 -0.0379 -0.5279
   13MOL   C403 6427   5.914   6.491   7.546 -0.0227 -0.0467  1.0839
   13MOL   O404 6428   5.877   6.612   7.612  0.5506 -0.0951  0.0644
   13MOL   C405 6429   5.732   6.635   7.631 -0.1010 -0.8742 -0.2995
   13MOL   C406 6430   5.711   6.784   7.669  0.3185 -0.3513  0.2984
   13MOL   C407 6431   5.793   6.825   0.016 -0.2645  0.7598  0.3461
   13MOL   C408 6432   5.750   6.958   0.063  0.4013  0.3887 -0.4208
   13MOL   C409 6433   5.838   7.008   0.189  0.0344 -0.4204  0.2352
   13MOL   C410 6434   5.770   7.133   0.251  0.3171 -0.4421 -0.5622
   13MOL   H411 6435   5.840   6.597   7.364 -0.3727 -0.5568 -0.2611
   13MOL   H412 6436   6.008   6.561   7.379  0.7315 -1.0368 -0.9000
   13MOL   H413 6437   5.841   6.415   7.574 -0.0858  0.0511  1.1882
   13MOL   H414 6438   5.678   6.566   7.696 -0.8898 -1.4619 -1.5548
   13MOL   H415 6439   5.696   6.627   7.528  0.6762  0.7678 -0.7039
   13MOL   H416 6440   5.604   6.794   7.684  0.2499 -2.0632  1.0858
   13MOL   H417 6441   5.740   6.843   7.582  0.7940 -1.7423 -0.5088
   13MOL   H418 6442   5.781   6.746   0.090  1.1131  0.4063  0.2115
   13MOL   H419 6443   5.900   6.826   7.769  0.0202  2.1453  1.5630
   13MOL   H420 6444   5.757   7.032   7.761  1.6414  0.1279 -0.5783
   13MOL   H421 6445   5.644   6.943   0.079  0.3253  0.3637 -0.9615
   13MOL   H422 6446   5.829   6.929   0.264 -0.8819  0.6352  1.2471
   13MOL   H423 6447   5.940   7.028   0.155 -0.5193  1.8783 -0.1411
   13MOL   H424 6448   5.690   7.109   0.322  2.3566 -0.7622  1.6975
   13MOL   H425 6449   5.841   7.183   0.317 -2.1846  1.1466  1.0123
   13MOL   H426 6450   5.722   7.204   0.184  1.0382  0.8728  0.2928
   13MOL   C427 6451   6.053   6.447   7.605  0.1691 -0.1021  0.2846
   13MOL   C428 6452   6.055   6.397   7.752 -0.9628 -0.1575  0.0126
   13MOL   O429 6453   6.022   6.254   7.757 -0.2861  0.3953 -0.3016
   13MOL   C430 6454   5.907   6.222   0.057  0.1395 -0.3203 -0.7193
   13MOL   C431 6455   5.903   6.079   0.102  0.4429  0.1635  0.1495
   13MOL   C432 6456   6.001   6.043   0.215 -0.0728  0.1164 -0.2891
   13MOL   C433 6457   5.999   5.896   0.253  0.0706 -0.4810 -0.9008
   13MOL   C434 6458   6.107   5.853   0.350  0.3183  0.3388 -0.1877
   13MOL   C435 6459   6.106   5.696   0.364  0.0629 -0.1938  0.4764
   13MOL   H436 6460   6.093   6.368   7.541  0.5394  0.6085 -0.3695
   13MOL   H437 6461   6.120   6.533   7.596  0.4893 -0.3692  0.0905
   13MOL   H438 6462   5.993   6.466   0.033  0.3865 -1.1086  2.6833
   13MOL   H439 6463   5.813   6.242   0.006 -1.0862  0.7220  1.8390
   13MOL   H440 6464   5.895   6.284   0.146  2.1029  0.8069 -1.2177
   13MOL   H441 6465   5.908   6.015   0.015  0.6762 -1.4167  1.3044
   13MOL   H442 6466   5.805   6.060   0.146  1.3017 -1.5702  1.3735
   13MOL   H443 6467   6.098   6.086   0.191 -0.1798  1.4476  1.5339
   13MOL   H444 6468   5.968   6.105   0.298  2.5594  0.9924  0.1576
   13MOL   H445 6469   5.905   5.880   0.305 -0.4477  1.8480 -1.0675
   13MOL   H446 6470   6.003   5.843   0.157 -1.1934 -1.6763 -0.3110
   13MOL   H447 6471   6.202   5.889   0.310 -0.7045  0.7346 -2.2809
   13MOL   H448 6472   6.082   5.901   0.444 -0.7930 -1.1260  0.2769
   13MOL   H449 6473   6.007   5.665   0.398  0.8419 -0.9608  2.0921
   13MOL   H450 6474   6.124   5.646   0.269 -2.4131 -2.9180  1.3865
   13MOL   H451 6475   6.176   5.644   0.430  0.1823 -0.1353  0.3949
   13MOL   C452 6476   6.193   6.398   0.043 -0.3190  0.1074 -0.7497
   13MOL   C453 6477   6.265   6.536   0.056 -0.4092 -0.1553  0.4139
   13MOL   O454 6478   6.373   6.490   0.129  0.0777 -0.6029  0.7448
   13MOL   C455 6479   6.499   6.530   0.080  0.3213  0.4161  0.2923
   13MOL   C456 6480   6.603   6.467   0.180  0.2500  0.5713 -0.4750
   13MOL   C457 6481   6.594   6.318   0.189 -0.1645 -0.3222 -0.5300
   13MOL   C458 6482   6.677   6.259   0.305  0.2785 -0.9668  0.0948
   13MOL   C459 6483   6.713   6.117   0.283 -0.0119 -0.9738 -0.3919
   13MOL   C460 6484   6.793   6.059   0.392 -0.3855 -0.0234 -0.0741
   13MOL   H461 6485   6.182   6.366   0.147  2.9972  3.5422  0.7933
   13MOL   H462 6486   6.262   6.329   7.771  0.2255 -1.5489  2.2133
   13MOL   H463 6487   6.282   6.573   7.732 -0.5857  0.2674  0.5375
   13MOL   H464 6488   6.497   6.639   0.081 -1.8426  0.4297 -0.8612
   13MOL   H465 6489   6.519   6.507   7.752 -0.7734 -0.7186  0.3139
   13MOL   H466 6490   6.583   6.499   0.282 -0.5640 -1.1025 -0.1076
   13MOL   H467 6491   6.705   6.491   0.147  0.3949  0.4789 -0.0943
   13MOL   H468 6492   6.489   6.292   0.204 -0.5277  2.4312  2.0165
   13MOL   H469 6493   6.608   6.273   0.091  0.6401 -3.0919  0.7797
   13MOL   H470 6494   6.776   6.305   0.312 -0.6022  0.9218  0.6035
   13MOL   H471 6495   6.625   6.271   0.400  1.1367 -0.3263  0.4864
   13MOL   H472 6496   6.619   6.061   0.272 -0.0012 -1.2934  1.0169
   13MOL   H473 6497   6.768   6.102   0.190 -0.3862  0.9359 -0.9426
   13MOL   H474 6498   6.887   6.114   0.390 -0.2044 -0.3154  0.3282
   13MOL   H475 6499   6.744   6.066   0.489 -0.3383  1.2903 -0.1366
   13MOL   H476 6500   6.824   5.956   0.371  0.0034  0.2353 -0.7932
   13MOL   C477 6501   6.201   6.644   0.147 -0.4241 -0.3786  1.1898
   13MOL   C478 6502   6.147   6.585   0.277  0.1370 -0.2900  0.2000
   13MOL   O479 6503   6.087   6.689   0.351 -0.2707  0.5011 -0.3014
   13MOL   C480 6504   6.023   6.635   0.471  0.5144 -0.1463 -0.7214
   13MOL   C481 6505   5.959   6.762   0.546 -0.1726  0.6709 -0.1987
   13MOL   C482 6506   5.908   6.741   0.689  0.5274 -0.5135  0.0200
   13MOL   C483 6507   5.800   6.847   0.721 -0.0965 -0.1454  0.1397
   13MOL   C484 6508   5.754   6.837   0.872  0.0542 -0.4218 -0.5581
   13MOL   C485 6509   5.868   6.850   0.967 -0.3758  0.4792  0.5355
   13MOL   H486 6510   6.251   6.739   0.166 -2.0711  1.0727 -1.5155
   13MOL   H487 6511   6.117   6.675   0.085  1.9588  2.2559 -0.7929
   13MOL   H488 6512   6.074   6.507   0.255 -0.3920  0.4834 -0.8439
   13MOL   H489 6513   6.103   6.588   0.529 -0.1633  1.2363  1.3736
   13MOL   H490 6514   5.952   6.558   0.439 -1.0809  1.7773 -1.8873
   13MOL   H491 6515   5.879   6.800   0.482 -2.3378 -1.8600  0.9476
   13MOL   H492 6516   6.042   6.833   0.549  1.7667 -1.4937 -1.0895
   13MOL   H493 6517   5.855   6.646   0.696  1.1942 -0.9998 -1.3328
   13MOL   H494 6518   5.990   6.751   0.760 -0.0813 -0.3308  0.7107
   13MOL   H495 6519   5.841   6.948   0.709 -0.5828  0.4093  2.6944
   13MOL   H496 6520   5.711   6.843   0.658  0.4112 -0.1152 -0.5876
   13MOL   H497 6521   5.689   6.920   0.898 -0.3987 -0.9495 -0.0046
   13MOL   H498 6522   5.700   6.744   0.887  0.9616 -0.6205  1.6414
   13MOL   H499 6523   5.932   6.762   0.971  0.3028  0.9024 -0.4730
   13MOL   H500 6524   5.929   6.939   0.950  1.7140 -0.9133  0.4842
   13MOL   H501 6525   5.831   6.854   1.069 -0.1163  2.5068  0.5768
   13MOL   H502 6526   6.224   6.533   0.334  1.1516  1.7134  0.6677
   14MOL     C1 6527   6.702   3.000   6.639 -0.1107 -0.8857 -0.9235
   14MOL     C2 6528   6.615   2.895   6.694  0.4782 -0.5958  0.6465
   14MOL     O3 6529   6.620   2.899   6.835 -0.1381 -0.4026  0.0919
   14MOL     C4 6530   6.532   2.977   6.908  0.3456 -0.5612 -0.4519
   14MOL     C5 6531   6.592   2.983   7.043 -0.9151  0.2248  0.8047
   14MOL     C6 6532   6.503   3.064   7.138 -0.4133  0.8028  0.3510
   14MOL     C7 6533   6.569   3.066   7.274  0.4879  0.2940  0.2587
   14MOL     C8 6534   6.467   3.131   7.370 -0.2578 -0.2524  0.1451
   14MOL     C9 6535   6.502   3.116   7.517 -0.1597 -0.2409 -0.1330
   14MOL    H10 6536   6.805   2.988   6.673  0.0320 -0.5631 -1.2361
   14MOL    H11 6537   6.719   3.000   6.531  1.5664 -1.6710 -0.6721
   14MOL    H12 6538   6.513   2.911   6.657  0.0337 -2.3321  1.0681
   14MOL    H13 6539   6.430   2.941   6.895 -1.4309  2.8596  2.9045
   14MOL    H14 6540   6.523   3.070   6.852 -1.2889 -0.6818 -0.4157
   14MOL    H15 6541   6.690   3.033   7.040 -0.6240 -0.3950 -0.2945
   14MOL    H16 6542   6.614   2.881   7.073  0.1707  0.8702  2.2635
   14MOL    H17 6543   6.484   3.163   7.097 -0.6691  1.8413  2.8665
   14MOL    H18 6544   6.416   2.998   7.134  0.4300 -0.2235 -2.1555
   14MOL    H19 6545   6.592   2.965   7.307 -0.6437 -0.0023  0.1914
   14MOL    H20 6546   6.662   3.121   7.262  1.4114 -0.8810  1.8835
   14MOL    H21 6547   6.368   3.091   7.349 -1.0958  1.6011  0.5107
   14MOL    H22 6548   6.467   3.235   7.338 -1.2118 -0.3491 -0.1640
   14MOL    H23 6549   6.601   3.151   7.545 -0.8666  0.9762  0.8895
   14MOL    H24 6550   6.419   3.165   7.568  0.8929  1.8086 -0.3240
   14MOL    H25 6551   6.521   3.012   7.542  1.2817 -0.3378 -1.5041
   14MOL    H26 6552   6.677   3.098   6.679  3.0101  0.5533 -2.2755
   14MOL    C27 6553   6.663   2.751   6.648 -0.2430 -0.4292 -0.0243
   14MOL    C28 6554   6.585   2.628   6.704 -0.9916  0.0159  0.1866
   14MOL    O29 6555   6.482   2.609   6.618 -0.2235  0.4957  0.5319
   14MOL    C30 6556   6.353   2.613   6.674 -0.5649 -0.1719 -0.6451
   14MOL    C31 6557   6.254   2.618   6.551  0.3462  0.1786  0.2871
   14MOL    C32 6558   6.276   2.733   6.445 -0.0073 -0.5154  0.1150
   14MOL    C33 6559   6.173   2.744   6.334  0.1564  0.2191 -0.0018
   14MOL    C34 6560   6.197   2.839   6.223  0.7884 -0.0141 -0.0690
   14MOL    C35 6561   6.315   2.785   6.139  0.2298  0.1226  0.7490
   14MOL    H36 6562   6.658   2.750   6.539 -1.5731 -2.7497  0.0206
   14MOL    H37 6563   6.768   2.738   6.673 -0.3079  0.9456  0.9922
   14MOL    H38 6564   6.553   2.668   6.800  0.0291  1.9328 -0.2495
   14MOL    H39 6565   6.340   2.698   6.740  3.0386 -2.5770  3.3972
   14MOL    H40 6566   6.328   2.528   6.738  0.7655 -0.3399 -0.3520
   14MOL    H41 6567   6.152   2.616   6.590  0.7630  1.3742  1.4807
   14MOL    H42 6568   6.252   2.524   6.495 -0.7871  0.2525  0.1764
   14MOL    H43 6569   6.273   2.833   6.488 -0.2805 -0.2293 -0.5692
   14MOL    H44 6570   6.379   2.717   6.413 -0.3836 -0.4297 -1.1509
   14MOL    H45 6571   6.156   2.645   6.292 -0.9901  0.8280 -1.0150
   14MOL    H46 6572   6.076   2.768   6.378 -1.6516 -1.7291 -2.7673
   14MOL    H47 6573   6.108   2.841   6.162  0.8919  1.0349 -0.1916
   14MOL    H48 6574   6.223   2.939   6.258  0.0339 -0.3664  1.5441
   14MOL    H49 6575   6.315   2.828   6.039 -3.7813 -1.9826 -0.2774
   14MOL    H50 6576   6.409   2.810   6.188  0.1778  0.9685  0.4130
   14MOL    H51 6577   6.305   2.677   6.124 -1.4551 -0.1204  3.3222
   14MOL    C52 6578   6.657   2.487   6.711  0.4665 -0.1837 -0.1692
   14MOL    C53 6579   6.765   2.478   6.823 -0.0252  0.3081  0.0074
   14MOL    O54 6580   6.692   2.502   6.944  0.3522 -0.0491 -0.2548
   14MOL    C55 6581   6.764   2.574   7.042  0.1270 -0.4819 -0.0801
   14MOL    C56 6582   6.677   2.573   7.176 -0.8524 -0.1783  0.5126
   14MOL    C57 6583   6.750   2.661   7.289 -0.1116  0.3022  0.0871
   14MOL    C58 6584   6.670   2.690   7.413  0.8108  0.0196 -0.0401
   14MOL    C59 6585   6.739   2.736   7.544  0.6080  0.6358  0.1427
   14MOL    C60 6586   6.792   2.880   7.535  0.8570  0.4080 -0.3559
   14MOL    H61 6587   6.696   2.462   6.612  0.7569  0.8696 -0.3339
   14MOL    H62 6588   6.579   2.414   6.730  2.5131 -2.2605  0.4255
   14MOL    H63 6589   6.848   2.546   6.806 -0.4638  1.7450  3.1415
   14MOL    H64 6590   6.781   2.675   7.003 -0.3319 -0.0607  0.7847
   14MOL    H65 6591   6.861   2.529   7.063  0.0431  0.4897  2.6923
   14MOL    H66 6592   6.656   2.469   7.202 -0.2866 -0.7486 -1.1799
   14MOL    H67 6593   6.584   2.623   7.150 -1.2042 -1.0157  0.1340
   14MOL    H68 6594   6.840   2.605   7.314  0.8292  2.0104  0.6127
   14MOL    H69 6595   6.798   2.752   7.252 -1.7469  1.4634  0.7819
   14MOL    H70 6596   6.603   2.773   7.388  2.2488  1.5669  1.1061
   14MOL    H71 6597   6.618   2.597   7.438  2.7148 -0.5694  1.8644
   14MOL    H72 6598   6.682   2.720   7.636  0.7135  1.0061  0.2721
   14MOL    H73 6599   6.819   2.664   7.563 -1.4169 -1.6954 -0.0572
   14MOL    H74 6600   6.716   2.957   7.526 -1.7634 -1.8778  1.3345
   14MOL    H75 6601   6.855   2.908   7.620  0.0615  2.8746 -0.5457
   14MOL    H76 6602   6.847   2.881   7.441 -0.1483  0.7144 -0.9375
   14MOL    C77 6603   6.815   2.328   6.837  0.0743 -0.2798  0.1661
   14MOL    C78 6604   6.926   2.285   6.733 -0.3223 -0.6723  0.1363
   14MOL    O79 6605   6.853   2.249   6.617 -0.3548  0.3886 -0.6729
   14MOL    C80 6606   6.919   2.260   6.494 -0.0020  0.3522  0.2396
   14MOL    C81 6607   6.817   2.222   6.387 -0.8088  0.0379 -0.7638
   14MOL    C82 6608   6.881   2.201   6.245  0.8807  0.0623  0.7041
   14MOL    C83 6609   6.797   2.099   6.164  0.6453 -0.4461 -0.2043
   14MOL    C84 6610   6.835   2.091   6.018  0.3392  0.2103 -0.2121
   14MOL    C85 6611   6.757   1.998   5.922  0.3231 -0.3460 -0.1959
   14MOL    H86 6612   6.731   2.259   6.827 -0.0311 -0.1048 -0.1857
   14MOL    H87 6613   6.852   2.307   6.937 -3.3999  1.5766  1.9267
   14MOL    H88 6614   6.986   2.374   6.717 -0.0002 -1.1042 -1.0870
   14MOL    H89 6615   7.002   2.189   6.493  0.8300  1.0933  5.0939
   14MOL    H90 6616   6.943   2.365   6.475 -1.6473  0.7899  0.5031
   14MOL    H91 6617   6.740   2.299   6.384 -1.1217 -0.2997 -1.5066
   14MOL    H92 6618   6.772   2.129   6.422 -0.3691  0.9276  2.2605
   14MOL    H93 6619   6.898   2.300   6.202  2.0678 -0.4073  0.0610
   14MOL    H94 6620   6.982   2.161   6.252  2.0146  3.1582  3.1374
   14MOL    H95 6621   6.793   2.006   6.220  1.2995  0.2230  0.9796
   14MOL    H96 6622   6.690   2.123   6.164  0.8662  0.7100  1.7661
   14MOL    H97 6623   6.818   2.192   5.981 -0.4787 -0.2521 -1.1173
   14MOL    H98 6624   6.942   2.071   6.008  0.1673  0.0763 -1.8051
   14MOL    H99 6625   6.652   2.027   5.923  0.7900  1.4665 -0.8085
   14MOL   H100 6626   6.802   2.003   5.823 -0.9559  0.2654 -0.7481
   14MOL   H101 6627   6.764   1.892   5.945  1.9628 -0.1804  0.1559
   14MOL   C102 6628   7.024   2.168   6.767  0.2130 -0.7868 -0.0100
   14MOL   C103 6629   7.091   2.172   6.906  0.5862 -0.1852 -0.2742
   14MOL   O104 6630   7.138   2.300   6.944 -0.3366  0.0432 -0.4101
   14MOL   C105 6631   7.245   2.345   6.875 -0.2870  0.4581 -0.1312
   14MOL   C106 6632   7.268   2.497   6.884  0.2101  0.4927  0.0651
   14MOL   C107 6633   7.155   2.589   6.825  0.1364  0.0326 -0.7251
   14MOL   C108 6634   7.177   2.625   6.678 -0.2351 -0.0805 -0.3488
   14MOL   C109 6635   7.087   2.745   6.648 -0.0523 -0.2906 -0.0825
   14MOL   C110 6636   7.052   2.755   6.501  0.2417 -0.8177  0.9959
   14MOL   H111 6637   6.976   2.072   6.745 -2.6796  0.5318  0.4240
   14MOL   H112 6638   7.101   2.180   6.690  1.3557 -1.5084  1.0012
   14MOL   H113 6639   7.181   2.113   6.890  0.3583 -0.9289  1.1753
   14MOL   H114 6640   7.237   2.329   6.767  2.9071  1.1220 -0.5197
   14MOL   H115 6641   7.342   2.298   6.890 -1.0438 -0.7731  0.9627
   14MOL   H116 6642   7.355   2.518   6.823 -1.0084  0.9758 -1.5353
   14MOL   H117 6643   7.296   2.526   6.986 -0.9990 -1.5576  1.0152
   14MOL   H118 6644   7.058   2.542   6.839  0.7781 -1.7140 -1.9645
   14MOL   H119 6645   7.151   2.684   6.879 -0.4869  0.6907 -1.9242
   14MOL   H120 6646   7.283   2.632   6.654 -0.4831  2.4682 -0.7685
   14MOL   H121 6647   7.140   2.542   6.617 -0.0107 -0.2233 -0.2897
   14MOL   H122 6648   6.994   2.731   6.702 -0.6071 -0.3906 -1.0482
   14MOL   H123 6649   7.139   2.833   6.686 -2.8096  0.8713  1.1348
   14MOL   H124 6650   7.132   2.784   6.433 -0.3524  1.4580  1.2426
   14MOL   H125 6651   7.004   2.666   6.461  0.9445 -0.7696  0.0302
   14MOL   H126 6652   6.978   2.835   6.505  0.7728 -0.3262  1.0732
   14MOL   C127 6653   7.019   2.110   7.026  0.3658  0.5768  0.2079
   14MOL   C128 6654   6.915   1.994   7.004 -0.0933 -0.0170  0.8972
   14MOL   O129 6655   6.841   1.974   7.122 -0.1491  0.0798  0.6344
   14MOL   C130 6656   6.731   2.062   7.143 -0.2269 -0.3866  0.2699
   14MOL   C131 6657   6.609   2.025   7.053 -1.3586 -0.9519 -0.1931
   14MOL   C132 6658   6.508   2.134   7.042 -0.6551  0.5118 -0.4927
   14MOL   C133 6659   6.369   2.098   6.982 -0.2272 -0.0825 -0.0656
   14MOL   C134 6660   6.309   2.214   6.896  0.1988 -0.4698 -0.0401
   14MOL   C135 6661   6.286   2.346   6.970  0.2491 -0.6154 -1.1817
   14MOL   H136 6662   7.095   2.076   7.096  1.2482 -0.5936 -1.2567
   14MOL   H137 6663   6.963   2.187   7.078 -0.3628  0.9456 -1.0965
   14MOL   H138 6664   6.846   2.020   6.923 -1.2313  1.1973  2.2272
   14MOL   H139 6665   6.747   2.170   7.147 -0.2388 -0.3821  0.1968
   14MOL   H140 6666   6.703   2.044   7.247  2.8351  0.5267  1.3112
   14MOL   H141 6667   6.558   1.946   7.108  0.5508 -2.0297  0.0735
   14MOL   H142 6668   6.645   1.988   6.957  1.7307 -0.8394  0.8731
   14MOL   H143 6669   6.478   2.168   7.141  0.7634 -0.3388  0.2435
   14MOL   H144 6670   6.545   2.217   6.981  1.1857 -0.9057 -1.3382
   14MOL   H145 6671   6.389   2.006   6.926  1.6274 -0.4156  1.1039
   14MOL   H146 6672   6.304   2.059   7.060 -0.4066  0.8949  0.2798
   14MOL   H147 6673   6.378   2.249   6.820  1.5402 -0.3212  1.2256
   14MOL   H148 6674   6.219   2.185   6.842 -0.6033  0.0428  1.0035
   14MOL   H149 6675   6.370   2.390   7.024 -1.9526  1.4844  0.6228
   14MOL   H150 6676   6.253   2.427   6.905  0.6979 -1.2866 -2.2564
   14MOL   H151 6677   6.205   2.333   7.042  1.8673  1.2336  1.0350
   14MOL   C152 6678   6.979   1.855   6.964 -0.1952  0.3316  0.7179
   14MOL   C153 6679   6.891   1.756   6.885  0.6171  0.2836 -0.0514
   14MOL   O154 6680   6.832   1.824   6.779 -0.1529  0.2650 -0.1529
   14MOL   C155 6681   6.693   1.787   6.755 -0.4721 -0.1508 -0.4842
   14MOL   C156 6682   6.646   1.898   6.665  0.0293  0.0494  0.2017
   14MOL   C157 6683   6.513   1.882   6.596 -0.0281  0.3035  0.2106
   14MOL   C158 6684   6.480   1.983   6.487 -0.2569 -0.1159 -0.0832
   14MOL   C159 6685   6.467   2.126   6.545 -0.3134  0.1244  0.2890
   14MOL   C160 6686   6.407   2.230   6.449  0.1459 -1.1361  0.9422
   14MOL   H161 6687   7.053   1.880   6.888 -2.0975  2.2221 -0.5872
   14MOL   H162 6688   7.030   1.805   7.046  1.8859 -0.7149 -1.1416
   14MOL   H163 6689   6.808   1.731   6.951 -0.9170 -0.0205 -2.0543
   14MOL   H164 6690   6.634   1.790   6.846  1.2631  1.2445  0.6315
   14MOL   H165 6691   6.684   1.692   6.703  1.6040  0.0722 -1.3316
   14MOL   H166 6692   6.718   1.912   6.585 -0.2557  2.9321  0.3827
   14MOL   H167 6693   6.652   1.988   6.727 -0.7959 -0.1048  0.5229
   14MOL   H168 6694   6.503   1.786   6.545 -1.0840  0.2150  0.5700
   14MOL   H169 6695   6.432   1.872   6.669 -1.1621 -0.6121 -1.1355
   14MOL   H170 6696   6.554   1.971   6.408  1.0064 -0.4736  1.1202
   14MOL   H171 6697   6.393   1.955   6.429  0.0611 -2.9454  0.6961
   14MOL   H172 6698   6.402   2.112   6.631 -0.4448 -0.3619  0.1135
   14MOL   H173 6699   6.562   2.152   6.592  0.0502  0.7492 -0.7763
   14MOL   H174 6700   6.487   2.252   6.379  1.2480 -1.4513  2.0955
   14MOL   H175 6701   6.312   2.193   6.409  0.9783  0.2061 -2.4758
   14MOL   H176 6702   6.375   2.315   6.509 -0.9448  0.3872 -1.6805
   14MOL   C177 6703   6.964   1.633   6.818 -0.0547 -0.6551 -0.0703
   14MOL   C178 6704   7.028   1.536   6.910 -0.6130 -0.0186  0.5424
   14MOL   O179 6705   6.948   1.421   6.915  0.3538  0.7088  0.2537
   14MOL   C180 6706   6.851   1.419   7.024 -0.0002  0.0804 -0.0634
   14MOL   C181 6707   6.755   1.305   6.991 -0.1691 -0.3856  0.1584
   14MOL   C182 6708   6.665   1.341   6.875 -0.0362  0.3619  0.3700
   14MOL   C183 6709   6.586   1.225   6.824  0.9949  0.4111 -0.6338
   14MOL   C184 6710   6.673   1.136   6.740  0.5669  0.7672  0.7574
   14MOL   C185 6711   6.606   1.006   6.702 -0.5433 -0.0309 -0.0189
   14MOL   H186 6712   6.895   1.581   6.752 -2.5126  1.1447  0.9892
   14MOL   H187 6713   7.041   1.685   6.760  1.6053  1.0139  3.4141
   14MOL   H188 6714   7.048   1.581   7.008  1.4361  0.5432 -0.0968
   14MOL   H189 6715   6.796   1.513   7.015 -0.8637 -0.1010  2.8242
   14MOL   H190 6716   6.903   1.408   7.119  1.6084  0.9434 -0.8300
   14MOL   H191 6717   6.693   1.277   7.077 -0.4968 -0.9122 -0.2475
   14MOL   H192 6718   6.814   1.214   6.981 -1.2830 -1.0142 -0.8260
   14MOL   H193 6719   6.585   1.410   6.902  0.1617  1.3874 -1.6045
   14MOL   H194 6720   6.718   1.392   6.796 -1.7814 -0.4370 -1.3487
   14MOL   H195 6721   6.533   1.166   6.899  4.2697 -2.5625 -0.5381
   14MOL   H196 6722   6.501   1.260   6.766 -0.6141 -2.5189 -0.1617
   14MOL   H197 6723   6.697   1.181   6.643  1.9327 -1.7953 -0.1400
   14MOL   H198 6724   6.770   1.108   6.782  0.5833 -0.0338  0.1965
   14MOL   H199 6725   6.516   1.025   6.643 -1.2391  0.0773  1.0432
   14MOL   H200 6726   6.666   0.942   6.638  0.7925  0.3479  0.8478
   14MOL   H201 6727   6.588   0.938   6.785 -0.3866  0.3554  0.3341
   14MOL   C202 6728   7.167   1.481   6.857  0.4943 -0.7130  0.0999
   14MOL   C203 6729   7.239   1.393   6.960  0.1575  0.3649 -0.1452
   14MOL   O204 6730   7.236   1.468   7.089  0.4137  0.4662  0.2112
   14MOL   C205 6731   7.223   1.383   7.197  0.4638 -0.3836  0.0379
   14MOL   C206 6732   7.256   1.456   7.334  0.3863 -0.4641  0.1969
   14MOL   C207 6733   7.306   1.357   7.439  0.6668  0.4796  0.6247
   14MOL   C208 6734   7.360   1.424   7.561  0.4590 -0.2315  0.0630
   14MOL   C209 6735   7.403   1.318   7.668 -0.7374  0.7109 -0.0522
   14MOL   C210 6736   7.540   1.262   7.645 -0.3652 -0.3716 -0.5842
   14MOL   H211 6737   7.150   1.425   6.765 -2.0648 -1.6203  1.0839
   14MOL   H212 6738   7.239   1.562   6.841  1.1405 -1.4848 -0.9877
   14MOL   H213 6739   7.200   1.291   6.960 -0.0661  0.4492  1.2366
   14MOL   H214 6740   7.304   1.313   7.178 -0.2225 -0.4992 -2.6186
   14MOL   H215 6741   7.125   1.335   7.188 -0.7505  2.1419 -0.6803
   14MOL   H216 6742   7.170   1.515   7.365  1.2932  0.8128  0.2923
   14MOL   H217 6743   7.340   1.520   7.308  0.1244 -0.2227 -0.0668
   14MOL   H218 6744   7.210   1.309   7.460  0.7190  0.0081 -0.2157
   14MOL   H219 6745   7.373   1.281   7.399 -0.1857  0.3091 -0.5250
   14MOL   H220 6746   7.450   1.485   7.549  0.9713 -0.9206  0.3216
   14MOL   H221 6747   7.287   1.492   7.604  1.3987  0.5848  0.3874
   14MOL   H222 6748   7.407   1.360   7.769  1.8420  3.4133 -1.1924
   14MOL   H223 6749   7.325   1.243   7.679  0.4360 -0.6113 -0.6271
   14MOL   H224 6750   7.547   1.181   7.572  0.7403 -0.3954 -0.4675
   14MOL   H225 6751   7.624   1.331   7.634  0.8434 -1.3910  1.8173
   14MOL   H226 6752   7.565   1.211   7.738  0.2416  0.7141 -0.1445
   14MOL   C227 6753   7.390   1.381   6.920 -0.7893  0.0948  0.6054
   14MOL   C228 6754   7.430   1.322   6.777  1.0328  0.2689 -0.6020
   14MOL   O229 6755   7.575   1.313   6.766  0.1330 -0.3304  0.1880
   14MOL   C230 6756   7.640   1.431   6.745 -1.1501  0.0850 -0.1929
   14MOL   C231 6757   0.020   1.399   6.740 -0.3626  0.4141  0.7438
   14MOL   C232 6758   0.079   1.404   6.878  0.5150  0.1708 -0.3630
   14MOL   C233 6759   0.229   1.356   6.883  0.3004  0.6440 -0.2943
   14MOL   C234 6760   0.288   1.384   7.026 -0.3032 -0.6854 -0.5750
   14MOL   C235 6761   0.440   1.384   7.025 -0.2295 -0.2507 -0.0005
   14MOL   H236 6762   7.437   1.478   6.914 -0.5906 -0.0850 -1.2150
   14MOL   H237 6763   7.435   1.334   7.008 -0.5370 -2.6662 -0.9360
   14MOL   H238 6764   7.409   1.382   6.689 -0.5146 -0.6674 -0.8867
   14MOL   H239 6765   7.627   1.507   6.822 -2.5014  0.4951 -0.7944
   14MOL   H240 6766   7.613   1.482   6.652 -0.4476  0.4919 -0.1764
   14MOL   H241 6767   0.076   1.454   6.664 -0.9598 -2.2487 -1.7427
   14MOL   H242 6768   0.046   1.299   6.705  1.5158  0.3561  2.2098
   14MOL   H243 6769   0.083   1.501   6.926  2.7770 -0.9061  1.7526
   14MOL   H244 6770   0.003   1.347   6.931  1.7390 -0.0274  1.2163
   14MOL   H245 6771   0.242   1.257   6.840 -0.6454  0.6107 -0.5025
   14MOL   H246 6772   0.282   1.420   6.812 -0.5592 -1.7290 -3.1487
   14MOL   H247 6773   0.249   1.478   7.065  0.8729 -1.8261  3.6586
   14MOL   H248 6774   0.262   1.314   7.105 -0.0282  1.6442  1.6479
   14MOL   H249 6775   0.487   1.386   7.124 -0.9548  0.0487  0.3440
   14MOL   H250 6776   0.464   1.290   6.975  0.1596  0.6932 -1.5864
   14MOL   H251 6777   0.488   1.458   6.962 -0.5435 -1.4526 -1.6669
   14MOL   C252 6778   7.383   1.176   6.760  0.1750 -0.9713 -0.5524
   14MOL   C253 6779   7.394   1.124   6.615  0.1914  0.1482  1.0514
   14MOL   O254 6780   7.282   1.185   6.561  0.0588  0.4778  0.4262
   14MOL   C255 6781   7.295   1.200   6.423  0.0232  0.4614  0.0043
   14MOL   C256 6782   7.156   1.262   6.372 -0.3680 -0.1798 -0.1516
   14MOL   C257 6783   7.139   1.410   6.410 -0.9032  0.0973 -0.3058
   14MOL   C258 6784   7.005   1.473   6.386 -0.8025 -0.0173  0.0677
   14MOL   C259 6785   7.012   1.630   6.417 -0.7016 -0.8652  0.4045
   14MOL   C260 6786   6.889   1.701   6.355  0.0261 -0.0266 -0.0872
   14MOL   H261 6787   7.443   1.113   6.826  1.0587 -0.3307 -0.7380
   14MOL   H262 6788   7.282   1.158   6.796  0.1786 -0.6180 -0.3622
   14MOL   H263 6789   7.486   1.159   6.569 -0.9787 -0.1110 -1.5456
   14MOL   H264 6790   7.313   1.104   6.375 -0.1983  0.2051  0.4316
   14MOL   H265 6791   7.380   1.265   6.400  0.7251 -0.3574  0.2294
   14MOL   H266 6792   7.075   1.205   6.418 -0.3640 -0.2990 -0.2920
   14MOL   H267 6793   7.150   1.250   6.264  1.0670 -0.0234 -0.2527
   14MOL   H268 6794   7.170   1.426   6.514 -0.2550  1.5479 -0.7097
   14MOL   H269 6795   7.204   1.482   6.361  0.6939 -1.0588  0.0798
   14MOL   H270 6796   6.979   1.449   6.283 -0.3224  0.1539 -0.0979
   14MOL   H271 6797   6.920   1.438   6.444 -0.7918  2.0232  1.3621
   14MOL   H272 6798   7.001   1.645   6.524 -0.3755 -0.2368  0.3504
   14MOL   H273 6799   7.105   1.673   6.382 -1.5080  0.6734  0.0848
   14MOL   H274 6800   6.901   1.685   6.248 -0.6103  0.4010 -0.2210
   14MOL   H275 6801   6.794   1.659   6.385 -0.4328  0.0891 -1.3633
   14MOL   H276 6802   6.896   1.809   6.366 -0.7290  0.0305 -0.1872
   14MOL   C277 6803   7.374   0.966   6.614 -0.2739 -0.2064  1.0446
   14MOL   C278 6804   7.514   0.897   6.599  0.3653  0.7480  0.8773
   14MOL   O279 6805   7.604   0.934   6.700  0.4262  0.3662  0.6801
   14MOL   C280 6806   7.740   0.960   6.663 -0.1204 -0.2184  0.6403
   14MOL   C281 6807   0.032   0.998   6.794  0.1196 -0.1933 -0.3529
   14MOL   C282 6808   0.091   0.880   6.884 -0.6748 -0.1769 -0.2398
   14MOL   C283 6809   0.149   0.913   7.023  0.3013 -0.5047 -0.0971
   14MOL   C284 6810   0.280   0.990   7.014  0.0705  0.2103  0.6255
   14MOL   C285 6811   0.338   1.026   7.146  0.4053 -0.0007  0.4791
   14MOL   H286 6812   7.327   0.940   6.709 -1.6738 -2.3683 -0.1633
   14MOL   H287 6813   7.301   0.933   6.539  0.4236 -0.6228  0.5461
   14MOL   H288 6814   7.535   0.946   6.503 -0.0893  0.3473  0.5690
   14MOL   H289 6815   7.762   1.039   6.592  0.0794  1.1710  2.2289
   14MOL   H290 6816   0.001   0.870   6.615 -3.5225 -0.3199 -2.0962
   14MOL   H291 6817   7.741   1.057   6.854  1.0211  1.6066 -1.0694
   14MOL   H292 6818   0.117   1.064   6.774  0.5873 -1.1781 -1.6608
   14MOL   H293 6819   0.006   0.813   6.900 -0.5861  0.1459  1.6492
   14MOL   H294 6820   0.161   0.819   6.827  1.8262  2.0567  0.3883
   14MOL   H295 6821   0.081   0.967   7.088  1.1046  0.8007 -0.3322
   14MOL   H296 6822   0.174   0.815   7.065  1.0792  0.8202  2.6407
   14MOL   H297 6823   0.349   0.929   6.955 -2.7356 -1.0336 -1.4544
   14MOL   H298 6824   0.268   1.082   6.958  1.2591 -0.7447 -1.2634
   14MOL   H299 6825   0.381   0.942   7.202  2.0114  0.6903  0.3059
   14MOL   H300 6826   0.417   1.099   7.131 -0.7994  1.2170 -0.0423
   14MOL   H301 6827   0.268   1.089   7.201 -0.6723  0.6156 -1.5884
   14MOL   C302 6828   7.511   0.746   6.598  0.6119 -0.1144  0.5896
   14MOL   C303 6829   7.464   0.698   6.450 -0.2975  0.6941  0.1781
   14MOL   O304 6830   7.333   0.744   6.424 -0.1867 -0.1374 -0.2755
   14MOL   C305 6831   7.285   0.759   6.283 -0.6681  0.1983 -0.9127
   14MOL   C306 6832   7.161   0.848   6.281  0.3450 -0.5702 -1.1684
   14MOL   C307 6833   7.043   0.808   6.369  0.2607 -0.0288  0.0266
   14MOL   C308 6834   6.950   0.924   6.405 -0.3145  0.6430  0.3750
   14MOL   C309 6835   6.878   0.981   6.289 -0.0948 -0.4358  0.0726
   14MOL   C310 6836   6.785   1.089   6.330  0.2893  0.4180  1.1073
   14MOL   H311 6837   7.612   0.709   6.618 -0.1050 -1.3087  2.0984
   14MOL   H312 6838   7.449   0.702   6.676 -0.0714  2.0002  1.2637
   14MOL   H313 6839   7.525   0.758   6.382  0.5633  1.0423  1.2386
   14MOL   H314 6840   7.245   0.664   6.249 -0.4893 -0.2847  0.1792
   14MOL   H315 6841   7.365   0.796   6.219  1.5082  1.4091  2.3808
   14MOL   H316 6842   7.122   0.852   6.179 -1.7264 -0.7713 -0.4172
   14MOL   H317 6843   7.195   0.951   6.287  1.3681 -0.9994  0.7542
   14MOL   H318 6844   6.982   0.732   6.321 -3.3275  1.4286  2.0362
   14MOL   H319 6845   7.077   0.763   6.462 -4.3063  0.6524  2.1793
   14MOL   H320 6846   6.876   0.870   6.464  0.2418 -2.7673 -1.9200
   14MOL   H321 6847   7.005   0.996   6.466  0.6141  2.5263 -2.5934
   14MOL   H322 6848   6.951   1.010   6.213 -1.3094  1.6736 -0.3219
   14MOL   H323 6849   6.811   0.906   6.248 -1.6937  1.5843 -1.1142
   14MOL   H324 6850   6.731   1.127   6.243  0.2591  2.1071  1.8514
   14MOL   H325 6851   6.712   1.065   6.407 -0.5095  1.4590  0.6758
   14MOL   H326 6852   6.842   1.173   6.369 -0.2207  1.5684 -0.5853
   14MOL   C327 6853   7.469   0.549   6.429  0.3519 -0.1264 -0.1373
   14MOL   C328 6854   7.615   0.494   6.423  0.1835 -0.3347 -0.1440
   14MOL   O329 6855   7.613   0.352   6.462  0.1401  0.2207 -0.2099
   14MOL   C330 6856   7.633   0.323   6.596 -0.7509  0.3132 -0.5953
   14MOL   C331 6857   7.654   0.169   6.617  0.5149 -0.5730  0.7627
   14MOL   C332 6858   7.767   0.114   6.520 -0.8776 -0.2554  0.0193
   14MOL   C333 6859   0.031   7.746   6.546  0.1728  0.1590  0.3665
   14MOL   C334 6860   0.118   7.673   6.443  0.0169 -0.4209 -0.2020
   14MOL   C335 6861   0.190   7.552   6.492 -0.3754  0.4151  0.0626
   14MOL   H336 6862   7.421   0.508   6.339 -0.8465 -1.0823  0.9264
   14MOL   H337 6863   7.417   0.511   6.517 -1.8111  0.2757 -1.1905
   14MOL   H338 6864   7.682   0.554   6.485  0.0974  1.1629 -1.4695
   14MOL   H339 6865   7.540   0.353   6.646  0.0464  1.8125  0.0223
   14MOL   H340 6866   7.717   0.385   6.629 -0.5927 -0.8337  1.2282
   14MOL   H341 6867   7.569   0.104   6.604  2.7406 -3.0487 -1.8767
   14MOL   H342 6868   7.682   0.162   6.722  0.9245  0.4339  0.7296
   14MOL   H343 6869   7.734   0.133   6.417  0.3573 -0.9903 -0.5173
   14MOL   H344 6870   0.069   0.183   6.550 -0.7069 -0.9105  1.0689
   14MOL   H345 6871   0.083   7.746   6.642  1.3434  0.7032 -0.2598
   14MOL   H346 6872   7.723   7.680   6.562 -0.3497  0.8039  0.2591
   14MOL   H347 6873   0.067   7.633   6.355  2.3472 -2.0866 -0.8321
   14MOL   H348 6874   0.198   7.740   6.410  0.4217 -1.0020 -0.4058
   14MOL   H349 6875   0.273   7.528   6.426  0.1941 -0.2806  1.0142
   14MOL   H350 6876   0.246   7.577   6.582  0.0398 -0.0569 -0.0586
   14MOL   H351 6877   0.127   7.464   6.507  0.4695 -0.5657 -1.9419
   14MOL   C352 6878   7.677   0.514   6.286 -0.6672  0.2096  0.0749
   14MOL   C353 6879   0.056   0.516   6.281 -0.4024  0.2417 -0.0475
   14MOL   O354 6880   0.109   0.603   6.384  0.0876  0.2676  0.0355
   14MOL   C355 6881   0.230   0.552   6.441  0.3514  0.9303 -0.1910
   14MOL   C356 6882   0.268   0.649   6.552  0.5456 -1.0399 -0.4354
   14MOL   C357 6883   0.365   0.767   6.502 -0.2959  1.2398 -0.4432
   14MOL   C358 6884   0.391   0.864   6.617  0.2624 -0.2767 -0.5605
   14MOL   C359 6885   0.514   0.956   6.593 -0.2346 -0.4120  0.5825
   14MOL   C360 6886   0.557   1.033   6.713 -1.3295 -0.7607 -0.5526
   14MOL   H361 6887   7.634   0.438   6.220 -1.1495  0.9660 -0.4839
   14MOL   H362 6888   7.643   0.608   6.244  0.5774  0.2283 -0.9273
   14MOL   H363 6889   0.078   0.412   6.307  1.3903  0.8596  1.0023
   14MOL   H364 6890   0.314   0.526   6.377  0.3733 -0.2561  0.3105
   14MOL   H365 6891   0.207   0.460   6.495  1.0121  0.6144 -0.4517
   14MOL   H366 6892   0.326   0.594   6.627  0.5329 -0.1618  0.2297
   14MOL   H367 6893   0.183   0.700   6.596  1.5274  2.3030 -2.2312
   14MOL   H368 6894   0.460   0.726   6.466 -0.8908  0.4021 -1.0834
   14MOL   H369 6895   0.324   0.815   6.414 -0.6777  1.3721 -0.1916
   14MOL   H370 6896   0.308   0.933   6.629  0.9824  0.0998  2.9753
   14MOL   H371 6897   0.406   0.811   6.711  0.5606 -0.4265 -0.6924
   14MOL   H372 6898   0.596   0.895   6.556 -1.1591 -0.2561 -1.7885
   14MOL   H373 6899   0.482   1.006   6.502 -0.3016  0.9917  1.3591
   14MOL   H374 6900   0.627   0.973   6.771  0.6516  1.0194 -1.0097
   14MOL   H375 6901   0.608   1.126   6.687  0.3617 -1.7036 -0.6905
   14MOL   H376 6902   0.470   1.054   6.775  0.2191  1.6873  0.9024
   14MOL   C377 6903   0.115   0.553   6.141 -0.1740 -0.2838 -0.1206
   14MOL   C378 6904   0.075   0.465   6.021 -0.2757  0.2734 -0.2742
   14MOL   O379 6905   0.130   0.333   6.054  0.0373 -0.0675  0.3742
   14MOL   C380 6906   0.091   0.228   5.967 -0.7620 -0.1795  0.3590
   14MOL   C381 6907   0.184   0.107   6.001 -0.1281 -0.0436  0.2016
   14MOL   C382 6908   0.130   7.753   5.941  0.1241 -0.2140 -0.5841
   14MOL   C383 6909   0.229   7.636   5.952 -0.6500  0.4375 -0.7771
   14MOL   C384 6910   0.259   7.591   6.104  0.0690  0.0419  0.0884
   14MOL   C385 6911   0.365   7.487   6.111 -0.6049 -0.0076 -0.3437
   14MOL   H386 6912   0.071   0.651   6.126  1.4497  0.3832 -0.5674
   14MOL   H387 6913   0.223   0.545   6.149 -0.1928  0.1374  0.5573
   14MOL   H388 6914   7.744   0.453   6.027 -0.0489 -0.8153  2.1448
   14MOL   H389 6915   0.102   0.249   5.861 -0.2400 -0.6301  0.3237
   14MOL   H390 6916   7.768   0.193   5.992 -1.7637  2.5212  0.3305
   14MOL   H391 6917   0.195   0.102   6.110 -0.1124 -2.3388  0.1242
   14MOL   H392 6918   0.287   0.126   5.971  0.4952 -0.0299  2.2650
   14MOL   H393 6919   0.034   7.724   5.984  0.8326 -0.8338  0.5994
   14MOL   H394 6920   0.109   7.769   5.835  1.1308 -1.2552 -0.9544
   14MOL   H395 6921   0.184   7.550   5.902 -1.3303  0.3989 -0.1090
   14MOL   H396 6922   0.322   7.668   5.906  0.0542 -1.9517 -1.0640
   14MOL   H397 6923   0.288   7.678   6.162  0.3408  0.1753 -0.2429
   14MOL   H398 6924   0.170   7.553   6.154  1.2962 -0.5366  1.8817
   14MOL   H399 6925   0.401   7.454   6.208  0.6865 -0.6720 -1.0423
   14MOL   H400 6926   0.323   7.396   6.068  0.5847 -1.3873  1.3699
   14MOL   H401 6927   0.449   7.525   6.054 -2.0113  0.4953 -2.1387
   14MOL   C402 6928   0.115   0.531   5.891  0.0026 -0.2728 -0.1962
   14MOL   C403 6929   0.074   0.674   5.857  0.2602  0.1592 -0.3802
   14MOL   O404 6930   7.717   0.700   5.843  0.2280 -0.4800  0.0784
   14MOL   C405 6931   7.681   0.812   5.920  0.5126  0.7480  0.0554
   14MOL   C406 6932   7.535   0.848   5.877 -0.4211 -0.1157 -0.3024
   14MOL   C407 6933   7.476   0.958   5.961  0.1017  0.3884  0.2724
   14MOL   C408 6934   7.339   1.004   5.918 -0.5402  0.3985 -0.4808
   14MOL   C409 6935   7.292   1.118   6.012 -0.2990 -0.2415 -0.3992
   14MOL   C410 6936   7.390   1.242   6.001 -0.6497  0.2307 -0.1083
   14MOL   H411 6937   0.084   0.458   5.817  2.5384 -1.0043 -0.5917
   14MOL   H412 6938   0.223   0.535   5.878  0.0120  0.2065  0.0150
   14MOL   H413 6939   0.116   0.738   5.935 -3.7180  1.2218  1.0369
   14MOL   H414 6940   7.742   0.900   5.904  1.2570  0.2547  0.1615
   14MOL   H415 6941   7.678   0.782   6.025 -2.1434 -0.6366 -0.3588
   14MOL   H416 6942   7.475   0.757   5.883  0.9381 -0.9412  1.2785
   14MOL   H417 6943   7.525   0.880   5.774 -0.3464  1.9144  0.2977
   14MOL   H418 6944   7.480   0.945   6.069  0.5191 -0.2924  0.1792
   14MOL   H419 6945   7.551   1.036   5.944  0.6959  0.1704  1.7929
   14MOL   H420 6946   7.353   1.040   5.816  1.9320  2.5989  0.5638
   14MOL   H421 6947   7.262   0.928   5.930 -0.0234 -0.0815 -0.1830
   14MOL   H422 6948   7.190   1.148   5.986 -0.3288  0.8645  0.9423
   14MOL   H423 6949   7.279   1.072   6.110 -0.5950  1.5525  0.4183
   14MOL   H424 6950   7.339   1.333   6.032 -0.5618 -0.2469  1.4525
   14MOL   H425 6951   7.474   1.229   6.069 -0.7403  1.2125  0.2033
   14MOL   H426 6952   7.432   1.251   5.900  0.2942 -0.3605  0.2300
   14MOL   C427 6953   0.146   0.716   5.728  0.2009 -0.2813 -0.2944
   14MOL   C428 6954   0.137   0.861   5.689  0.0525  0.4809 -0.2676
   14MOL   O429 6955   0.199   0.937   5.786  0.8172  0.3084 -0.6658
   14MOL   C430 6956   0.162   1.073   5.799 -0.9153  0.8112 -1.0876
   14MOL   C431 6957   0.289   1.147   5.832 -0.7990 -0.9975  0.3496
   14MOL   C432 6958   0.313   1.136   5.988  0.1135  0.1425  0.0357
   14MOL   C433 6959   0.451   1.201   6.031 -0.0011  0.1512  0.4567
   14MOL   C434 6960   0.442   1.277   6.161 -0.5233  0.8515 -0.3947
   14MOL   C435 6961   0.562   1.360   6.187 -0.0850 -0.4002 -0.1055
   14MOL   H436 6962   0.251   0.684   5.728 -0.1582 -1.5033 -0.9801
   14MOL   H437 6963   0.105   0.654   5.648 -0.1497  1.7475 -1.7089
   14MOL   H438 6964   0.037   0.902   5.674  0.1506 -0.1170 -2.8086
   14MOL   H439 6965   0.091   1.086   5.881 -0.8501 -0.6426 -0.7950
   14MOL   H440 6966   0.120   1.118   5.709 -3.2878 -0.4813 -0.6752
   14MOL   H441 6967   0.256   1.250   5.834  0.4678 -0.5978  3.8244
   14MOL   H442 6968   0.369   1.130   5.760 -1.4092  1.0688 -0.8420
   14MOL   H443 6969   0.234   1.184   6.046  0.2866  1.2175 -0.6066
   14MOL   H444 6970   0.307   1.028   6.002 -4.4339  0.1086 -1.4903
   14MOL   H445 6971   0.537   1.134   6.025  0.2188  0.1705  2.6964
   14MOL   H446 6972   0.486   1.278   5.962  0.4195  0.2596  0.7864
   14MOL   H447 6973   0.353   1.340   6.164 -1.5825 -0.6613  2.2234
   14MOL   H448 6974   0.432   1.198   6.236 -0.8616 -0.6076 -1.9285
   14MOL   H449 6975   0.591   1.412   6.096 -4.0080  1.1788 -0.5768
   14MOL   H450 6976   0.551   1.438   6.263  1.7403  2.6433 -2.8205
   14MOL   H451 6977   0.646   1.298   6.217  0.2935  0.4046  0.5414
   14MOL   C452 6978   0.219   0.886   5.560 -0.1399  0.5344 -0.3991
   14MOL   C453 6979   0.144   0.826   5.439 -0.3918  0.0289 -0.2783
   14MOL   O454 6980   0.240   0.846   5.331 -0.0489 -0.5325  0.4795
   14MOL   C455 6981   0.284   0.725   5.269  1.3191 -0.1049 -0.3641
   14MOL   C456 6982   0.333   0.758   5.132 -0.6867 -0.3177  0.3847
   14MOL   C457 6983   0.398   0.644   5.057 -0.2751 -0.1139  0.0280
   14MOL   C458 6984   0.466   0.678   4.927 -0.3914 -0.4708  0.0678
   14MOL   C459 6985   0.523   0.551   4.859  0.1570 -0.2027 -0.5689
   14MOL   C460 6986   0.591   0.569   4.727 -0.2285 -0.0593  0.3169
   14MOL   H461 6987   0.243   0.989   5.538 -0.1059  0.5792 -0.1559
   14MOL   H462 6988   0.308   0.824   5.574 -2.3345 -2.4728  0.8304
   14MOL   H463 6989   0.110   0.723   5.449 -1.5654  0.1037 -3.0154
   14MOL   H464 6990   0.206   0.650   5.262  0.5300  0.5799  0.9481
   14MOL   H465 6991   0.359   0.674   5.329 -0.6780  0.6603  2.9130
   14MOL   H466 6992   0.391   0.850   5.135  0.1250 -0.7884 -0.6884
   14MOL   H467 6993   0.268   0.807   5.059 -0.5875 -0.3457  0.2780
   14MOL   H468 6994   0.476   0.600   5.119  0.0736 -0.2108 -0.4770
   14MOL   H469 6995   0.324   0.570   5.027 -0.2775  0.2839 -0.9741
   14MOL   H470 6996   0.394   0.720   4.856 -0.8055 -1.9973 -0.4348
   14MOL   H471 6997   0.537   0.760   4.939 -0.4387 -0.2414 -1.1181
   14MOL   H472 6998   0.582   0.496   4.932 -3.2834 -0.9494  1.7597
   14MOL   H473 6999   0.441   0.488   4.823 -0.3886 -0.2101  0.6385
   14MOL   H474 7000   0.637   0.479   4.687 -0.2962 -0.7232  1.7166
   14MOL   H475 7001   0.517   0.592   4.649  0.3572  3.2712  0.6812
   14MOL   H476 7002   0.673   0.640   4.719  1.2558 -1.5697  1.8301
   14MOL   C477 7003   0.024   0.912   5.400 -0.1959 -0.2546 -0.5899
   14MOL   C478 7004   7.727   0.865   5.272 -0.2476 -0.3377  0.6194
   14MOL   O479 7005   7.598   0.920   5.271 -0.1129  0.4227  0.1903
   14MOL   C480 7006   7.525   0.893   5.157 -0.4215 -0.4607  0.3077
   14MOL   C481 7007   7.424   1.012   5.150  0.8874 -0.2357  0.1297
   14MOL   C482 7008   7.314   1.006   5.052  0.2151  0.0886  0.4135
   14MOL   C483 7009   7.364   0.962   4.909  0.3887 -0.5156 -1.1133
   14MOL   C484 7010   7.245   0.912   4.821 -0.3373 -0.5364 -0.1573
   14MOL   C485 7011   7.137   1.018   4.800  0.7735  0.0531 -0.3038
   14MOL   H486 7012   7.724   0.921   5.476 -1.2940  0.5229 -1.7794
   14MOL   H487 7013   0.057   1.015   5.390 -0.4030  0.0250  1.4366
   14MOL   H488 7014   0.012   0.887   5.184 -1.7817 -0.1171 -0.4274
   14MOL   H489 7015   7.484   0.795   5.180  3.4590 -2.1643  0.3406
   14MOL   H490 7016   7.586   0.877   5.067  0.7685  0.7203  0.8840
   14MOL   H491 7017   7.479   1.104   5.131 -0.3136  0.0190 -2.3440
   14MOL   H492 7018   7.378   1.020   5.249 -1.9806 -0.4888 -1.1415
   14MOL   H493 7019   7.241   0.934   5.086  1.0488 -0.5857  0.8005
   14MOL   H494 7020   7.282   1.109   5.038  3.8657  1.3523  0.6356
   14MOL   H495 7021   7.413   1.046   4.858 -0.8289  0.1576 -1.2041
   14MOL   H496 7022   7.428   0.874   4.910  2.8158  1.1899 -0.2063
   14MOL   H497 7023   7.283   0.883   4.724  0.4958  2.4650 -0.7721
   14MOL   H498 7024   7.205   0.826   4.875 -1.2082  0.8097  1.4056
   14MOL   H499 7025   7.175   1.103   4.743  1.6356  0.9921  1.5949
   14MOL   H500 7026   7.058   0.972   4.742  0.1915  0.5538  0.0851
   14MOL   H501 7027   7.090   1.056   4.891  0.0059 -2.1246  0.2268
   14MOL   H502 7028   7.713   0.758   5.285  1.1265 -0.4813  1.0476
   15MOL     C1 7029   0.879   0.328   5.037  0.6531 -0.3636 -0.4419
   15MOL     C2 7030   0.969   0.448   5.065  0.0356  0.6830 -0.1138
   15MOL     O3 7031   0.889   0.560   5.086  0.6244 -0.7091 -0.1189
   15MOL     C4 7032   0.810   0.568   5.207 -0.1323  0.1074 -0.0461
   15MOL     C5 7033   0.831   0.707   5.274 -0.6008 -0.1247 -0.2951
   15MOL     C6 7034   0.770   0.818   5.188 -0.2895 -0.8222  0.2606
   15MOL     C7 7035   0.768   0.951   5.265  0.4242  0.4998 -0.4769
   15MOL     C8 7036   0.646   0.971   5.366  0.1956  0.1785 -0.2562
   15MOL     C9 7037   0.652   1.115   5.423  0.8980 -0.7366  0.1775
   15MOL    H10 7038   0.796   0.325   5.108  1.5948 -0.7367  0.6556
   15MOL    H11 7039   0.825   0.335   4.943 -0.6899 -2.7188  0.1062
   15MOL    H12 7040   1.016   0.439   5.163 -0.4078  0.3583  0.0713
   15MOL    H13 7041   0.837   0.492   5.280 -0.1193 -0.1861 -0.3572
   15MOL    H14 7042   0.709   0.544   5.176  0.0847 -1.3584  0.3380
   15MOL    H15 7043   0.937   0.726   5.290 -0.3895  0.0911 -1.8582
   15MOL    H16 7044   0.782   0.707   5.371  1.9805  0.6919  1.0232
   15MOL    H17 7045   0.824   0.840   5.096 -0.7735  1.9488  0.5793
   15MOL    H18 7046   0.666   0.791   5.168 -0.2144 -1.3380  0.5529
   15MOL    H19 7047   0.869   0.970   5.303 -0.2126 -1.9186  2.5615
   15MOL    H20 7048   0.757   1.033   5.193  0.9228  1.1575  0.1902
   15MOL    H21 7049   0.649   0.898   5.446 -2.0111  0.7200  0.3554
   15MOL    H22 7050   0.549   0.956   5.319  0.2668 -0.6232 -0.1533
   15MOL    H23 7051   0.591   1.133   5.511  0.5476 -0.4365 -0.1219
   15MOL    H24 7052   0.753   1.135   5.459  1.5544  2.7231 -3.2011
   15MOL    H25 7053   0.631   1.184   5.341  1.3122 -0.0037  0.6798
   15MOL    H26 7054   0.939   0.237   5.029  0.9277 -0.2000 -0.2430
   15MOL    C27 7055   1.076   0.472   4.956  0.9544 -0.0716 -0.4190
   15MOL    C28 7056   1.193   0.562   4.989 -0.5542  0.4112 -0.1638
   15MOL    O29 7057   1.240   0.521   5.121  0.3438 -0.1984 -0.4840
   15MOL    C30 7058   1.245   0.627   5.218 -0.3074 -0.0856 -0.4783
   15MOL    C31 7059   1.335   0.560   5.331 -0.6059  0.1663  0.4367
   15MOL    C32 7060   1.487   0.587   5.321  0.2420  0.2601 -0.5230
   15MOL    C33 7061   1.578   0.495   5.414 -0.6367  0.3156  0.6213
   15MOL    C34 7062   1.730   0.531   5.408  0.3230 -0.6110  0.0908
   15MOL    C35 7063   1.765   0.659   5.488 -0.1786  0.1814  0.3127
   15MOL    H36 7064   1.110   0.374   4.924  0.5686 -0.2479 -0.2876
   15MOL    H37 7065   1.026   0.512   4.868  2.1305  1.9876 -0.1832
   15MOL    H38 7066   1.145   0.660   4.997 -3.5876 -1.0224 -0.0612
   15MOL    H39 7067   1.143   0.644   5.253  0.0096 -1.9856  1.4988
   15MOL    H40 7068   1.291   0.719   5.180 -0.0914 -0.2664 -0.6544
   15MOL    H41 7069   1.328   0.452   5.324  1.1596  0.0808 -0.3435
   15MOL    H42 7070   1.288   0.593   5.424  1.4861 -0.7087  1.8435
   15MOL    H43 7071   1.531   0.573   5.222  0.0460  0.0060 -0.5739
   15MOL    H44 7072   1.502   0.691   5.349  0.4410 -0.2483  1.3069
   15MOL    H45 7073   1.543   0.486   5.517 -2.0814 -0.7375  0.0453
   15MOL    H46 7074   1.564   0.391   5.383 -0.6970 -0.2664  2.5192
   15MOL    H47 7075   1.776   0.445   5.456  1.9683 -0.6833 -1.5334
   15MOL    H48 7076   1.762   0.536   5.304 -0.1771  0.2367 -0.0305
   15MOL    H49 7077   1.868   0.689   5.468  0.2114 -1.8416 -0.7913
   15MOL    H50 7078   1.703   0.739   5.448 -0.3515 -0.1971 -0.1773
   15MOL    H51 7079   1.742   0.651   5.594 -0.1300  0.2107  0.3260
   15MOL    C52 7080   1.299   0.553   4.880 -0.5495  0.2636  0.5904
   15MOL    C53 7081   1.392   0.679   4.873  0.1096  0.1368  0.0175
   15MOL    O54 7082   1.499   0.650   4.776 -0.2063  0.0567 -0.0221
   15MOL    C55 7083   1.631   0.630   4.828  0.0635  0.0386  0.4121
   15MOL    C56 7084   1.712   0.544   4.728 -0.6269  0.5519 -0.1241
   15MOL    C57 7085   1.859   0.516   4.769  0.4217  0.0512  0.3570
   15MOL    C58 7086   1.937   0.408   4.697  0.4253 -0.0029  0.1298
   15MOL    C59 7087   1.847   0.296   4.652 -0.2948 -0.0281  0.2948
   15MOL    C60 7088   1.931   0.182   4.587 -0.2752 -0.1293  0.3736
   15MOL    H61 7089   1.263   0.554   4.777  1.6807  0.3406 -0.2190
   15MOL    H62 7090   1.367   0.470   4.898  0.9157  1.3035 -0.0788
   15MOL    H63 7091   1.443   0.687   4.969  0.0742 -1.4548  0.1746
   15MOL    H64 7092   1.634   0.577   4.923 -0.4694 -3.5886 -1.4692
   15MOL    H65 7093   1.680   0.726   4.845  1.9929 -1.1489  1.7549
   15MOL    H66 7094   1.705   0.599   4.634 -1.4128  0.4771 -0.1125
   15MOL    H67 7095   1.655   0.452   4.714 -0.4350  0.4344 -0.1338
   15MOL    H68 7096   1.917   0.608   4.760  1.1504 -0.4929 -0.7175
   15MOL    H69 7097   1.852   0.495   4.876  0.0584 -0.9684  0.1449
   15MOL    H70 7098   1.975   0.445   4.601  0.3844 -0.3780 -0.0312
   15MOL    H71 7099   2.017   0.361   4.753  1.9873 -0.7376 -2.6416
   15MOL    H72 7100   1.779   0.249   4.724 -1.6381  1.0626 -0.2448
   15MOL    H73 7101   1.795   0.332   4.564 -0.8680 -1.9019 -0.1465
   15MOL    H74 7102   1.996   0.144   4.665  2.8052  3.9450 -0.0445
   15MOL    H75 7103   1.870   0.103   4.543  0.8866 -0.5839 -0.4332
   15MOL    H76 7104   1.995   0.216   4.506  1.1138 -0.7774  1.1929
   15MOL    C77 7105   1.318   0.814   4.848  0.1702  0.1307 -0.1503
   15MOL    C78 7106   1.413   0.937   4.854 -0.7348  0.0559  0.4616
   15MOL    O79 7107   1.441   0.954   4.996 -0.2855  0.3454  0.3106
   15MOL    C80 7108   1.579   0.983   5.036 -0.0511  0.5077  0.1343
   15MOL    C81 7109   1.579   1.002   5.183  0.2848 -0.3226 -0.5376
   15MOL    C82 7110   1.720   1.026   5.246  0.1254 -0.1395  0.1401
   15MOL    C83 7111   1.717   1.066   5.396 -0.4720 -0.3863  0.1890
   15MOL    C84 7112   1.861   1.086   5.458 -0.5910  0.4291 -0.2115
   15MOL    C85 7113   1.946   0.958   5.461 -0.6927  0.3419 -0.6024
   15MOL    H86 7114   1.234   0.823   4.916 -0.4183 -0.9926 -0.7196
   15MOL    H87 7115   1.269   0.801   4.752 -1.0836  0.1327  0.4790
   15MOL    H88 7116   1.509   0.913   4.808 -0.5901  0.8883  0.3327
   15MOL    H89 7117   1.606   1.075   4.984  0.4319 -1.6381 -3.6629
   15MOL    H90 7118   1.647   0.899   5.020  1.2486  1.6319 -0.2700
   15MOL    H91 7119   1.537   0.914   5.231  2.3840 -1.2155 -0.3165
   15MOL    H92 7120   1.511   1.084   5.207  1.3194  0.4540 -0.2612
   15MOL    H93 7121   1.779   0.934   5.240  1.2128  0.4604  1.3973
   15MOL    H94 7122   1.753   1.111   5.185 -2.9873 -0.8726 -2.6953
   15MOL    H95 7123   1.664   1.161   5.396  0.0246 -0.0952 -1.8519
   15MOL    H96 7124   1.667   0.990   5.457 -1.0168  0.1643  0.4399
   15MOL    H97 7125   1.913   1.165   5.404 -1.1188 -0.6329 -2.3020
   15MOL    H98 7126   1.850   1.096   5.566  0.0880  0.8776 -0.1782
   15MOL    H99 7127   1.946   0.905   5.366 -1.3085 -0.5639 -0.1060
   15MOL   H100 7128   2.051   0.969   5.487 -0.1595 -2.9114 -1.1783
   15MOL   H101 7129   1.903   0.897   5.541 -1.1487 -1.7903 -2.4234
   15MOL   C102 7130   1.379   1.072   4.791 -0.1222 -0.2034 -0.5458
   15MOL   C103 7131   1.329   1.072   4.652  0.2103 -0.1523 -0.2076
   15MOL   O104 7132   1.320   1.210   4.603 -0.3686  0.3735 -0.4684
   15MOL   C105 7133   1.206   1.280   4.639 -0.2807 -0.2403  0.0205
   15MOL   C106 7134   1.217   1.427   4.593 -0.9842  0.0515  0.1429
   15MOL   C107 7135   1.190   1.433   4.440  0.3856  0.5125  0.4883
   15MOL   C108 7136   1.143   1.565   4.386  0.7002 -0.1074  0.0422
   15MOL   C109 7137   1.266   1.658   4.347 -0.0562 -0.0951  0.4854
   15MOL   C110 7138   1.210   1.784   4.287  0.7637  0.1038  0.4854
   15MOL   H111 7139   1.306   1.110   4.863 -0.5621 -0.3843 -0.9018
   15MOL   H112 7140   1.458   1.144   4.814  0.0064 -0.8615  1.1455
   15MOL   H113 7141   1.232   1.022   4.657 -0.2254  0.6280 -0.8290
   15MOL   H114 7142   1.201   1.274   4.748 -0.0391  0.3346  0.0640
   15MOL   H115 7143   1.118   1.226   4.604 -0.5812  0.4760 -0.3440
   15MOL   H116 7144   1.313   1.466   4.627 -0.9268  1.2006 -1.2861
   15MOL   H117 7145   1.139   1.487   4.640 -1.3398 -0.0557 -0.3097
   15MOL   H118 7146   1.284   1.403   4.395 -0.2179 -0.2390 -0.2816
   15MOL   H119 7147   1.116   1.361   4.405  2.6337 -0.8314 -1.6036
   15MOL   H120 7148   1.096   1.536   4.292 -0.0002  1.4599 -0.1082
   15MOL   H121 7149   1.071   1.604   4.458  1.4156  1.2941  0.0256
   15MOL   H122 7150   1.324   1.677   4.437  1.0381 -0.5701 -0.1113
   15MOL   H123 7151   1.329   1.606   4.275  0.3574 -0.6125  1.2116
   15MOL   H124 7152   1.288   1.854   4.258 -0.5507  1.9535  1.2751
   15MOL   H125 7153   1.146   1.754   4.204 -1.3143  0.1498  2.0026
   15MOL   H126 7154   1.143   1.835   4.357  0.4954  0.1123  0.2233
   15MOL   C127 7155   1.430   1.003   4.554  0.0948 -0.2563 -0.7112
   15MOL   C128 7156   1.365   0.970   4.417  0.2831  0.7566 -0.1229
   15MOL   O129 7157   1.421   0.846   4.374 -0.0501 -0.0709  0.8176
   15MOL   C130 7158   1.352   0.731   4.409  0.1652 -0.7435 -0.2771
   15MOL   C131 7159   1.434   0.613   4.375 -0.0212  0.3070 -0.3157
   15MOL   C132 7160   1.365   0.481   4.413  0.0522 -0.2437 -0.2891
   15MOL   C133 7161   1.446   0.352   4.391  0.2053 -0.2475 -0.4366
   15MOL   C134 7162   1.387   0.231   4.472  0.5901 -0.0885  0.2081
   15MOL   C135 7163   1.469   0.111   4.449 -0.0524  0.0805  0.0347
   15MOL   H136 7164   1.521   1.062   4.545 -1.1214  1.4943 -1.8128
   15MOL   H137 7165   1.469   0.913   4.602 -2.7305 -0.6128  0.9855
   15MOL   H138 7166   1.256   0.966   4.419  0.2877 -1.5448 -1.6647
   15MOL   H139 7167   1.254   0.723   4.361  0.6006  1.6018 -1.6398
   15MOL   H140 7168   1.335   0.719   4.516  3.8931 -0.6653  0.4042
   15MOL   H141 7169   1.530   0.627   4.426 -0.2541 -0.1882  0.2557
   15MOL   H142 7170   1.452   0.618   4.267 -2.5161 -0.2707 -0.7825
   15MOL   H143 7171   1.346   0.481   4.520 -2.0733  0.4971 -0.6320
   15MOL   H144 7172   1.262   0.471   4.378 -1.1965  0.3506  3.0674
   15MOL   H145 7173   1.474   0.329   4.288  2.7050 -0.3142  0.2132
   15MOL   H146 7174   1.543   0.374   4.434  0.5019 -2.1766 -0.0630
   15MOL   H147 7175   1.383   0.263   4.576  0.1015  0.7260 -0.0616
   15MOL   H148 7176   1.285   0.207   4.443  0.9836 -0.0264 -1.2770
   15MOL   H149 7177   1.567   0.117   4.497  0.1026  0.7980 -0.3669
   15MOL   H150 7178   1.421   0.021   4.487  1.3939 -1.5166 -1.7827
   15MOL   H151 7179   1.487   0.082   4.345  2.8091 -1.5815  0.9156
   15MOL   C152 7180   1.413   1.085   4.317  0.1890 -0.2778 -0.4631
   15MOL   C153 7181   1.368   1.070   4.165  0.2748  0.5508 -0.5524
   15MOL   O154 7182   1.232   1.114   4.152 -0.0392 -0.5641 -0.0530
   15MOL   C155 7183   1.135   1.012   4.126  0.4482 -0.4569  0.3475
   15MOL   C156 7184   1.000   1.084   4.091 -0.0091  0.2835  0.6032
   15MOL   C157 7185   0.963   1.186   4.196  0.4919  0.0379 -0.5268
   15MOL   C158 7186   0.823   1.239   4.161 -0.3687 -0.5433 -0.4064
   15MOL   C159 7187   0.766   1.350   4.263 -0.6511  0.3079 -0.3530
   15MOL   C160 7188   0.621   1.395   4.223  0.0675 -0.4890  0.4710
   15MOL   H161 7189   1.387   1.182   4.358 -1.2302 -0.5814 -0.6220
   15MOL   H162 7190   1.522   1.073   4.319  0.0888 -1.0971  0.6576
   15MOL   H163 7191   1.403   0.972   4.132  1.1782  0.6835  0.0040
   15MOL   H164 7192   1.124   0.929   4.195  1.5909  0.5075  1.7141
   15MOL   H165 7193   1.166   0.963   4.034 -0.1646 -1.4152  0.6471
   15MOL   H166 7194   0.915   1.017   4.078 -0.1692  0.5779  0.1063
   15MOL   H167 7195   1.007   1.141   3.999 -0.7419  1.1171  1.0583
   15MOL   H168 7196   0.968   1.156   4.300  2.3689  0.1144 -0.5832
   15MOL   H169 7197   1.026   1.275   4.188 -0.5928  0.6546 -2.9769
   15MOL   H170 7198   0.820   1.287   4.063 -0.1920  0.8525  0.2648
   15MOL   H171 7199   0.753   1.158   4.146 -0.4644 -0.4592 -0.4120
   15MOL   H172 7200   0.770   1.293   4.356 -1.0868 -0.0302 -0.5387
   15MOL   H173 7201   0.832   1.435   4.280  0.1817 -0.3648 -0.2319
   15MOL   H174 7202   0.580   1.467   4.294 -0.3905  0.2806 -0.5540
   15MOL   H175 7203   0.602   1.438   4.124 -0.3029 -0.0753  0.7205
   15MOL   H176 7204   0.542   1.320   4.233 -1.4149  0.9948  0.1909
   15MOL   C177 7205   1.461   1.175   4.090 -0.1084 -0.1496  0.0778
   15MOL   C178 7206   1.435   1.194   3.936 -1.0504 -0.9072  0.9306
   15MOL   O179 7207   1.512   1.307   3.893 -0.1235 -0.2655  0.2406
   15MOL   C180 7208   1.454   1.428   3.920 -0.1296 -0.1353  0.5770
   15MOL   C181 7209   1.560   1.521   3.985  0.1104  0.4291  0.9453
   15MOL   C182 7210   1.518   1.670   3.987 -0.0663 -0.0601 -0.2376
   15MOL   C183 7211   1.632   1.766   4.012  0.1162  0.3406 -0.2600
   15MOL   C184 7212   1.742   1.747   3.910 -0.3274  0.1956  0.1993
   15MOL   C185 7213   1.849   1.849   3.923 -0.6391  0.4724  0.5804
   15MOL   H186 7214   1.438   1.273   4.132  3.0201  0.6755 -0.0574
   15MOL   H187 7215   1.564   1.150   4.115 -0.0700  0.8566  0.9420
   15MOL   H188 7216   1.328   1.211   3.926 -0.8385  1.0126  1.5923
   15MOL   H189 7217   1.360   1.418   3.976  0.6310  0.6255  2.0155
   15MOL   H190 7218   1.418   1.480   3.831 -1.2436  0.2310  1.2226
   15MOL   H191 7219   1.652   1.508   3.927 -0.2577 -2.9034  1.0319
   15MOL   H192 7220   1.577   1.502   4.091  0.0233 -0.9424  0.7246
   15MOL   H193 7221   1.486   1.687   3.885  0.6286  2.2405 -0.1090
   15MOL   H194 7222   1.433   1.688   4.053  0.4464 -3.1110  1.3279
   15MOL   H195 7223   1.600   1.870   4.003 -1.7580  0.2173  3.8725
   15MOL   H196 7224   1.668   1.759   4.114 -0.8849  1.1403  0.1636
   15MOL   H197 7225   1.794   1.654   3.934 -1.7489 -0.7101 -0.1364
   15MOL   H198 7226   1.706   1.740   3.807  0.1872 -1.6955  0.1224
   15MOL   H199 7227   1.945   1.818   3.882  0.9152  2.0115  2.9121
   15MOL   H200 7228   1.817   1.941   3.874 -0.8494 -1.4408 -3.1078
   15MOL   H201 7229   1.873   1.872   4.027  1.1745 -0.4272  0.3798
   15MOL   C202 7230   1.461   1.064   3.857  0.4397 -0.3920 -0.3681
   15MOL   C203 7231   1.363   1.049   3.753 -0.9080  0.2966 -0.4615
   15MOL   O204 7232   1.393   0.924   3.685 -0.2807  0.7787 -0.3132
   15MOL   C205 7233   1.274   0.862   3.631  0.0188 -0.3321 -0.9840
   15MOL   C206 7234   1.305   0.780   3.502 -0.0897 -0.2999 -0.7629
   15MOL   C207 7235   1.386   0.652   3.542  0.4194  0.1919 -0.0247
   15MOL   C208 7236   1.420   0.572   3.418 -0.4133 -0.3427 -0.2044
   15MOL   C209 7237   1.511   0.455   3.463 -0.3795 -0.4003  0.6284
   15MOL   C210 7238   1.500   0.330   3.377 -0.9182 -0.3386  0.2361
   15MOL   H211 7239   1.564   1.065   3.824  0.6567 -2.0631  0.1835
   15MOL   H212 7240   1.459   0.976   3.922  1.2866 -1.1842 -1.4105
   15MOL   H213 7241   1.272   1.028   3.809 -1.3429 -0.5931 -1.4897
   15MOL   H214 7242   1.188   0.928   3.615 -0.9073 -1.8423 -2.4169
   15MOL   H215 7243   1.224   0.798   3.705  1.8969 -0.3295  0.3099
   15MOL   H216 7244   1.373   0.836   3.438  0.5203  0.2639  0.3474
   15MOL   H217 7245   1.220   0.747   3.444 -0.1480 -0.4044 -0.6192
   15MOL   H218 7246   1.478   0.682   3.591  0.9509 -0.1783 -0.7748
   15MOL   H219 7247   1.328   0.586   3.606 -0.4165  0.6659 -0.2925
   15MOL   H220 7248   1.335   0.532   3.363 -0.7271  2.3281 -1.7478
   15MOL   H221 7249   1.478   0.633   3.349  1.8107  0.8473  2.6349
   15MOL   H222 7250   1.610   0.500   3.454 -0.8809  0.4664 -0.8833
   15MOL   H223 7251   1.501   0.436   3.570  0.6114  1.6373  1.1178
   15MOL   H224 7252   1.548   0.249   3.431  0.4425  0.1723 -0.1846
   15MOL   H225 7253   1.399   0.293   3.361 -1.0112  0.7825 -2.0675
   15MOL   H226 7254   1.546   0.359   3.282 -0.2663  1.8886  1.1988
   15MOL   C227 7255   1.368   1.170   3.642  0.6527  0.0565 -0.1236
   15MOL   C228 7256   1.222   1.214   3.609 -0.5046  0.2014  0.1720
   15MOL   O229 7257   1.190   1.316   3.696 -0.2576  0.4576  0.8439
   15MOL   C230 7258   1.051   1.328   3.719  0.1092  0.0144  0.0651
   15MOL   C231 7259   1.038   1.456   3.803  0.4147  0.2946 -0.0182
   15MOL   C232 7260   1.075   1.583   3.726 -0.3962  0.0933  0.1215
   15MOL   C233 7261   1.102   1.701   3.824  0.0608  0.2077 -0.6250
   15MOL   C234 7262   1.142   1.835   3.758 -0.3701  0.9854  0.1813
   15MOL   C235 7263   1.166   1.944   3.869 -0.0592  0.4181  0.0840
   15MOL   H236 7264   1.437   1.250   3.667 -0.2620  0.5794  0.7616
   15MOL   H237 7265   1.417   1.112   3.563  0.7198 -0.8209  0.5604
   15MOL   H238 7266   1.147   1.135   3.616  0.2835 -0.7487 -1.7302
   15MOL   H239 7267   1.012   1.246   3.779 -1.2608  0.7750  0.2312
   15MOL   H240 7268   0.997   1.336   3.625 -0.1232 -0.4790  0.1590
   15MOL   H241 7269   1.113   1.447   3.882  0.1598 -1.6805  0.0117
   15MOL   H242 7270   0.938   1.473   3.842 -0.3510  1.5466 -2.4239
   15MOL   H243 7271   1.158   1.556   3.661  1.1574 -1.0429  2.5119
   15MOL   H244 7272   0.988   1.617   3.669 -0.3332  0.5302  0.2846
   15MOL   H245 7273   1.008   1.717   3.876 -1.1211 -0.3771 -2.5451
   15MOL   H246 7274   1.181   1.679   3.896  1.2437  0.8854 -1.6910
   15MOL   H247 7275   1.240   1.823   3.711 -0.9293  1.0451 -1.0292
   15MOL   H248 7276   1.081   1.870   3.675 -1.2407 -1.9938 -0.4648
   15MOL   H249 7277   1.185   2.040   3.821 -0.2877  1.5047  2.1122
   15MOL   H250 7278   1.082   1.957   3.938 -0.1285 -2.3109  0.5455
   15MOL   H251 7279   1.244   1.918   3.941 -0.3122 -2.3998 -0.6116
   15MOL   C252 7280   1.215   1.269   3.462  0.4657  0.0635  0.6265
   15MOL   C253 7281   1.201   1.155   3.356  0.2915  0.7094  0.0754
   15MOL   O254 7282   1.280   1.189   3.247  0.2728  0.7187 -0.5243
   15MOL   C255 7283   1.409   1.130   3.262  0.0814 -0.1186 -0.0385
   15MOL   C256 7284   1.511   1.186   3.161 -0.0634  0.8299  0.4831
   15MOL   C257 7285   1.479   1.167   3.010  0.7037 -0.5892 -0.6618
   15MOL   C258 7286   1.612   1.175   2.926  0.4554  0.7143  0.6665
   15MOL   C259 7287   1.654   1.315   2.888  0.0251 -0.2787 -0.1525
   15MOL   C260 7288   1.792   1.315   2.818 -0.3082  0.0038  0.1046
   15MOL   H261 7289   1.144   1.351   3.448  0.4995  0.2132  1.3140
   15MOL   H262 7290   1.310   1.320   3.449 -0.5294  1.1141 -3.0243
   15MOL   H263 7291   1.229   1.060   3.401  2.0348  1.1419 -0.0669
   15MOL   H264 7292   1.397   1.022   3.259 -1.2871  0.0133  0.2726
   15MOL   H265 7293   1.455   1.158   3.357 -1.5331  0.9757  0.4497
   15MOL   H266 7294   1.601   1.126   3.169 -0.0924  0.7660  0.3382
   15MOL   H267 7295   1.525   1.289   3.193 -1.2611  0.8751  0.9091
   15MOL   H268 7296   1.443   1.064   3.008 -0.6993 -0.0931 -1.1993
   15MOL   H269 7297   1.396   1.229   2.977  1.9968  1.6398  0.2065
   15MOL   H270 7298   1.697   1.121   2.966  0.9146  0.6504 -0.3869
   15MOL   H271 7299   1.596   1.122   2.832 -0.2815  0.3008  1.0177
   15MOL   H272 7300   1.579   1.362   2.824  0.3592  1.7872  0.9261
   15MOL   H273 7301   1.651   1.385   2.972  0.2215  0.8868 -1.0933
   15MOL   H274 7302   1.780   1.245   2.735 -0.1420 -0.9247  0.8517
   15MOL   H275 7303   1.824   1.410   2.776 -0.5052 -1.5255 -3.6903
   15MOL   H276 7304   1.863   1.271   2.887 -1.7625  0.4528  1.9416
   15MOL   C277 7305   1.058   1.149   3.302 -0.7278  0.3190 -0.2050
   15MOL   C278 7306   1.047   1.055   3.176  0.2919  1.1781  0.0183
   15MOL   O279 7307   1.085   0.924   3.225 -0.1129  0.0196  0.1925
   15MOL   C280 7308   1.165   0.843   3.135 -1.2201  0.4600  0.1674
   15MOL   C281 7309   1.136   0.690   3.153  0.0773  0.3564 -0.1860
   15MOL   C282 7310   1.251   0.609   3.087 -0.0337  0.1705 -0.5714
   15MOL   C283 7311   1.246   0.451   3.066 -1.0786 -0.0554  0.6166
   15MOL   C284 7312   1.370   0.387   3.011 -0.2894  0.0351 -0.2027
   15MOL   C285 7313   1.378   0.238   3.031  0.5168  0.8933 -0.0625
   15MOL   H286 7314   1.004   1.094   3.379  1.4376  2.4906  3.0542
   15MOL   H287 7315   1.009   1.245   3.283 -0.7484  0.3261 -0.1154
   15MOL   H288 7316   1.115   1.093   3.099 -1.1146  0.8655 -1.4101
   15MOL   H289 7317   1.271   0.861   3.153 -0.8216 -0.1155 -1.5183
   15MOL   H290 7318   1.145   0.879   3.034 -0.7992  1.0409  0.2930
   15MOL   H291 7319   1.042   0.657   3.109 -0.8668  2.4291  0.2336
   15MOL   H292 7320   1.142   0.679   3.261 -1.8343 -1.0201 -0.1919
   15MOL   H293 7321   1.288   0.657   2.997 -1.2383  0.1522 -1.0846
   15MOL   H294 7322   1.334   0.623   3.157 -0.1314 -1.2768 -0.1468
   15MOL   H295 7323   1.221   0.412   3.165  0.0161 -2.4872 -0.0267
   15MOL   H296 7324   1.164   0.428   2.999 -0.0495 -2.2862  0.0910
   15MOL   H297 7325   1.375   0.407   2.904  1.4873 -0.4550 -0.2263
   15MOL   H298 7326   1.452   0.436   3.064  0.5629  1.3529 -2.6633
   15MOL   H299 7327   1.463   0.196   2.977  1.2755  0.1475  1.6620
   15MOL   H300 7328   1.370   0.194   3.131  1.9833 -0.3057 -0.4496
   15MOL   H301 7329   1.295   0.211   2.966 -0.4163  0.3860  1.3192
   15MOL   C302 7330   0.903   1.033   3.124 -0.1865 -0.9234  0.0725
   15MOL   C303 7331   0.839   1.163   3.059 -0.0465 -0.5697  0.4900
   15MOL   O304 7332   0.707   1.146   3.006 -0.0052  1.0926  0.1949
   15MOL   C305 7333   0.596   1.154   3.088  0.2128  0.5601  0.3556
   15MOL   C306 7334   0.468   1.127   3.016 -0.0806 -0.3062 -0.4966
   15MOL   C307 7335   0.350   1.162   3.110  0.1193 -0.4539 -0.0272
   15MOL   C308 7336   0.210   1.150   3.050  0.4837 -0.4480 -0.5816
   15MOL   C309 7337   0.191   1.243   2.929 -0.6414  0.0604 -0.2679
   15MOL   C310 7338   0.049   1.238   2.881 -0.0869  0.2612  0.7034
   15MOL   H311 7339   0.902   0.954   3.050 -0.0747  0.5281 -1.4998
   15MOL   H312 7340   0.841   0.994   3.205  0.6830 -1.5087  0.4679
   15MOL   H313 7341   0.830   1.243   3.133  2.7386 -1.5725  1.9841
   15MOL   H314 7342   0.586   1.251   3.136  0.8647 -1.2984  4.4812
   15MOL   H315 7343   0.612   1.083   3.170 -0.6819 -0.3316 -0.2226
   15MOL   H316 7344   0.463   1.023   2.983 -0.9574  0.4583 -2.8824
   15MOL   H317 7345   0.468   1.171   2.916  0.1662 -0.7797 -0.7072
   15MOL   H318 7346   0.343   1.099   3.198 -0.1549 -1.1265 -0.5254
   15MOL   H319 7347   0.365   1.266   3.139 -0.0294  0.4144 -2.9373
   15MOL   H320 7348   0.192   1.049   3.013 -1.4112  0.3880 -2.0682
   15MOL   H321 7349   0.130   1.172   3.121  1.4215  0.0263  0.3294
   15MOL   H322 7350   0.215   1.346   2.953 -1.2365  0.0811  0.2471
   15MOL   H323 7351   0.252   1.206   2.847 -0.7564 -1.4529  0.2939
   15MOL   H324 7352   7.751   1.278   2.950 -0.8757 -1.4265  0.8407
   15MOL   H325 7353   0.035   1.304   2.796  0.1314 -0.1244  0.3695
   15MOL   H326 7354   0.021   1.143   2.835  1.6085  0.2770 -0.3851
   15MOL   C327 7355   0.916   1.218   2.937  0.1665 -0.3083 -0.4442
   15MOL   C328 7356   0.868   1.356   2.883 -0.5979  0.8431  0.1844
   15MOL   O329 7357   0.952   1.461   2.917 -0.0183  0.1940  0.4552
   15MOL   C330 7358   0.960   1.494   3.051 -0.0178 -0.5164  0.1192
   15MOL   C331 7359   1.048   1.616   3.064 -0.2022 -0.0938  0.4110
   15MOL   C332 7360   1.079   1.656   3.209  0.3230  0.0341  1.2822
   15MOL   C333 7361   1.182   1.772   3.213 -0.3907  0.4885  0.0244
   15MOL   C334 7362   1.212   1.828   3.355  0.0090  1.0761 -0.2269
   15MOL   C335 7363   1.316   1.940   3.360 -0.1818  0.3216  0.0843
   15MOL   H336 7364   0.918   1.140   2.862  0.0584 -1.7833  1.0687
   15MOL   H337 7365   1.022   1.233   2.961  0.0672 -2.3288  1.3809
   15MOL   H338 7366   0.775   1.374   2.937 -0.2237 -0.7085  1.3710
   15MOL   H339 7367   0.999   1.403   3.098  1.0711  0.4442  1.1473
   15MOL   H340 7368   0.858   1.513   3.084 -1.2791 -1.5662 -3.0088
   15MOL   H341 7369   1.011   1.704   3.012  0.9699 -0.3624 -0.9146
   15MOL   H342 7370   1.143   1.608   3.010  0.5011  0.8200  1.4896
   15MOL   H343 7371   0.980   1.680   3.249 -0.1605  1.2106 -0.5891
   15MOL   H344 7372   1.118   1.580   3.277  2.3482  1.9580  2.3249
   15MOL   H345 7373   1.274   1.741   3.163  0.0708  0.3535  0.9519
   15MOL   H346 7374   1.149   1.847   3.141  4.1583  1.1153 -1.5884
   15MOL   H347 7375   1.114   1.857   3.392 -0.5767  0.9463 -1.6502
   15MOL   H348 7376   1.252   1.744   3.411 -2.7865 -0.8128 -0.9829
   15MOL   H349 7377   1.269   2.031   3.323  1.0027  1.3742  1.1405
   15MOL   H350 7378   1.353   1.943   3.462 -0.0064  0.1733  0.0259
   15MOL   H351 7379   1.389   1.930   3.279 -1.4633 -0.4995 -0.9833
   15MOL   C352 7380   0.819   1.343   2.735  0.3524  0.3411 -1.3143
   15MOL   C353 7381   0.758   1.469   2.685 -0.1939  0.3212  0.4652
   15MOL   O354 7382   0.651   1.513   2.776 -0.1294 -0.1882 -0.4575
   15MOL   C355 7383   0.608   1.650   2.776  0.2842  0.2659 -0.0463
   15MOL   C356 7384   0.461   1.672   2.825 -0.1501 -0.8975  0.7997
   15MOL   C357 7385   0.433   1.612   2.963 -0.3756  0.4893 -0.0936
   15MOL   C358 7386   0.310   1.668   3.023  0.6046  0.2672  0.9473
   15MOL   C359 7387   0.276   1.605   3.163  0.6106 -0.0949 -0.1155
   15MOL   C360 7388   0.388   1.612   3.266  0.5976 -0.1057 -0.2748
   15MOL   H361 7389   0.905   1.309   2.677  0.3972 -0.7187 -0.6373
   15MOL   H362 7390   0.756   1.254   2.739  2.0265 -0.7882  2.4862
   15MOL   H363 7391   0.830   1.551   2.689 -0.7174  0.6773  3.2913
   15MOL   H364 7392   0.634   1.683   2.676  2.1552 -1.1336 -0.0516
   15MOL   H365 7393   0.676   1.703   2.842  1.5444  0.5062 -1.5051
   15MOL   H366 7394   0.392   1.643   2.746  0.0409 -1.4904  0.8479
   15MOL   H367 7395   0.466   1.781   2.838 -0.1483 -1.0080  1.7657
   15MOL   H368 7396   0.424   1.505   2.946 -2.9912  0.8395 -1.1110
   15MOL   H369 7397   0.524   1.621   3.022 -0.3534 -0.2047 -0.0232
   15MOL   H370 7398   0.325   1.776   3.022  1.2707  0.2274 -3.0551
   15MOL   H371 7399   0.225   1.659   2.955 -0.4081 -1.6506  2.4320
   15MOL   H372 7400   0.182   1.646   3.199  0.5146  0.5596 -1.0934
   15MOL   H373 7401   0.247   1.505   3.131  0.4305  0.6715 -2.4046
   15MOL   H374 7402   0.476   1.557   3.232  0.5018 -1.5959  1.7613
   15MOL   H375 7403   0.415   1.714   3.291  0.5764 -0.5042  1.4576
   15MOL   H376 7404   0.344   1.551   3.345 -0.8840 -2.7061 -3.0281
   15MOL   C377 7405   0.701   1.455   2.538  0.5294 -0.5355 -0.5591
   15MOL   C378 7406   0.792   1.442   2.417  0.3670  0.2983 -0.2416
   15MOL   O379 7407   0.739   1.515   2.307 -0.7684 -0.1922  0.3156
   15MOL   C380 7408   0.793   1.648   2.298 -0.0783 -0.2980 -0.4579
   15MOL   C381 7409   0.726   1.727   2.190  0.2075  0.1557 -0.7890
   15MOL   C382 7410   0.795   1.858   2.161 -0.6726 -0.0821 -0.1487
   15MOL   C383 7411   0.713   1.945   2.068 -0.1402 -0.6709  0.0105
   15MOL   C384 7412   0.772   2.088   2.070 -0.4948  1.0794  0.2095
   15MOL   C385 7413   0.690   2.184   1.992  0.3343 -1.3634 -0.2888
   15MOL   H386 7414   0.626   1.377   2.536 -1.4570  1.2945  0.3336
   15MOL   H387 7415   0.637   1.542   2.524 -0.6460 -1.5392 -1.4842
   15MOL   H388 7416   0.893   1.478   2.438  0.6559  0.5241 -1.9184
   15MOL   H389 7417   0.901   1.653   2.288 -0.1473  2.4782 -0.2404
   15MOL   H390 7418   0.769   1.695   2.393  1.1298  1.3520 -0.9521
   15MOL   H391 7419   0.621   1.731   2.220 -0.0085  1.3629 -1.6688
   15MOL   H392 7420   0.733   1.660   2.104 -1.2799  0.2859 -1.0225
   15MOL   H393 7421   0.783   1.918   2.252 -1.2975  0.4850 -0.5902
   15MOL   H394 7422   0.899   1.868   2.131 -1.4507  0.6881 -2.6644
   15MOL   H395 7423   0.715   1.915   1.963  0.0208 -1.6610  0.2947
   15MOL   H396 7424   0.608   1.938   2.095  0.3554 -2.1912  1.5736
   15MOL   H397 7425   0.771   2.130   2.171 -2.0803 -0.6766  0.9603
   15MOL   H398 7426   0.874   2.075   2.034 -0.0645 -1.3187  2.0757
   15MOL   H399 7427   0.726   2.286   1.976  2.4184 -2.4732 -2.8744
   15MOL   H400 7428   0.685   2.143   1.891  2.4940  0.2055 -1.0726
   15MOL   H401 7429   0.593   2.198   2.040 -0.2625  0.9651 -2.0694
   15MOL   C402 7430   0.816   1.297   2.356  0.6641 -0.8466 -0.0261
   15MOL   C403 7431   0.881   1.276   2.215 -0.1702 -0.0059  0.5654
   15MOL   O404 7432   0.872   1.130   2.198 -0.2476  0.3085 -0.0364
   15MOL   C405 7433   0.796   1.095   2.082 -0.1762 -0.3338  0.0247
   15MOL   C406 7434   0.652   1.077   2.118  0.8321  0.2081  0.4690
   15MOL   C407 7435   0.561   1.042   1.998 -0.2651 -0.0999  0.1762
   15MOL   C408 7436   0.422   0.990   2.034  0.5029  0.2652  0.3836
   15MOL   C409 7437   0.339   1.073   2.132  0.3103  0.3982  0.3445
   15MOL   C410 7438   0.199   1.016   2.133  0.6453  0.1369 -0.2121
   15MOL   H411 7439   0.730   1.232   2.363  1.9812 -2.6445 -0.2595
   15MOL   H412 7440   0.872   1.239   2.429 -1.6772  0.3720  2.8591
   15MOL   H413 7441   0.818   1.328   2.142 -0.6222 -0.8455  0.3460
   15MOL   H414 7442   0.833   1.003   2.036  1.6217 -0.0834  0.9379
   15MOL   H415 7443   0.814   1.159   1.995 -0.9968 -2.5173 -1.7894
   15MOL   H416 7444   0.618   1.178   2.142  1.1681 -0.1591  2.5831
   15MOL   H417 7445   0.633   1.012   2.204 -2.9858  0.3493 -0.2139
   15MOL   H418 7446   0.547   1.130   1.936 -1.2493 -1.1470 -1.1079
   15MOL   H419 7447   0.618   0.971   1.938  1.0005  0.2982  0.8761
   15MOL   H420 7448   0.367   0.960   1.945 -3.9229  1.7466  2.5084
   15MOL   H421 7449   0.445   0.891   2.075  2.8123  0.9694  0.8700
   15MOL   H422 7450   0.378   1.079   2.233  1.0893  3.1304 -0.0869
   15MOL   H423 7451   0.333   1.176   2.098 -3.0639 -0.0411 -0.6310
   15MOL   H424 7452   0.207   0.918   2.181  1.5214  0.0693 -0.4863
   15MOL   H425 7453   0.131   1.080   2.190  2.2902 -1.0080  3.1782
   15MOL   H426 7454   0.152   1.002   2.036 -0.3227 -0.2815  0.3092
   15MOL   C427 7455   1.032   1.308   2.206 -0.3054  0.1563  0.3043
   15MOL   C428 7456   1.082   1.339   2.064 -0.4211 -0.4610  0.4559
   15MOL   O429 7457   1.057   1.475   2.048 -0.3802 -0.7277  0.6850
   15MOL   C430 7458   0.978   1.511   1.936  0.0742  0.3681 -0.5952
   15MOL   C431 7459   1.001   1.659   1.924  0.3804 -0.2288  0.1774
   15MOL   C432 7460   1.120   1.702   1.841 -0.0199  0.1658 -0.0351
   15MOL   C433 7461   1.147   1.850   1.879  0.4199  0.1361 -0.6542
   15MOL   C434 7462   1.237   1.914   1.777  0.3321  0.0500  0.1645
   15MOL   C435 7463   1.250   2.067   1.776  0.1136 -0.1607  0.7150
   15MOL   H436 7464   1.042   1.396   2.269 -1.5133  1.0333 -0.6982
   15MOL   H437 7465   1.090   1.231   2.258 -4.2467 -3.5808 -0.4556
   15MOL   H438 7466   1.023   1.279   1.995  1.6791 -1.5308 -0.4532
   15MOL   H439 7467   0.874   1.480   1.951  0.3842  0.7067  2.5903
   15MOL   H440 7468   1.014   1.467   1.843 -1.7265 -2.4406 -0.0308
   15MOL   H441 7469   1.000   1.711   2.020  1.0629 -0.5989  0.3903
   15MOL   H442 7470   0.913   1.702   1.877  1.5452  3.6153  1.3407
   15MOL   H443 7471   1.213   1.650   1.863 -0.7045 -0.3989  1.5633
   15MOL   H444 7472   1.093   1.702   1.735  0.4701 -0.9050 -0.1608
   15MOL   H445 7473   1.055   1.907   1.895  0.9807  0.6175  0.9563
   15MOL   H446 7474   1.206   1.863   1.970 -1.7233  2.0626  0.5221
   15MOL   H447 7475   1.334   1.866   1.796 -0.4795 -2.2794 -1.3313
   15MOL   H448 7476   1.215   1.879   1.676  0.1522  0.2352  0.1404
   15MOL   H449 7477   1.292   2.123   1.692 -0.5146 -0.3424  0.2690
   15MOL   H450 7478   1.146   2.098   1.761  0.5210  0.2633 -1.4232
   15MOL   H451 7479   1.274   2.109   1.873  1.2880  2.3716 -0.6257
   15MOL   C452 7480   1.234   1.318   2.050 -0.0239 -0.9799 -0.7898
   15MOL   C453 7481   1.267   1.167   2.046  0.8864 -0.4170 -0.4191
   15MOL   O454 7482   1.248   1.109   2.180 -0.3034  0.1000  0.1078
   15MOL   C455 7483   1.220   0.967   2.194  0.0878 -0.9959  0.1187
   15MOL   C456 7484   1.211   0.927   2.335  1.0676  0.2238 -0.1673
   15MOL   C457 7485   1.082   0.971   2.404 -0.0146 -0.0012  0.2013
   15MOL   C458 7486   1.056   0.925   2.547  0.1949 -0.5282  0.0920
   15MOL   C459 7487   0.905   0.932   2.582 -0.2668 -0.0038 -0.2762
   15MOL   C460 7488   0.864   0.893   2.725  0.1658  0.0088  0.1800
   15MOL   H461 7489   1.257   1.378   1.962  1.3523  1.5708  1.2027
   15MOL   H462 7490   1.279   1.368   2.137  0.3416  1.4663 -2.3334
   15MOL   H463 7491   1.197   1.117   1.978 -1.5645 -0.1395  1.8096
   15MOL   H464 7492   1.298   0.915   2.138  0.1245  0.5533 -1.3257
   15MOL   H465 7493   1.122   0.942   2.153  0.8038  0.9045 -2.9462
   15MOL   H466 7494   1.301   0.954   2.389  1.8014  0.5563 -1.5238
   15MOL   H467 7495   1.220   0.818   2.340  3.0090  0.4728  2.7660
   15MOL   H468 7496   1.068   1.078   2.389  1.0007  0.3869  1.9134
   15MOL   H469 7497   0.994   0.933   2.351  0.2951 -1.9363  1.0093
   15MOL   H470 7498   1.086   0.820   2.549 -1.0889 -0.9160  3.0045
   15MOL   H471 7499   1.124   0.986   2.608  0.8693 -0.3345 -0.8505
   15MOL   H472 7500   0.877   1.036   2.562  0.3789  0.6021  1.8426
   15MOL   H473 7501   0.847   0.872   2.511 -1.1131  0.0798  0.3458
   15MOL   H474 7502   0.935   0.919   2.803 -0.1228  0.7513  0.2027
   15MOL   H475 7503   0.769   0.936   2.756 -0.3336 -1.4055  0.6442
   15MOL   H476 7504   0.851   0.785   2.735 -2.2684  0.1520 -0.9323
   15MOL   C477 7505   1.415   1.140   2.000  0.4840 -0.3051  0.2015
   15MOL   C478 7506   1.458   1.176   1.854 -0.4419  0.6125 -0.6478
   15MOL   O479 7507   1.591   1.136   1.842 -0.3263  0.5171  0.2813
   15MOL   C480 7508   1.665   1.188   1.732  0.3695  0.4868  0.1347
   15MOL   C481 7509   1.632   1.116   1.601 -0.2664  0.1126 -0.4940
   15MOL   C482 7510   1.684   1.193   1.479 -0.2080  0.1370 -0.2698
   15MOL   C483 7511   1.696   1.107   1.351 -0.1522 -0.0939  0.0125
   15MOL   C484 7512   1.751   1.173   1.228 -0.8766  0.4387  0.2745
   15MOL   C485 7513   1.898   1.210   1.252  0.6402  0.4529  0.5749
   15MOL   H486 7514   1.485   1.194   2.065  0.9407  1.5127 -1.7414
   15MOL   H487 7515   1.438   1.035   2.016  2.4444  0.1707  0.5849
   15MOL   H488 7516   1.406   1.123   1.774 -0.4028 -0.6157  0.1235
   15MOL   H489 7517   1.773   1.183   1.752  0.2712 -1.2041  0.3455
   15MOL   H490 7518   1.634   1.292   1.737  0.5963  0.5530  0.1843
   15MOL   H491 7519   1.524   1.106   1.604 -0.2887  0.6142  1.1106
   15MOL   H492 7520   1.676   1.017   1.608  1.5506  0.8524 -1.0694
   15MOL   H493 7521   1.637   1.289   1.455 -0.1260  0.7282  1.8560
   15MOL   H494 7522   1.783   1.228   1.506 -0.6105 -1.2365  3.3114
   15MOL   H495 7523   1.741   1.010   1.369 -0.3516  0.2186  2.3874
   15MOL   H496 7524   1.594   1.082   1.321 -0.9560 -0.4810  2.9212
   15MOL   H497 7525   1.736   1.102   1.147  1.2471  0.8268 -0.4928
   15MOL   H498 7526   1.698   1.266   1.208 -2.4024 -0.1166  1.6206
   15MOL   H499 7527   1.960   1.129   1.292  0.7902 -0.3241 -1.1868
   15MOL   H500 7528   1.931   1.235   1.151 -0.3101 -0.6245 -0.0067
   15MOL   H501 7529   1.913   1.298   1.314 -0.6979  0.7679  0.4613
   15MOL   H502 7530   1.440   1.280   1.829 -0.0464  0.7965 -0.1775
   16MOL     C1 7531   0.471   2.041   6.664  0.6257  0.0198 -0.6312
   16MOL     C2 7532   0.555   2.171   6.659 -0.4805 -0.4919 -0.0888
   16MOL     O3 7533   0.681   2.130   6.695 -0.6590 -0.5323 -0.0389
   16MOL     C4 7534   0.768   2.085   6.591  0.1198 -0.0438  0.0401
   16MOL     C5 7535   0.891   2.025   6.645 -0.1291  0.7406 -0.3492
   16MOL     C6 7536   0.994   2.127   6.687 -0.3916  0.3258  0.3347
   16MOL     C7 7537   1.110   2.066   6.772  0.3316  0.5352  0.5007
   16MOL     C8 7538   1.234   2.150   6.758  0.0513  0.3841 -0.5272
   16MOL     C9 7539   1.208   2.301   6.788 -0.3280 -0.1078 -0.6450
   16MOL    H10 7540   0.366   2.068   6.650  0.4041  0.0111  0.8820
   16MOL    H11 7541   0.506   1.975   6.585  0.8598  0.1081 -0.5989
   16MOL    H12 7542   0.553   2.206   6.556  0.1493 -0.5234 -0.1117
   16MOL    H13 7543   0.789   2.174   6.531  1.4506 -0.1949  0.2762
   16MOL    H14 7544   0.714   2.005   6.540 -0.7312  0.3128  0.3585
   16MOL    H15 7545   0.938   1.953   6.578 -2.4076  1.7006 -3.1191
   16MOL    H16 7546   0.860   1.974   6.736 -0.2824 -0.7304 -1.2067
   16MOL    H17 7547   1.037   2.169   6.596 -3.1409  1.1049 -0.6421
   16MOL    H18 7548   0.937   2.207   6.733 -0.5516  1.6731 -2.0952
   16MOL    H19 7549   1.080   2.055   6.876  2.0232 -0.3802  0.9056
   16MOL    H20 7550   1.157   1.975   6.735  0.9550  1.2368 -0.4709
   16MOL    H21 7551   1.278   2.127   6.661 -0.7848 -1.6017 -0.4685
   16MOL    H22 7552   1.304   2.108   6.831  0.6573  0.7087 -0.9185
   16MOL    H23 7553   1.302   2.357   6.785 -1.4373  1.8148 -0.7865
   16MOL    H24 7554   1.136   2.346   6.719 -0.6766 -0.4843 -0.5317
   16MOL    H25 7555   1.156   2.331   6.879  0.3890 -0.7123 -0.0323
   16MOL    H26 7556   0.482   1.977   6.752 -0.7774  1.5421  0.6904
   16MOL    C27 7557   0.489   2.277   6.751  0.3140  0.1910  0.2100
   16MOL    C28 7558   0.576   2.400   6.787  0.4305 -0.0607  0.0986
   16MOL    O29 7559   0.607   2.468   6.669 -0.2914  0.7949  0.1847
   16MOL    C30 7560   0.745   2.491   6.638 -0.0486 -0.2633  0.6080
   16MOL    C31 7561   0.745   2.570   6.508 -0.1172  0.4763 -0.2496
   16MOL    C32 7562   0.878   2.573   6.430  0.0942  0.3047 -0.3949
   16MOL    C33 7563   0.890   2.455   6.329 -1.2374  0.3659  0.6101
   16MOL    C34 7564   1.045   2.421   6.306 -0.1655 -0.5898  0.6268
   16MOL    C35 7565   1.080   2.335   6.183  0.5243  0.3210 -0.5986
   16MOL    H36 7566   0.395   2.314   6.709  0.0951 -1.8288 -1.0937
   16MOL    H37 7567   0.455   2.233   6.845 -0.3448  1.0412  0.3823
   16MOL    H38 7568   0.669   2.365   6.830  1.8260  1.4863 -1.5706
   16MOL    H39 7569   0.804   2.399   6.629 -2.2638 -1.5388 -1.2271
   16MOL    H40 7570   0.784   2.555   6.717  0.6669  0.5558 -0.3946
   16MOL    H41 7571   0.707   2.668   6.537  3.5235  1.4156  1.6088
   16MOL    H42 7572   0.670   2.516   6.450  0.4991 -0.6875  0.0295
   16MOL    H43 7573   0.888   2.666   6.374  0.2690  0.8879  0.6006
   16MOL    H44 7574   0.954   2.565   6.508  1.9402 -0.8791 -2.2516
   16MOL    H45 7575   0.844   2.365   6.370 -0.6643 -0.8248 -1.2949
   16MOL    H46 7576   0.832   2.478   6.239 -0.2510 -0.8008 -0.3362
   16MOL    H47 7577   1.113   2.506   6.316 -3.1048  2.1235 -1.3672
   16MOL    H48 7578   1.061   2.364   6.397 -1.1876  0.0214  1.2028
   16MOL    H49 7579   1.030   2.238   6.183 -2.5501  1.8448 -0.9430
   16MOL    H50 7580   1.056   2.401   6.099 -0.0572 -1.0792 -1.5422
   16MOL    H51 7581   1.182   2.299   6.192 -0.3277 -1.8186  0.8955
   16MOL    C52 7582   0.490   2.492   6.885 -0.4193  0.2774  0.6969
   16MOL    C53 7583   0.559   2.616   6.950  0.3007  0.4735  0.3054
   16MOL    O54 7584   0.464   2.695   7.018  0.7226  0.2122  0.1752
   16MOL    C55 7585   0.391   2.791   6.942 -0.7550 -0.0236  0.1185
   16MOL    C56 7586   0.265   2.830   7.015  0.0295 -0.1620 -0.0251
   16MOL    C57 7587   0.296   2.921   7.131 -0.3174  0.0509  0.1394
   16MOL    C58 7588   0.168   2.957   7.226  0.2305 -0.0944  0.3338
   16MOL    C59 7589   0.216   3.045   7.340  0.3724 -0.1803  0.6067
   16MOL    C60 7590   0.101   3.100   7.430 -0.3133  0.6591  0.2926
   16MOL    H61 7591   0.461   2.438   6.975  0.4950  0.3183  1.0240
   16MOL    H62 7592   0.399   2.515   6.829  0.3830 -0.1733 -0.8367
   16MOL    H63 7593   0.605   2.674   6.871  1.1371 -0.9827 -0.2987
   16MOL    H64 7594   0.363   2.750   6.846  0.4044  2.4372 -1.3258
   16MOL    H65 7595   0.460   2.874   6.924  0.5674 -1.1976 -0.3458
   16MOL    H66 7596   0.212   2.738   7.040 -1.4042  0.9765  1.2302
   16MOL    H67 7597   0.195   2.875   6.945 -0.0436  0.1477  0.2481
   16MOL    H68 7598   0.387   2.888   7.181 -0.6154  1.2774  1.5366
   16MOL    H69 7599   0.329   3.018   7.093 -0.4829 -0.4429 -1.2798
   16MOL    H70 7600   0.075   2.984   7.175  2.4685  2.1999 -2.6998
   16MOL    H71 7601   0.147   2.862   7.275 -0.3640  0.2680  0.7904
   16MOL    H72 7602   0.290   2.990   7.397 -0.7024  1.0157  3.2353
   16MOL    H73 7603   0.272   3.122   7.287  0.6513 -0.2920  0.7390
   16MOL    H74 7604   0.036   3.160   7.366 -0.1675  0.6002  0.0872
   16MOL    H75 7605   0.047   3.026   7.488 -0.3742  0.2802 -0.2442
   16MOL    H76 7606   0.154   3.172   7.492  2.0943  0.1952 -1.1491
   16MOL    C77 7607   0.669   2.580   7.057  0.4578  0.1657 -0.2647
   16MOL    C78 7608   0.768   2.696   7.081  0.1434 -0.5127  0.0213
   16MOL    O79 7609   0.881   2.640   7.143 -0.4218  0.1780  0.3424
   16MOL    C80 7610   1.002   2.665   7.074 -0.8443  0.3264 -0.3481
   16MOL    C81 7611   1.109   2.597   7.169 -0.7232 -0.9970 -0.0254
   16MOL    C82 7612   1.094   2.438   7.168  0.1030  0.6497 -0.2842
   16MOL    C83 7613   1.202   2.358   7.245 -0.2903 -0.4198  0.2903
   16MOL    C84 7614   1.225   2.412   7.390 -0.2704  1.0963 -0.0153
   16MOL    C85 7615   1.107   2.422   7.488  0.0705  0.2458  0.2284
   16MOL    H86 7616   0.719   2.490   7.021 -0.2177  0.5940 -2.3884
   16MOL    H87 7617   0.614   2.554   7.147 -1.0300  0.0065 -1.1994
   16MOL    H88 7618   0.787   2.746   6.986 -3.0729 -1.5972 -1.2584
   16MOL    H89 7619   1.021   2.772   7.068 -0.1324  0.1369 -1.6570
   16MOL    H90 7620   1.014   2.615   6.978  2.3790 -2.7114  1.4911
   16MOL    H91 7621   1.101   2.644   7.267 -0.0376  0.7865 -0.8151
   16MOL    H92 7622   1.210   2.622   7.137  0.4676 -1.3141  3.2710
   16MOL    H93 7623   0.999   2.428   7.221 -0.1142  1.0702 -0.6001
   16MOL    H94 7624   1.089   2.404   7.065 -1.0921 -2.0412  0.6096
   16MOL    H95 7625   1.176   2.252   7.251 -3.9380  0.4314  0.8207
   16MOL    H96 7626   1.299   2.358   7.197 -1.3427 -0.7751 -1.9225
   16MOL    H97 7627   1.303   2.354   7.439 -0.3986  0.5882 -0.4087
   16MOL    H98 7628   1.264   2.513   7.384 -0.1647  1.0094 -0.9383
   16MOL    H99 7629   1.024   2.482   7.451 -0.5183 -1.6119 -1.5524
   16MOL   H100 7630   1.076   2.317   7.491 -1.1306  0.6120  3.1505
   16MOL   H101 7631   1.140   2.455   7.586 -0.8848 -0.3630  0.7689
   16MOL   C102 7632   0.717   2.807   7.172  0.1481 -0.6258  0.4343
   16MOL   C103 7633   0.807   2.930   7.211  0.2307  0.5701  0.0532
   16MOL   O104 7634   0.711   3.030   7.244  0.6406 -0.3393 -0.4522
   16MOL   C105 7635   0.702   3.135   7.149 -0.6257  0.3426 -0.3215
   16MOL   C106 7636   0.603   3.243   7.189 -0.2146 -0.3113  0.7113
   16MOL   C107 7637   0.608   3.370   7.103  0.0075 -0.5004 -0.1793
   16MOL   C108 7638   0.524   3.487   7.154  0.3908 -0.4432  0.4169
   16MOL   C109 7639   0.498   3.589   7.042  0.3462  0.3400 -0.4091
   16MOL   C110 7640   0.379   3.670   7.071  0.5174 -0.1985  0.1225
   16MOL   H111 7641   0.628   2.853   7.131  0.4248 -1.0501 -0.6511
   16MOL   H112 7642   0.682   2.761   7.265 -0.9802 -1.4965 -0.4117
   16MOL   H113 7643   0.875   2.956   7.130  0.4923 -1.6106 -0.4474
   16MOL   H114 7644   0.672   3.095   7.052  1.5103 -0.8165 -0.5325
   16MOL   H115 7645   0.804   3.169   7.133 -0.2791 -1.1968 -1.5591
   16MOL   H116 7646   0.613   3.267   7.295  1.0968  0.9178  0.3208
   16MOL   H117 7647   0.507   3.191   7.180  1.1622 -2.4411 -2.6725
   16MOL   H118 7648   0.713   3.401   7.094 -0.2764 -0.3355 -3.3946
   16MOL   H119 7649   0.582   3.342   7.002  0.8671 -1.8031 -0.0509
   16MOL   H120 7650   0.423   3.461   7.184 -0.4950  2.1783 -0.1880
   16MOL   H121 7651   0.571   3.530   7.242 -1.3030  1.5922  0.3335
   16MOL   H122 7652   0.581   3.658   7.025 -0.4420  0.6542 -3.2754
   16MOL   H123 7653   0.482   3.529   6.952 -1.7293 -1.4086  1.0814
   16MOL   H124 7654   0.400   3.738   7.154  1.7658 -2.3413  1.5974
   16MOL   H125 7655   0.357   3.729   6.982 -1.3746 -2.8539 -1.2329
   16MOL   H126 7656   0.292   3.606   7.087  1.2472 -1.4707 -0.8986
   16MOL   C127 7657   0.882   2.896   7.336  1.1110  0.0590 -0.0659
   16MOL   C128 7658   1.006   2.989   7.346  0.7503  0.3505 -0.6795
   16MOL   O129 7659   1.084   2.969   7.229  0.3990  0.1232  0.2692
   16MOL   C130 7660   1.187   3.060   7.197  0.5114 -0.3073  0.0760
   16MOL   C131 7661   1.306   2.985   7.127  0.4820 -0.1771  0.1274
   16MOL   C132 7662   1.394   2.914   7.231 -0.2584 -0.6077 -0.0048
   16MOL   C133 7663   1.491   3.016   7.306  0.0422 -0.1378 -0.7810
   16MOL   C134 7664   1.544   2.950   7.430 -0.0820  0.4659  0.0461
   16MOL   C135 7665   1.640   3.042   7.496  0.6494  0.1484  0.7515
   16MOL   H136 7666   0.817   2.897   7.424  0.3667  0.0734 -0.6077
   16MOL   H137 7667   0.918   2.794   7.327 -0.8537 -0.5891 -0.7805
   16MOL   H138 7668   0.966   3.091   7.351  0.4815  0.2658 -1.0752
   16MOL   H139 7669   1.208   3.116   7.288  0.4920 -2.5610  1.5053
   16MOL   H140 7670   1.147   3.133   7.126  1.3242  1.9393  1.8924
   16MOL   H141 7671   1.361   3.071   7.088  0.7378 -0.9582 -1.2473
   16MOL   H142 7672   1.272   2.922   7.046 -2.5572  2.1744 -0.5415
   16MOL   H143 7673   1.323   2.872   7.302 -0.9720 -0.3126 -0.5365
   16MOL   H144 7674   1.456   2.838   7.185  0.7776 -0.6700  1.4656
   16MOL   H145 7675   1.573   3.040   7.240 -0.6406  0.2886 -1.4885
   16MOL   H146 7676   1.446   3.113   7.328  0.3379 -0.3991  1.0588
   16MOL   H147 7677   1.456   2.935   7.492  0.9149  2.2424  1.9503
   16MOL   H148 7678   1.590   2.852   7.412 -0.9344  0.0282  0.2189
   16MOL   H149 7679   1.727   3.048   7.431 -1.3810 -0.5621 -2.1340
   16MOL   H150 7680   1.595   3.140   7.513  4.6716  1.9750  1.5191
   16MOL   H151 7681   1.666   3.006   7.595 -0.5452 -2.3610  0.1829
   16MOL   C152 7682   1.088   2.974   7.473  0.2426  0.2491  0.6832
   16MOL   C153 7683   1.025   2.984   7.618  0.3609  0.0362  0.1659
   16MOL   O154 7684   1.112   2.912   7.704 -0.6180 -0.3621 -0.3477
   16MOL   C155 7685   1.082   2.782   7.746  0.7674 -0.0925 -0.8820
   16MOL   C156 7686   0.981   2.784   0.086  0.0006  0.6076  0.1787
   16MOL   C157 7687   1.022   2.853   0.215  0.1530 -0.1428  0.0745
   16MOL   C158 7688   0.928   2.817   0.336 -0.1569 -0.4310 -0.4276
   16MOL   C159 7689   0.955   2.684   0.404  0.5936 -0.4407 -0.0887
   16MOL   C160 7690   1.057   2.709   0.518 -0.0830  0.4617  0.0761
   16MOL   H161 7691   1.132   2.874   7.470  0.3485  0.2893  0.8393
   16MOL   H162 7692   1.175   3.040   7.474 -1.1551  2.1480 -1.2949
   16MOL   H163 7693   0.925   2.941   7.623  0.5800 -0.4761  0.0488
   16MOL   H164 7694   1.168   2.727   0.007  0.7288 -0.4004 -1.2395
   16MOL   H165 7695   1.038   2.722   7.666 -2.5338 -0.2318  0.9082
   16MOL   H166 7696   0.959   2.682   0.118 -2.8374  1.1681  0.0762
   16MOL   H167 7697   0.880   2.812   0.058  0.6825  1.3370 -1.6391
   16MOL   H168 7698   1.123   2.821   0.241 -0.9128 -2.5235  1.4417
   16MOL   H169 7699   1.017   2.961   0.202  1.7448 -0.2339 -1.5213
   16MOL   H170 7700   0.915   2.893   0.413 -0.5618 -3.0540  2.1955
   16MOL   H171 7701   0.830   2.802   0.289 -0.3265 -0.8268  0.0465
   16MOL   H172 7702   0.861   2.651   0.448  0.7676 -1.6461 -0.6080
   16MOL   H173 7703   0.973   2.602   0.334 -2.7568  0.7403 -2.4277
   16MOL   H174 7704   1.137   2.780   0.500 -0.3443  1.0294  1.1048
   16MOL   H175 7705   1.002   2.748   0.604 -1.6364  2.6814 -1.8816
   16MOL   H176 7706   1.106   2.616   0.550  0.8884  0.4831 -1.2903
   16MOL   C177 7707   1.015   3.138   7.652 -0.1766  1.0083 -0.3695
   16MOL   C178 7708   0.934   3.174   7.776  0.5198  0.2695  0.1427
   16MOL   O179 7709   0.995   3.294   0.054  0.5064 -0.6326 -0.1922
   16MOL   C180 7710   0.993   3.297   0.199 -1.0209  0.1222 -1.0355
   16MOL   C181 7711   1.049   3.433   0.254 -0.9448 -0.2317  0.2635
   16MOL   C182 7712   1.194   3.448   0.234 -0.0781  0.0531  0.4046
   16MOL   C183 7713   1.234   3.578   0.298  0.0667  0.6849  0.2655
   16MOL   C184 7714   1.383   3.610   0.274  0.0624 -0.1821 -0.0436
   16MOL   C185 7715   1.417   3.752   0.314 -0.0421 -0.4844  0.7067
   16MOL   H186 7716   1.118   3.172   7.661 -1.0108  3.2417  1.2900
   16MOL   H187 7717   0.974   3.186   7.563 -1.3402 -0.4797 -0.6635
   16MOL   H188 7718   0.935   3.089   0.068 -1.8348 -0.4109 -0.5960
   16MOL   H189 7719   1.058   3.213   0.225 -1.3051  0.0365 -0.6011
   16MOL   H190 7720   0.895   3.295   0.247 -2.4444  2.2255 -3.7101
   16MOL   H191 7721   1.041   3.425   0.363 -0.9871 -1.4055  0.1858
   16MOL   H192 7722   0.988   3.511   0.210 -1.3270 -0.4017  0.4892
   16MOL   H193 7723   1.247   3.367   0.283  1.5798 -0.1610 -1.6835
   16MOL   H194 7724   1.211   3.448   0.126 -2.7457 -1.3295 -0.0622
   16MOL   H195 7725   1.172   3.655   0.253 -1.1246 -1.0553 -1.1737
   16MOL   H196 7726   1.209   3.577   0.404 -2.1229 -3.5681 -0.2038
   16MOL   H197 7727   1.438   3.541   0.338  1.4760  1.4881  0.5664
   16MOL   H198 7728   1.401   3.577   0.172  0.0068  2.2608 -0.8768
   16MOL   H199 7729   1.375   3.836   0.258  2.8618  1.1813  0.9660
   16MOL   H200 7730   1.395   3.766   0.420 -1.5962  4.2841 -0.1132
   16MOL   H201 7731   1.526   3.756   0.307  0.0770 -3.5798 -0.1182
   16MOL   C202 7732   0.787   3.194   7.741  0.0697 -0.7404 -0.3953
   16MOL   C203 7733   0.687   3.086   0.005 -0.3291  0.0741 -0.1648
   16MOL   O204 7734   0.563   3.141   7.739 -1.0257 -0.1520 -0.1948
   16MOL   C205 7735   0.533   3.138   7.601 -0.1308  0.5356 -0.0981
   16MOL   C206 7736   0.424   3.243   7.576 -0.1115  0.2045 -0.2375
   16MOL   C207 7737   0.480   3.386   7.600  0.0621  0.0503 -0.0884
   16MOL   C208 7738   0.401   3.502   7.533 -0.7118  0.0607  0.7491
   16MOL   C209 7739   0.463   3.644   7.557 -0.2212 -0.9723  0.2643
   16MOL   C210 7740   0.378   3.754   7.490  0.6221  0.1979 -0.1149
   16MOL   H211 7741   0.764   3.293   0.002  0.2922 -0.6285 -0.5458
   16MOL   H212 7742   0.785   3.209   7.633 -1.0455 -0.1519 -0.2977
   16MOL   H213 7743   0.709   2.993   7.729 -1.4485 -0.2727 -0.0359
   16MOL   H214 7744   0.497   3.040   7.569  2.0468 -0.4231  0.3427
   16MOL   H215 7745   0.613   3.157   7.530  1.9636 -0.6182  1.8727
   16MOL   H216 7746   0.337   3.228   7.640  0.9130 -1.1941  0.8340
   16MOL   H217 7747   0.386   3.232   7.474 -2.1821 -2.3673  0.7490
   16MOL   H218 7748   0.477   3.411   7.706  0.6738  0.1729 -0.0997
   16MOL   H219 7749   0.582   3.386   7.562 -0.6144 -3.6648 -2.0588
   16MOL   H220 7750   0.387   3.492   7.425  2.5512  2.7000 -0.0231
   16MOL   H221 7751   0.301   3.505   7.575 -0.6871 -0.4257  0.8351
   16MOL   H222 7752   0.470   3.661   7.664  3.5696 -0.9915  0.0889
   16MOL   H223 7753   0.563   3.641   7.515 -0.5281  3.0121 -0.9780
   16MOL   H224 7754   0.382   3.747   7.382  0.7975  0.5564 -0.1304
   16MOL   H225 7755   0.277   3.757   7.530  0.5337 -1.3968 -0.1682
   16MOL   H226 7756   0.415   3.850   7.525  0.9618  0.3273 -0.8323
   16MOL   C227 7757   0.668   3.065   0.154  0.3038 -0.2352 -0.6608
   16MOL   C228 7758   0.574   2.945   0.179  0.1303 -0.4661 -0.8364
   16MOL   O229 7759   0.641   2.835   0.125 -0.0918 -0.5556 -0.3158
   16MOL   C230 7760   0.549   2.750   0.066 -0.0161 -0.6315 -0.7808
   16MOL   C231 7761   0.620   2.634   7.774 -0.3955 -0.6499 -0.0575
   16MOL   C232 7762   0.679   2.684   7.642  0.6325 -0.6181  0.3204
   16MOL   C233 7763   0.767   2.589   7.567  0.0120  0.0175 -0.0187
   16MOL   C234 7764   0.681   2.481   7.494  0.5627 -0.6518 -1.1240
   16MOL   C235 7765   0.762   2.371   7.415  0.1800 -0.3699  0.4520
   16MOL   H236 7766   0.765   3.044   0.198  1.5293  2.9444 -1.7335
   16MOL   H237 7767   0.634   3.158   0.201 -0.1478  0.6290 -2.6727
   16MOL   H238 7768   0.478   2.965   0.132 -0.3979 -0.8398  0.0643
   16MOL   H239 7769   0.485   2.804   7.773 -0.9702  1.0116  1.3051
   16MOL   H240 7770   0.476   2.717   0.140  0.9425  0.2084  0.5572
   16MOL   H241 7771   0.542   2.565   7.743 -2.0213  1.8465 -1.7833
   16MOL   H242 7772   0.685   2.578   0.064 -0.7028  0.8171  1.4973
   16MOL   H243 7773   0.604   2.723   7.573  1.2830 -0.4754 -0.3107
   16MOL   H244 7774   0.738   2.774   7.658 -0.9002  0.1886  1.6016
   16MOL   H245 7775   0.832   2.646   7.501 -0.0414 -1.8534 -1.7141
   16MOL   H246 7776   0.829   2.537   7.639  1.3177 -1.5377 -2.2359
   16MOL   H247 7777   0.606   2.439   7.560  1.1229  2.2164  1.4586
   16MOL   H248 7778   0.615   2.524   7.418  0.2542 -1.9244 -1.5787
   16MOL   H249 7779   0.711   2.282   7.379 -1.2397 -0.0866  1.7299
   16MOL   H250 7780   0.790   2.400   7.314 -5.1171  1.6887 -0.5740
   16MOL   H251 7781   0.847   2.329   7.469  0.3218  0.1813  0.6605
   16MOL   C252 7782   0.562   2.906   0.336  0.0216  0.3169 -0.4165
   16MOL   C253 7783   0.480   3.000   0.427 -0.3048 -0.3097 -0.8158
   16MOL   O254 7784   0.502   2.977   0.567  0.4560  0.0034  0.3557
   16MOL   C255 7785   0.570   3.078   0.644  1.0530  0.2736 -0.5630
   16MOL   C256 7786   0.645   3.027   0.774  0.3238  0.6055  0.7304
   16MOL   C257 7787   0.725   2.895   0.758 -0.3053  0.0424 -0.3572
   16MOL   C258 7788   0.768   2.836   0.897  0.9775 -0.2330 -0.2756
   16MOL   C259 7789   0.837   2.700   0.879 -0.4600  0.1435 -0.4892
   16MOL   C260 7790   0.874   2.628   1.006  0.2965  0.4110  0.2210
   16MOL   H261 7791   0.515   2.808   0.341 -0.7181  0.6105 -1.5252
   16MOL   H262 7792   0.657   2.908   0.390 -0.6557 -0.4829  0.8241
   16MOL   H263 7793   0.507   3.101   0.396  1.1375 -0.0962  1.0247
   16MOL   H264 7794   0.500   3.154   0.678  0.3889 -0.2881 -0.6607
   16MOL   H265 7795   0.641   3.118   0.571 -0.5162  1.5738 -1.4017
   16MOL   H266 7796   0.575   2.997   0.852 -0.1784 -1.0073 -0.3102
   16MOL   H267 7797   0.713   3.104   0.809  0.7961  0.6234 -0.1978
   16MOL   H268 7798   0.659   2.820   0.714 -0.5959  0.2239 -0.2315
   16MOL   H269 7799   0.810   2.896   0.690 -0.6362 -1.3400 -0.8115
   16MOL   H270 7800   0.825   2.915   0.945 -0.6320  0.2953  0.7907
   16MOL   H271 7801   0.685   2.815   0.963 -0.4551  2.7600 -1.0380
   16MOL   H272 7802   0.768   2.630   0.831 -0.3288 -0.5939  0.3978
   16MOL   H273 7803   0.916   2.718   0.805 -0.5300  0.2902 -0.5299
   16MOL   H274 7804   0.950   2.681   1.063 -0.0108 -0.4552  1.4553
   16MOL   H275 7805   0.780   2.628   1.060  0.7042  1.6542  0.9374
   16MOL   H276 7806   0.903   2.527   0.979 -0.8948 -0.0670  0.6839
   16MOL   C277 7807   0.329   2.984   0.396 -0.5161 -0.3907  0.0223
   16MOL   C278 7808   0.244   3.106   0.456  0.4176  0.7749 -0.3422
   16MOL   O279 7809   0.277   3.224   0.382 -0.5873  0.0725  0.9472
   16MOL   C280 7810   0.340   3.331   0.445  0.2585  0.2713  0.8288
   16MOL   C281 7811   0.378   3.430   0.333  0.1504  0.4403  0.3828
   16MOL   C282 7812   0.528   3.477   0.355  0.8791 -0.2159 -0.7926
   16MOL   C283 7813   0.565   3.570   0.245 -0.0021 -0.0253  1.2039
   16MOL   C284 7814   0.708   3.628   0.281  0.2807 -0.7704 -1.2270
   16MOL   C285 7815   0.757   3.727   0.180 -0.0029  0.1478  0.0725
   16MOL   H286 7816   0.313   2.975   0.289  0.8072 -1.1461 -0.1199
   16MOL   H287 7817   0.298   2.886   0.433 -1.1732 -0.6973 -1.2863
   16MOL   H288 7818   0.265   3.107   0.562 -0.2178 -0.3587 -0.1956
   16MOL   H289 7819   0.421   3.297   0.509 -0.5904 -0.8068  1.3587
   16MOL   H290 7820   0.271   3.382   0.513 -0.5635 -1.2571  1.1929
   16MOL   H291 7821   0.304   3.511   0.334 -0.0134  0.2972 -0.0776
   16MOL   H292 7822   0.364   3.384   0.235 -1.7341  0.3529  0.6714
   16MOL   H293 7823   0.541   3.527   0.451 -1.3429  0.4456 -0.8075
   16MOL   H294 7824   0.583   3.383   0.360 -0.4090 -1.0314 -1.5732
   16MOL   H295 7825   0.573   3.524   0.147  2.2514  1.6264  0.5885
   16MOL   H296 7826   0.504   3.660   0.242 -1.3541 -0.9828 -1.5021
   16MOL   H297 7827   0.689   3.663   0.382  0.5039 -1.6607 -0.8701
   16MOL   H298 7828   0.769   3.539   0.297 -0.0714 -0.8918 -0.5357
   16MOL   H299 7829   0.706   3.822   0.194 -0.7743 -0.0238 -1.5865
   16MOL   H300 7830   0.863   3.755   0.183  0.0122  0.0128  1.7032
   16MOL   H301 7831   0.741   3.691   0.079  2.2200  0.3938 -0.3904
   16MOL   C302 7832   0.089   3.091   0.436 -0.4134  0.8853 -0.1249
   16MOL   C303 7833   7.777   3.201   0.513  0.4267 -0.1916  0.2139
   16MOL   O304 7834   0.037   3.205   0.650  0.5111  0.1645 -0.4452
   16MOL   C305 7835   0.048   3.327   0.714 -0.6599 -0.0150 -0.0039
   16MOL   C306 7836   0.097   3.310   0.864 -0.9429  0.7373  0.6716
   16MOL   C307 7837   0.238   3.239   0.881 -0.1997  0.3840  0.4912
   16MOL   C308 7838   0.292   3.230   1.025  0.1194  0.0445 -0.3636
   16MOL   C309 7839   0.413   3.138   1.026  0.1418 -0.0928 -0.0054
   16MOL   C310 7840   0.491   3.129   1.163 -0.7302 -0.1561 -0.5238
   16MOL   H311 7841   0.058   3.088   0.331 -1.1998 -2.5543  0.1631
   16MOL   H312 7842   0.074   2.993   0.481 -0.0289  0.8645 -0.0396
   16MOL   H313 7843   0.018   3.301   0.472 -3.5579  1.1884  1.5375
   16MOL   H314 7844   7.725   3.370   0.723 -1.4491 -1.8995  0.5565
   16MOL   H315 7845   0.122   3.397   0.677  1.3086 -1.2858  1.4291
   16MOL   H316 7846   0.019   3.265   0.925 -0.3338  3.6501  3.7900
   16MOL   H317 7847   0.097   3.415   0.895  0.7648  1.0048 -0.1088
   16MOL   H318 7848   0.231   3.141   0.835 -2.9317  1.1467 -0.7829
   16MOL   H319 7849   0.312   3.287   0.817  1.1966 -0.9740  1.0646
   16MOL   H320 7850   0.313   3.332   1.057  2.5528  0.3328 -2.6824
   16MOL   H321 7851   0.217   3.193   1.095 -0.0878 -1.4742 -1.3802
   16MOL   H322 7852   0.401   3.033   1.001  1.5218  0.2787 -2.4140
   16MOL   H323 7853   0.484   3.180   0.954 -0.3706  2.1055  0.7378
   16MOL   H324 7854   0.585   3.074   1.158  1.0159  2.6768  0.0779
   16MOL   H325 7855   0.509   3.229   1.203 -1.1795 -0.2882  0.0089
   16MOL   H326 7856   0.436   3.080   1.243 -1.7862  2.0233  0.1360
   16MOL   C327 7857   7.625   3.171   0.519  0.1777 -0.2159  0.2251
   16MOL   C328 7858   7.553   3.169   0.378 -0.9372 -0.4140  0.6297
   16MOL   O329 7859   7.426   3.116   0.407  0.5517  0.0280  0.4181
   16MOL   C330 7860   7.411   2.989   0.346 -0.1741  0.0882 -0.7919
   16MOL   C331 7861   7.277   2.931   0.382  0.0026 -0.3626 -0.4684
   16MOL   C332 7862   7.288   2.854   0.515 -0.3897  0.2861  0.0662
   16MOL   C333 7863   7.151   2.805   0.568 -0.2398 -0.4303 -0.4029
   16MOL   C334 7864   7.069   2.727   0.460 -0.3349 -0.6831  0.4009
   16MOL   C335 7865   6.928   2.685   0.518  0.2351 -0.7841 -0.1280
   16MOL   H336 7866   7.575   3.248   0.578 -1.3227 -0.1581 -1.0835
   16MOL   H337 7867   7.605   3.076   0.569 -1.4744  1.3973  2.7276
   16MOL   H338 7868   7.611   3.106   0.311  0.7706  3.1524 -1.3703
   16MOL   H339 7869   7.488   2.919   0.377  0.2094 -0.6577 -3.3114
   16MOL   H340 7870   7.419   2.998   0.238 -0.0108  1.2900 -0.6852
   16MOL   H341 7871   7.239   2.876   0.296 -2.4562  2.2692 -1.1153
   16MOL   H342 7872   7.205   3.012   0.385 -0.5077 -0.8205 -0.2737
   16MOL   H343 7873   7.341   2.759   0.509 -2.3368 -0.8875  1.0407
   16MOL   H344 7874   7.336   2.918   0.588 -1.3769  0.4127  0.6069
   16MOL   H345 7875   7.163   2.738   0.653 -0.8051  0.9522  0.7916
   16MOL   H346 7876   7.099   2.888   0.616  1.3522  0.5812 -0.3970
   16MOL   H347 7877   7.052   2.791   0.373  1.7447 -1.9033 -0.9760
   16MOL   H348 7878   7.132   2.639   0.443 -0.3927 -0.1784 -2.7186
   16MOL   H349 7879   6.868   2.626   0.449 -1.1279  1.0062 -0.5361
   16MOL   H350 7880   6.947   2.630   0.610  0.5706 -0.8072 -0.2103
   16MOL   H351 7881   6.877   2.781   0.529 -1.7093 -1.9335  1.2362
   16MOL   C352 7882   7.552   3.313   0.320  0.6575  0.3530  0.1278
   16MOL   C353 7883   7.547   3.332   0.163  0.1920  0.6416 -0.5951
   16MOL   O354 7884   7.684   3.323   0.121  0.2098  0.0359 -0.0909
   16MOL   C355 7885   7.715   3.310   7.763 -0.1623  0.1949 -0.0700
   16MOL   C356 7886   0.084   3.339   7.743 -0.6522 -0.1649 -0.7228
   16MOL   C357 7887   0.143   3.452   0.051  0.2648 -0.6519  0.4166
   16MOL   C358 7888   0.087   3.597   0.016 -0.1918  0.3889 -0.5175
   16MOL   C359 7889   0.176   3.691   0.097 -0.2566  0.2533  0.4346
   16MOL   C360 7890   0.118   3.833   0.073 -0.3036  0.5775  0.6458
   16MOL   H361 7891   7.462   3.353   0.366 -0.8385 -2.2663 -0.4404
   16MOL   H362 7892   7.626   3.378   0.368  1.0016  0.9159 -1.1434
   16MOL   H363 7893   7.497   3.251   0.110 -1.3972  0.7843  0.6433
   16MOL   H364 7894   7.655   3.384   7.710  0.8514 -0.7101 -2.5373
   16MOL   H365 7895   7.690   3.209   7.733  0.5631  0.6397 -2.2178
   16MOL   H366 7896   0.113   3.340   7.638 -1.9015 -0.5993 -1.0740
   16MOL   H367 7897   0.123   3.245   0.005 -0.3119 -0.1327 -0.9731
   16MOL   H368 7898   0.129   3.428   0.157 -0.5054 -2.4000 -0.0673
   16MOL   H369 7899   0.249   3.457   0.026  0.2131 -0.3807  0.2552
   16MOL   H370 7900   0.102   3.624   7.688  0.7554 -0.0025 -0.4882
   16MOL   H371 7901   7.760   3.610   0.043  0.7018  1.9753  2.3171
   16MOL   H372 7902   0.162   3.670   0.203  1.8417 -2.8576  0.1675
   16MOL   H373 7903   0.281   3.682   0.068 -0.4800  3.6312 -1.7135
   16MOL   H374 7904   0.019   3.852   0.114 -1.1237 -1.0024 -0.5703
   16MOL   H375 7905   0.182   3.912   0.114 -1.3695  1.3359  0.8544
   16MOL   H376 7906   0.111   3.837   7.742 -1.7264 -0.7350  0.6870
   16MOL   C377 7907   7.491   3.473   0.131 -0.1462 -0.6250 -0.2412
   16MOL   C378 7908   7.339   3.497   0.160 -0.9880  0.0790  0.3112
   16MOL   O379 7909   7.259   3.500   0.045 -0.1248 -0.9253  0.6715
   16MOL   C380 7910   7.126   3.449   0.057 -0.6472  0.5564  0.3099
   16MOL   C381 7911   7.049   3.480   7.710  0.1857  0.0169 -0.7055
   16MOL   C382 7912   7.096   3.415   7.580 -1.4372 -0.0447  0.3262
   16MOL   C383 7913   6.991   3.427   7.465  0.3776 -0.4174 -0.3911
   16MOL   C384 7914   7.039   3.361   7.331 -0.2235 -0.2134 -0.9530
   16MOL   C385 7915   7.063   3.214   7.353  0.4343  0.3489  0.8755
   16MOL   H386 7916   7.540   3.543   0.198 -1.5446  1.1149 -1.0167
   16MOL   H387 7917   7.497   3.499   0.025  1.6026  1.7345  0.4045
   16MOL   H388 7918   7.299   3.423   0.230  0.6212  2.0245  3.3960
   16MOL   H389 7919   7.088   3.512   0.137 -0.3578  1.0746  0.0458
   16MOL   H390 7920   7.109   3.349   0.096  2.2537  1.1769  3.4083
   16MOL   H391 7921   7.035   3.586   7.687  2.8030  0.6596  0.5324
   16MOL   H392 7922   6.945   3.448   7.723  1.1968 -1.8845  3.2191
   16MOL   H393 7923   7.192   3.462   7.558 -0.9619 -1.5112 -0.8052
   16MOL   H394 7924   7.117   3.312   7.608  3.7270  0.6598 -0.4364
   16MOL   H395 7925   6.900   3.377   7.498  1.5024 -2.5284 -0.3809
   16MOL   H396 7926   6.974   3.534   7.458 -3.1903 -0.9226 -0.4121
   16MOL   H397 7927   6.968   3.384   7.251 -1.7162  1.7390  0.8603
   16MOL   H398 7928   7.130   3.413   7.304  0.4543  0.5257  2.4820
   16MOL   H399 7929   7.075   3.171   7.253 -0.3567 -2.3085  1.8807
   16MOL   H400 7930   7.154   3.202   7.412  2.5297  2.4133 -1.7547
   16MOL   H401 7931   6.982   3.160   7.400 -0.1893  0.5392  0.0317
   16MOL   C402 7932   7.316   3.633   0.233  0.4329 -0.9572 -0.6732
   16MOL   C403 7933   7.320   3.624   0.386 -0.7561  0.4482 -0.2492
   16MOL   O404 7934   7.207   3.548   0.426  0.2943  0.4302 -0.3973
   16MOL   C405 7935   7.228   3.467   0.547 -0.0897 -0.8648  0.3996
   16MOL   C406 7936   7.094   3.405   0.598  0.3449 -0.3687 -0.3328
   16MOL   C407 7937   7.033   3.295   0.505  0.3019 -0.2286 -0.0223
   16MOL   C408 7938   6.895   3.236   0.538  0.3082 -0.3629 -0.1068
   16MOL   C409 7939   6.902   3.168   0.677 -0.1218  0.1398  0.2626
   16MOL   C410 7940   6.770   3.128   0.733 -0.3103 -0.7121 -1.1302
   16MOL   H411 7941   7.221   3.678   0.205  0.8746 -0.0867 -0.7774
   16MOL   H412 7942   7.397   3.695   0.195  0.5754 -1.7209 -1.6426
   16MOL   H413 7943   7.414   3.578   0.415  0.1331  2.9603  0.9674
   16MOL   H414 7944   7.270   3.527   0.628  3.6788 -2.4075 -0.2955
   16MOL   H415 7945   7.306   3.392   0.532  0.7085 -0.0206  0.3244
   16MOL   H416 7946   7.022   3.486   0.609  1.1538  0.5885 -1.9883
   16MOL   H417 7947   7.112   3.361   0.697  2.1206 -0.8118 -0.8293
   16MOL   H418 7948   7.028   3.327   0.401 -0.3549  0.7413  0.2950
   16MOL   H419 7949   7.105   3.214   0.503 -0.1396 -0.6212 -0.1212
   16MOL   H420 7950   6.821   3.315   0.544  0.5857 -0.1279  0.3293
   16MOL   H421 7951   6.848   3.160   0.475 -1.6464  1.1799 -0.5379
   16MOL   H422 7952   6.971   3.084   0.666  0.9938  1.1392 -0.4812
   16MOL   H423 7953   6.942   3.246   0.742 -0.4636  0.6729 -0.1657
   16MOL   H424 7954   6.790   3.094   0.835  2.7172  0.2227 -1.3637
   16MOL   H425 7955   6.713   3.221   0.738 -1.3330 -1.3748 -0.4120
   16MOL   H426 7956   6.726   3.042   0.684  0.3413 -4.2443  4.0648
   16MOL   C427 7957   7.302   3.770   0.454  0.9071  0.2879  0.2021
   16MOL   C428 7958   7.406   3.883   0.431 -1.1505  0.1111 -0.2747
   16MOL   O429 7959   7.401   3.976   0.544 -0.6436  0.2915 -0.0419
   16MOL   C430 7960   7.323   4.093   0.511 -0.5870  0.4440 -0.4200
   16MOL   C431 7961   7.342   4.193   0.623  0.1137  0.2162  0.1099
   16MOL   C432 7962   7.486   4.243   0.630 -0.1235  0.0619 -0.7075
   16MOL   C433 7963   7.512   4.329   0.753  0.4491 -0.7740 -0.3191
   16MOL   C434 7964   7.632   4.416   0.732 -0.1464 -0.8298  0.5869
   16MOL   C435 7965   7.649   4.514   0.849 -0.2609  0.1259 -0.6405
   16MOL   H436 7966   7.202   3.809   0.438  0.4851 -0.3902  1.0929
   16MOL   H437 7967   7.315   3.746   0.560 -1.1241  1.3230  0.7133
   16MOL   H438 7968   7.400   3.935   0.335  0.1601 -0.8790 -0.8999
   16MOL   H439 7969   7.217   4.069   0.499 -0.4290 -0.2519 -0.4143
   16MOL   H440 7970   7.352   4.135   0.415 -0.5352  1.3310 -0.0218
   16MOL   H441 7971   7.307   4.151   0.718 -0.8846  2.2111  0.6433
   16MOL   H442 7972   7.289   4.285   0.602 -1.0368  0.0992  2.3363
   16MOL   H443 7973   7.559   4.162   0.628  0.3501  0.5079 -1.6510
   16MOL   H444 7974   7.496   4.315   0.548 -1.2580  1.7842  0.6194
   16MOL   H445 7975   7.428   4.396   0.770  0.3897 -1.0822  0.6387
   16MOL   H446 7976   7.532   4.273   0.845 -1.4682 -0.4446  0.3230
   16MOL   H447 7977   7.713   4.344   0.724  1.3847  0.5414  3.2116
   16MOL   H448 7978   7.633   4.469   0.637  0.5557 -1.9681 -0.0562
   16MOL   H449 7979   7.661   4.465   0.945 -0.8434 -0.4089 -0.8415
   16MOL   H450 7980   7.734   4.580   0.833 -0.7435  0.8796 -0.1188
   16MOL   H451 7981   7.559   4.574   0.861 -0.0811  0.0425  1.2433
   16MOL   C452 7982   7.545   3.826   0.433 -0.2583  0.4457 -0.1515
   16MOL   C453 7983   7.670   3.919   0.434  0.6923 -0.2858  0.1946
   16MOL   O454 7984   7.674   3.993   0.307 -0.3329  0.2797 -0.4756
   16MOL   C455 7985   7.746   4.112   0.318  0.0403  0.3354 -1.0918
   16MOL   C456 7986   7.720   4.173   0.185  0.6515 -0.4253  0.2748
   16MOL   C457 7987   7.739   4.323   0.172 -0.0555  0.8011  0.0637
   16MOL   C458 7988   7.722   4.381   0.030 -0.3653 -0.2237  0.0682
   16MOL   C459 7989   0.070   4.353   7.708  0.0786 -0.3230 -0.3131
   16MOL   C460 7990   0.065   4.430   7.576  0.0468 -0.1891 -0.3614
   16MOL   H461 7991   7.549   3.757   0.517  2.8885 -0.6770 -1.1582
   16MOL   H462 7992   7.564   3.763   0.346 -1.8629 -0.3772  0.0857
   16MOL   H463 7993   7.658   4.001   0.505  2.0374  0.5665 -0.5364
   16MOL   H464 7994   0.075   4.111   0.341  0.1296  2.0034 -1.3605
   16MOL   H465 7995   7.696   4.167   0.398 -1.6589 -2.5159 -0.0966
   16MOL   H466 7996   7.613   4.166   0.163  0.5622  1.5645  0.0262
   16MOL   H467 7997   0.005   4.121   0.111  2.9212  0.8266  1.2666
   16MOL   H468 7998   7.666   4.382   0.228 -0.2435  1.7444 -1.1417
   16MOL   H469 7999   0.063   4.349   0.203 -0.5653  0.0689  2.4463
   16MOL   H470 8000   7.630   4.342   7.764 -1.2081  1.3205  0.4189
   16MOL   H471 8001   7.703   4.488   0.029  1.0641  0.0686  1.7417
   16MOL   H472 8002   0.161   4.375   7.764  0.2404 -0.4251 -0.5390
   16MOL   H473 8003   0.069   4.246   7.691  0.9343 -0.4336  0.3027
   16MOL   H474 8004   0.161   4.437   7.524  1.1810 -1.4139  1.4933
   16MOL   H475 8005   7.768   4.381   7.513 -0.8904 -0.6537  1.0756
   16MOL   H476 8006   0.018   4.527   7.590 -1.1851 -0.5725 -1.7087
   16MOL   C477 8007   0.032   3.859   0.452 -0.4035  0.3293  0.5111
   16MOL   C478 8008   0.073   3.829   0.592 -0.5688  0.2956 -0.8460
   16MOL   O479 8009   0.200   3.758   0.589  0.4845  0.3586  0.6167
   16MOL   C480 8010   0.237   3.730   0.726 -0.5544  0.2173  0.4462
   16MOL   C481 8011   0.351   3.630   0.731  0.0507  0.5395 -0.1337
   16MOL   C482 8012   0.398   3.589   0.874  0.5330  0.2167 -0.5763
   16MOL   C483 8013   0.534   3.526   0.876 -0.6921 -0.0934  0.5361
   16MOL   C484 8014   0.588   3.489   1.015  0.3305 -0.7373  0.0101
   16MOL   C485 8015   0.721   3.408   1.033  0.0273  0.0802  0.0768
   16MOL   H486 8016   0.043   3.763   0.403  1.7758 -0.1704  1.9184
   16MOL   H487 8017   0.117   3.916   0.415  0.2103 -0.4344  0.7460
   16MOL   H488 8018   0.077   3.923   0.646 -2.2856 -0.0627 -0.0570
   16MOL   H489 8019   0.156   3.685   0.784  1.1799 -1.3389  1.7169
   16MOL   H490 8020   0.271   3.816   0.783  3.0729 -0.6410 -0.2880
   16MOL   H491 8021   0.434   3.678   0.678  0.9704 -0.4999  0.3567
   16MOL   H492 8022   0.335   3.546   0.664 -1.2275  1.5059 -1.0741
   16MOL   H493 8023   0.407   3.680   0.934  2.3850 -0.2249 -0.1442
   16MOL   H494 8024   0.330   3.521   0.926  1.3091  0.0570  0.2436
   16MOL   H495 8025   0.521   3.425   0.837 -2.9230  1.2959 -2.4894
   16MOL   H496 8026   0.597   3.591   0.817 -3.2515  0.5940 -1.5148
   16MOL   H497 8027   0.599   3.576   1.080  1.2482  0.7846 -2.1400
   16MOL   H498 8028   0.518   3.421   1.065  0.3137 -0.2345  0.6706
   16MOL   H499 8029   0.813   3.466   1.036  0.4212 -0.4118 -2.1175
   16MOL   H500 8030   0.725   3.363   1.132  1.7499  0.9717  0.4258
   16MOL   H501 8031   0.739   3.331   0.959  0.2346  1.4264 -1.3060
   16MOL   H502 8032   7.777   3.764   0.641  1.3385  0.9276  3.0129
   17MOL     C1 8033   6.148   3.215   7.189  0.1278  0.2854 -0.2068
   17MOL     C2 8034   6.040   3.315   7.229  0.0341  0.3930 -0.2996
   17MOL     O3 8035   6.080   3.352   7.362  0.6088  0.0874  0.6373
   17MOL     C4 8036   6.178   3.453   7.372 -0.1764 -0.1701  0.3022
   17MOL     C5 8037   6.196   3.490   7.521  1.2284 -1.1015 -1.1641
   17MOL     C6 8038   6.250   3.376   7.612  0.5326 -0.0566 -0.3696
   17MOL     C7 8039   6.202   3.381   7.758  0.0854 -0.0010 -0.2934
   17MOL     C8 8040   6.244   3.255   0.057  1.1375 -0.3876  0.6915
   17MOL     C9 8041   6.147   3.232   0.179  0.6374 -0.4125  0.4759
   17MOL    H10 8042   6.180   3.144   7.265  0.7148 -0.1400 -0.8448
   17MOL    H11 8043   6.110   3.149   7.111 -1.0703  0.3854  0.2888
   17MOL    H12 8044   6.023   3.397   7.159  0.7003  0.5019 -0.3470
   17MOL    H13 8045   6.137   3.540   7.322 -0.8415 -1.1916 -0.9356
   17MOL    H14 8046   6.269   3.415   7.324 -0.3466  0.1605 -0.2804
   17MOL    H15 8047   6.106   3.528   7.569  2.3745 -2.0364  1.8504
   17MOL    H16 8048   6.266   3.574   7.510  1.8717 -1.6455 -1.2365
   17MOL    H17 8049   6.210   3.283   7.573 -3.3909  0.9749  0.9663
   17MOL    H18 8050   6.357   3.360   7.609  0.4018 -1.1037  0.4542
   17MOL    H19 8051   6.245   3.468   0.030  1.1581 -0.9641  0.4976
   17MOL    H20 8052   6.094   3.392   7.767 -0.2040 -1.2841 -1.8912
   17MOL    H21 8053   6.348   3.268   0.088  1.4618 -0.6850 -0.2794
   17MOL    H22 8054   6.253   3.171   7.766 -0.8725 -0.6621  0.7503
   17MOL    H23 8055   6.047   3.198   0.154  0.0266  0.1687  2.0605
   17MOL    H24 8056   6.184   3.153   0.246 -0.6994 -0.0322  1.6817
   17MOL    H25 8057   6.122   3.321   0.236 -0.2810 -0.1845 -0.2747
   17MOL    H26 8058   6.242   3.259   7.154 -0.4011  1.6684  0.0829
   17MOL    C27 8059   5.905   3.249   7.244 -0.4114  0.1615  0.7023
   17MOL    C28 8060   5.787   3.344   7.218  0.1903  0.0233 -0.2016
   17MOL    O29 8061   5.773   3.382   7.074  0.3254  0.3546 -0.3524
   17MOL    C30 8062   5.779   3.514   7.042 -0.1370  0.2346 -0.2038
   17MOL    C31 8063   5.733   3.558   6.900  0.2724  0.2021 -0.0750
   17MOL    C32 8064   5.579   3.532   6.881 -0.1763 -0.4386 -1.1242
   17MOL    C33 8065   5.555   3.388   6.825  0.1305 -0.1283 -0.4540
   17MOL    C34 8066   5.413   3.366   6.771  0.5979  0.2566  0.5421
   17MOL    C35 8067   5.391   3.227   6.717 -0.1593 -0.6925 -0.1878
   17MOL    H36 8068   5.893   3.169   7.172 -1.0394 -2.1125  3.2418
   17MOL    H37 8069   5.901   3.201   7.342 -1.5246 -1.1923  0.0132
   17MOL    H38 8070   5.807   3.428   7.284 -0.8909 -0.8907  1.3446
   17MOL    H39 8071   5.881   3.543   7.068 -0.3853  1.5135 -0.6010
   17MOL    H40 8072   5.722   3.568   7.118  0.7865  1.5646 -0.4224
   17MOL    H41 8073   5.801   3.504   6.834  0.8343 -0.7213  1.2269
   17MOL    H42 8074   5.754   3.665   6.902 -1.0604  0.5955 -3.7179
   17MOL    H43 8075   5.521   3.530   6.973  1.7047 -0.5542  0.0658
   17MOL    H44 8076   5.547   3.612   6.814  0.4912  1.2460  0.5479
   17MOL    H45 8077   5.638   3.355   6.762 -0.9434 -1.8126 -1.0450
   17MOL    H46 8078   5.572   3.318   6.907  2.0928 -1.1850 -1.6952
   17MOL    H47 8079   5.343   3.394   6.849  0.1083  3.2185 -0.9143
   17MOL    H48 8080   5.387   3.434   6.690  0.6421  0.1163  0.4098
   17MOL    H49 8081   5.466   3.202   6.642  2.4493 -0.5436  2.2435
   17MOL    H50 8082   5.394   3.162   6.804  2.5995 -1.0453 -0.4803
   17MOL    H51 8083   5.296   3.206   6.670 -1.0407 -0.7146  1.5532
   17MOL    C52 8084   5.650   3.277   7.253  0.3325  0.2237  0.5927
   17MOL    C53 8085   5.521   3.360   7.263  0.0427  0.1583  0.2226
   17MOL    O54 8086   5.411   3.268   7.294 -0.2879 -1.1288 -0.5656
   17MOL    C55 8087   5.334   3.233   7.178  0.3417  0.0309  0.5692
   17MOL    C56 8088   5.205   3.158   7.224 -0.1096  0.3410  0.4828
   17MOL    C57 8089   5.131   3.117   7.094  0.4786  0.3553  0.6780
   17MOL    C58 8090   5.000   3.031   7.120 -0.3128  0.4362 -0.3654
   17MOL    C59 8091   4.919   2.989   6.992 -0.4600  0.3706  0.7173
   17MOL    C60 8092   4.770   2.962   7.024 -0.1174 -0.1813  0.1456
   17MOL    H61 8093   5.663   3.222   7.346 -1.3098  2.4761  2.1898
   17MOL    H62 8094   5.624   3.203   7.177 -0.2811  1.9975 -0.9623
   17MOL    H63 8095   5.503   3.415   7.170  2.2262  1.7498  0.6986
   17MOL    H64 8096   5.386   3.170   7.105 -1.2762 -0.4777 -0.1621
   17MOL    H65 8097   5.299   3.320   7.123  1.9899  0.8108  0.7194
   17MOL    H66 8098   5.139   3.213   7.292  0.9019  1.8345  0.2792
   17MOL    H67 8099   5.232   3.072   7.285  0.5100 -0.5984 -1.0722
   17MOL    H68 8100   5.104   3.213   7.051  1.5028 -0.1539 -1.1283
   17MOL    H69 8101   5.203   3.060   7.035 -1.4486 -1.6194  0.1905
   17MOL    H70 8102   5.025   2.948   7.186 -2.2458  0.0367 -0.1103
   17MOL    H71 8103   4.925   3.085   7.177 -0.4202  0.3744 -0.4481
   17MOL    H72 8104   4.924   3.069   6.919 -1.0966 -0.7379 -0.5666
   17MOL    H73 8105   4.976   2.909   6.944  1.3035  1.0772  1.5787
   17MOL    H74 8106   4.721   2.941   6.930 -0.2973 -0.2503  0.2550
   17MOL    H75 8107   4.758   2.876   7.090 -1.2847 -0.6784 -0.7040
   17MOL    H76 8108   4.718   3.050   7.061 -0.1165 -0.3365  0.5199
   17MOL    C77 8109   5.529   3.470   7.361 -0.3474  0.1841  0.3310
   17MOL    C78 8110   5.404   3.559   7.349  0.6339  0.8273  0.1161
   17MOL    O79 8111   5.404   3.651   7.235 -0.6069 -0.4406  0.2388
   17MOL    C80 8112   5.302   3.641   7.137 -0.1738 -0.2814  0.0259
   17MOL    C81 8113   5.312   3.749   7.027  0.2301  0.4910 -0.4234
   17MOL    C82 8114   5.196   3.729   6.917  0.0074 -0.0171 -0.2251
   17MOL    C83 8115   5.204   3.809   6.789 -0.3482  0.1389  0.1613
   17MOL    C84 8116   5.329   3.795   6.711 -0.4218 -0.6352  0.3892
   17MOL    C85 8117   5.343   3.912   6.608 -0.3827  0.3901 -0.1178
   17MOL    H86 8118   5.622   3.522   7.340  0.0552  0.1660  1.9568
   17MOL    H87 8119   5.548   3.431   7.462 -1.0894 -2.0337 -0.3500
   17MOL    H88 8120   5.315   3.497   7.352  1.8255 -0.8409  1.6366
   17MOL    H89 8121   5.200   3.641   7.175 -1.1463  1.1469 -2.4614
   17MOL    H90 8122   5.331   3.555   7.076  2.2874  0.0330  0.6923
   17MOL    H91 8123   5.415   3.750   6.990  0.2214  0.0505 -0.4611
   17MOL    H92 8124   5.295   3.844   7.079 -2.2445 -0.4206  0.5156
   17MOL    H93 8125   5.196   3.625   6.885 -0.1282 -0.1614  0.2479
   17MOL    H94 8126   5.096   3.737   6.961  0.2070  1.0088  0.0473
   17MOL    H95 8127   5.117   3.795   6.725 -1.5614  1.5961  1.4408
   17MOL    H96 8128   5.211   3.915   6.814  0.3829  0.4296 -1.2350
   17MOL    H97 8129   5.419   3.787   6.772 -1.1012  0.4821  1.5556
   17MOL    H98 8130   5.331   3.707   6.645  1.6679 -1.1203  1.0621
   17MOL    H99 8131   5.336   4.006   6.662 -3.0380 -1.0259  2.0943
   17MOL   H100 8132   5.436   3.928   6.552  0.4332 -1.2308  0.7582
   17MOL   H101 8133   5.263   3.914   6.534  0.3014  0.5606 -0.8677
   17MOL   C102 8134   5.399   3.659   7.465 -0.1587 -0.1608 -0.4853
   17MOL   C103 8135   5.277   3.750   7.488 -1.3842  0.3167 -0.5663
   17MOL   O104 8136   5.168   3.658   7.506 -0.8885 -0.0795 -0.3302
   17MOL   C105 8137   5.053   3.698   7.437 -0.1664 -0.1947 -0.4581
   17MOL   C106 8138   4.929   3.621   7.493  0.1084  0.4346  0.3162
   17MOL   C107 8139   4.928   3.617   7.640 -0.0713 -0.1864  0.0551
   17MOL   C108 8140   4.804   3.546   7.704 -0.2294 -0.6263  0.0537
   17MOL   C109 8141   4.778   3.399   7.681  0.4210  0.2184  0.1730
   17MOL   C110 8142   4.672   3.332   7.771  0.0264 -0.1780  0.2342
   17MOL   H111 8143   5.425   3.597   7.551  0.7369 -0.9452 -1.3042
   17MOL   H112 8144   5.492   3.716   7.454 -1.8947  2.7664 -0.4418
   17MOL   H113 8145   5.264   3.815   7.402 -2.4083 -0.4176 -0.9773
   17MOL   H114 8146   5.068   3.678   7.331 -0.5258  1.4884 -0.8538
   17MOL   H115 8147   5.025   3.803   7.445  2.2579  0.5014 -0.7087
   17MOL   H116 8148   4.940   3.519   7.456 -0.3884  0.7152 -0.6069
   17MOL   H117 8149   4.835   3.666   7.461  0.6743  2.4633  1.4290
   17MOL   H118 8150   5.018   3.572   7.681  0.0164 -0.9784 -0.9789
   17MOL   H119 8151   4.929   3.719   7.678  2.2145 -0.4933  0.8805
   17MOL   H120 8152   4.813   3.557   0.035 -1.4466  1.5999 -0.0543
   17MOL   H121 8153   4.716   3.597   7.665  1.2977  2.0763  0.0156
   17MOL   H122 8154   4.756   3.380   7.576  0.1358 -1.5180  0.5463
   17MOL   H123 8155   4.876   3.354   7.697  0.0328 -1.7000 -2.4298
   17MOL   H124 8156   4.662   3.230   7.735  1.5949 -0.3981  0.3844
   17MOL   H125 8157   4.695   3.320   0.100 -2.7172 -1.3453  0.7386
   17MOL   H126 8158   4.574   3.376   7.754  0.6476  1.0017 -0.3135
   17MOL   C127 8159   5.292   3.838   7.619  0.0369  0.1697 -0.5033
   17MOL   C128 8160   5.400   3.952   7.624 -0.4632  0.7677  0.3055
   17MOL   O129 8161   5.396   4.013   7.748 -0.4269  0.2791  0.3436
   17MOL   C130 8162   5.454   3.939   0.078 -0.8388 -0.4531 -0.1200
   17MOL   C131 8163   5.539   4.044   0.156 -0.2040  0.1668  0.4517
   17MOL   C132 8164   5.466   4.156   0.233 -0.4171  0.3704 -0.4564
   17MOL   C133 8165   5.560   4.276   0.245 -0.7351  1.0612 -0.3549
   17MOL   C134 8166   5.506   4.397   0.319  0.2465 -0.2515 -0.2473
   17MOL   C135 8167   5.613   4.504   0.327 -0.6362  0.0925  0.2405
   17MOL   H136 8168   5.199   3.891   7.638  0.1473  0.0485  0.4397
   17MOL   H137 8169   5.323   3.775   7.702 -0.9073  0.8711  0.3932
   17MOL   H138 8170   5.495   3.901   7.607 -1.4927 -1.3449  0.8242
   17MOL   H139 8171   5.521   3.860   0.044  1.3829  1.7708 -1.0320
   17MOL   H140 8172   5.381   3.883   0.136 -1.5764 -0.4165 -0.9910
   17MOL   H141 8173   5.615   4.070   0.082  0.1006 -2.6325 -0.2789
   17MOL   H142 8174   5.601   4.000   0.234  0.8430  2.7410  1.1243
   17MOL   H143 8175   5.375   4.184   0.180 -0.4909  1.1564  0.0727
   17MOL   H144 8176   5.440   4.143   0.338  0.3872  1.3537 -0.1196
   17MOL   H145 8177   5.646   4.241   0.302 -0.0849  0.8487 -1.4538
   17MOL   H146 8178   5.608   4.296   0.150 -0.7667 -2.6765 -1.2195
   17MOL   H147 8179   5.427   4.437   0.255 -1.3053 -1.6068  0.7662
   17MOL   H148 8180   5.462   4.364   0.413 -1.4765  2.6754  0.0084
   17MOL   H149 8181   5.708   4.477   0.375 -0.2460 -0.2497 -0.7156
   17MOL   H150 8182   5.648   4.543   0.232  0.4716 -2.7027 -0.5558
   17MOL   H151 8183   5.577   4.595   0.374  1.0164  1.1406 -0.4729
   17MOL   C152 8184   5.382   4.054   7.512 -0.1289 -0.0981  0.7435
   17MOL   C153 8185   5.506   4.142   7.498  0.2203  0.2276 -0.2363
   17MOL   O154 8186   5.491   4.212   7.377 -0.0213  0.0352  1.0414
   17MOL   C155 8187   5.539   4.142   7.257  0.0663 -0.6713 -0.5214
   17MOL   C156 8188   5.497   4.214   7.131  0.5025 -0.3331 -0.8060
   17MOL   C157 8189   5.544   4.145   7.008  0.5782 -0.0017  0.2781
   17MOL   C158 8190   5.505   4.229   6.885 -0.3114  0.1325 -0.7088
   17MOL   C159 8191   5.577   4.188   6.758  0.4480 -0.0802  0.3796
   17MOL   C160 8192   5.541   4.253   6.620 -0.2096 -0.6373  0.2474
   17MOL   H161 8193   5.363   4.001   7.419 -1.0983 -0.1055  0.9361
   17MOL   H162 8194   5.297   4.121   7.531 -0.1432  0.1326 -0.1002
   17MOL   H163 8195   5.600   4.088   7.495  0.5100  0.6849  0.3217
   17MOL   H164 8196   5.487   4.046   7.250  1.1835 -1.1740 -2.2325
   17MOL   H165 8197   5.644   4.117   7.267 -0.5578 -2.4326  2.5107
   17MOL   H166 8198   5.539   4.314   7.132 -0.4660  0.0847 -1.2927
   17MOL   H167 8199   5.392   4.241   7.128  1.0381  1.6503 -2.9247
   17MOL   H168 8200   5.651   4.124   7.007  0.7243  0.7690 -0.4932
   17MOL   H169 8201   5.494   4.050   6.991 -0.3910  0.4846  0.4113
   17MOL   H170 8202   5.397   4.220   6.874 -0.5063  1.2671  0.1338
   17MOL   H171 8203   5.499   4.336   6.905 -0.1296 -0.2118  1.2675
   17MOL   H172 8204   5.682   4.193   6.787  0.7566 -0.2783 -0.6981
   17MOL   H173 8205   5.545   4.085   6.747 -3.1385  0.9497  0.3750
   17MOL   H174 8206   5.433   4.261   6.603 -0.2253 -0.8041  0.2674
   17MOL   H175 8207   5.569   4.359   6.616 -0.8464 -0.4724  0.0641
   17MOL   H176 8208   5.580   4.194   6.538  0.4644 -1.2087  0.9774
   17MOL   C177 8209   5.510   4.262   7.599  0.2907 -0.2906 -0.0042
   17MOL   C178 8210   5.627   4.359   7.577 -0.5211  0.0663  0.0953
   17MOL   O179 8211   5.612   4.476   7.662  0.6011  0.4538  0.4838
   17MOL   C180 8212   5.538   4.585   7.605 -0.4088 -0.1067 -0.1500
   17MOL   C181 8213   5.583   4.715   7.665  0.2261  0.4275 -0.1098
   17MOL   C182 8214   5.540   4.844   7.587  0.0192 -0.8788 -0.6821
   17MOL   C183 8215   5.604   4.975   7.640  0.2168 -0.0086  0.0766
   17MOL   C184 8216   5.550   5.100   7.572  0.0340 -0.2379 -0.1617
   17MOL   C185 8217   5.604   5.220   7.635  0.4535 -0.1529  0.0427
   17MOL   H186 8218   5.412   4.309   7.605 -0.9134 -2.5482 -1.2608
   17MOL   H187 8219   5.524   4.226   7.701  0.4156 -0.5407 -0.1097
   17MOL   H188 8220   5.632   4.384   7.471 -0.0017 -0.3690  0.0175
   17MOL   H189 8221   5.429   4.584   7.615 -0.2769  0.6681  1.4567
   17MOL   H190 8222   5.561   4.592   7.498 -1.8881  0.0066 -0.4760
   17MOL   H191 8223   5.692   4.705   7.662  0.0954 -0.8971 -1.5670
   17MOL   H192 8224   5.559   4.731   7.770  0.3991  0.3175 -0.0529
   17MOL   H193 8225   5.569   4.838   7.482 -0.0777  2.4082 -0.9753
   17MOL   H194 8226   5.433   4.863   7.574  0.2272  1.0664  0.1626
   17MOL   H195 8227   5.586   4.976   7.747 -3.0252  1.3572 -0.4307
   17MOL   H196 8228   5.711   4.974   7.619 -0.0975 -3.6243 -1.6629
   17MOL   H197 8229   5.567   5.095   7.464 -0.2742  0.9895 -0.2724
   17MOL   H198 8230   5.443   5.115   7.568 -0.0435  0.0100  2.3237
   17MOL   H199 8231   5.578   5.235   7.739  2.6022  2.4598  0.2434
   17MOL   H200 8232   5.713   5.226   7.632  0.5670 -1.4610  1.0760
   17MOL   H201 8233   5.571   5.309   7.580  1.8592 -0.1461 -0.8189
   17MOL   C202 8234   5.760   4.302   7.610  1.6361 -0.5753  0.5337
   17MOL   C203 8235   5.872   4.387   7.543 -0.2717 -0.2255 -0.2789
   17MOL   O204 8236   5.900   4.341   7.410  0.5181 -0.6736  0.0965
   17MOL   C205 8237   5.894   4.437   7.310  0.4355  0.0398 -0.4189
   17MOL   C206 8238   5.908   4.361   7.180 -0.6019  0.0946  0.6546
   17MOL   C207 8239   5.925   4.464   7.067  0.8512 -0.2199  0.1922
   17MOL   C208 8240   5.965   4.401   6.937  0.3561  0.4648  0.4012
   17MOL   C209 8241   5.958   4.496   6.819 -0.9633 -0.0664  0.6688
   17MOL   C210 8242   6.041   4.455   6.698  0.4981  0.2567 -0.1482
   17MOL   H211 8243   5.777   4.296   7.718  1.9995 -0.9839  0.4564
   17MOL   H212 8244   5.763   4.196   7.587  0.6746 -0.6486  0.7468
   17MOL   H213 8245   5.839   4.490   7.532  2.4002  0.7146  0.1705
   17MOL   H214 8246   5.969   4.513   7.329 -1.0097  0.6747  3.0970
   17MOL   H215 8247   5.795   4.482   7.296 -0.5001 -1.6705  0.5775
   17MOL   H216 8248   5.819   4.307   7.148  0.3224 -0.7347 -0.5804
   17MOL   H217 8249   5.992   4.291   7.183 -0.4790  0.1467 -1.1053
   17MOL   H218 8250   5.825   4.504   7.050 -0.0224 -1.6862  1.6033
   17MOL   H219 8251   5.996   4.538   7.102 -1.5484  1.9657  0.6324
   17MOL   H220 8252   6.064   4.360   6.957 -0.1232 -1.2329 -0.6435
   17MOL   H221 8253   5.894   4.324   6.907  1.4839 -0.9599  1.3322
   17MOL   H222 8254   5.857   4.505   6.780 -0.9412  3.0300  1.1350
   17MOL   H223 8255   5.978   4.602   6.835 -0.2429  0.1980 -1.6812
   17MOL   H224 8256   6.147   4.482   6.699 -0.0171  2.4437 -0.6515
   17MOL   H225 8257   6.038   4.347   6.685 -0.6711  0.3337 -0.6416
   17MOL   H226 8258   6.016   4.511   6.608 -1.8900  0.1535  0.4059
   17MOL   C227 8259   6.009   4.393   7.620 -0.2467 -0.6360 -0.0250
   17MOL   C228 8260   5.998   4.495   7.745  0.5872  0.2638 -0.2030
   17MOL   O229 8261   6.123   4.487   0.031  0.0092 -0.6222  0.4478
   17MOL   C230 8262   6.119   4.409   0.146  0.0813 -0.2391 -0.3085
   17MOL   C231 8263   6.253   4.378   0.198  0.4536  0.0757  0.0758
   17MOL   C232 8264   6.335   4.505   0.240 -0.2458  0.8281  0.5681
   17MOL   C233 8265   6.285   4.576   0.365 -0.5493 -0.4633  0.2685
   17MOL   C234 8266   6.384   4.691   0.390 -0.4953 -0.4806  0.2821
   17MOL   C235 8267   6.368   4.820   0.304  0.5286  0.8541  0.0329
   17MOL   H236 8268   6.035   4.295   7.660 -2.0214 -1.1314 -0.0396
   17MOL   H237 8269   6.089   4.417   7.551  0.5984 -0.7875  0.8962
   17MOL   H238 8270   5.918   4.463   0.035  1.1300  0.2890  0.4612
   17MOL   H239 8271   6.073   4.311   0.132  0.7837 -0.5759 -0.2630
   17MOL   H240 8272   6.057   4.452   0.225 -1.6160 -0.7183 -1.3471
   17MOL   H241 8273   6.315   4.321   0.129  1.3852  1.5887 -0.3483
   17MOL   H242 8274   6.248   4.314   0.286  0.7083  2.1627  1.6447
   17MOL   H243 8275   6.433   4.471   0.274 -0.0631  1.1864  0.4072
   17MOL   H244 8276   6.351   4.566   0.151  1.1248 -0.8466 -0.3708
   17MOL   H245 8277   6.191   4.624   0.337 -0.1814 -0.2519 -0.6152
   17MOL   H246 8278   6.272   4.508   0.449  1.6671 -0.5459  0.5642
   17MOL   H247 8279   6.381   4.720   0.495 -0.7312 -0.6223  0.3159
   17MOL   H248 8280   6.490   4.668   0.381 -0.1641  1.1812 -0.1601
   17MOL   H249 8281   6.269   4.859   0.325 -0.1858 -1.5294  1.2377
   17MOL   H250 8282   6.441   4.896   0.334 -0.0185  0.9780  1.0571
   17MOL   H251 8283   6.380   4.809   0.196  1.7205  1.1425  0.1195
   17MOL   C252 8284   5.986   4.648   7.710  0.6460  0.6585 -0.5762
   17MOL   C253 8285   6.024   4.749   0.050  0.2833 -0.3448  0.0702
   17MOL   O254 8286   5.921   4.757   0.151 -0.0502  0.2897 -0.1821
   17MOL   C255 8287   5.969   4.816   0.273 -0.2056  0.0431 -0.5858
   17MOL   C256 8288   5.846   4.880   0.338 -0.2827 -0.0102  0.5225
   17MOL   C257 8289   5.786   5.010   0.276 -0.4113  0.4118 -0.5897
   17MOL   C258 8290   5.661   5.070   0.332  0.5121 -0.3025 -0.1091
   17MOL   C259 8291   5.602   5.179   0.246  0.2686 -0.1473 -0.2978
   17MOL   C260 8292   5.478   5.246   0.313  0.2226  0.9258 -0.8172
   17MOL   H261 8293   6.056   4.661   7.628  0.4925  1.0279 -0.6507
   17MOL   H262 8294   5.885   4.674   7.678 -0.0336  0.0880  1.0558
   17MOL   H263 8295   6.111   4.711   0.103  0.5486  0.9933  0.6129
   17MOL   H264 8296   6.054   4.884   0.276 -0.9328  0.9151  0.3459
   17MOL   H265 8297   5.998   4.742   0.347  2.0026  0.7673 -0.6803
   17MOL   H266 8298   5.861   4.905   0.443 -0.3030  0.2107  0.4734
   17MOL   H267 8299   5.763   4.809   0.334 -0.0868 -0.2875  1.3218
   17MOL   H268 8300   5.857   5.094   0.280 -1.9572  1.6631  1.7378
   17MOL   H269 8301   5.771   4.987   0.170 -1.1740  0.5332 -0.5085
   17MOL   H270 8302   5.588   4.991   0.350 -0.0366  0.7676  2.6363
   17MOL   H271 8303   5.678   5.104   0.434  0.8557 -0.0663 -0.2451
   17MOL   H272 8304   5.677   5.252   0.215  0.8584 -0.6103  0.0378
   17MOL   H273 8305   5.562   5.138   0.153 -0.4874 -0.8320  0.3204
   17MOL   H274 8306   5.508   5.312   0.395 -1.0413  0.8306 -0.2627
   17MOL   H275 8307   5.435   5.313   0.239 -0.6037  1.1661 -0.1318
   17MOL   H276 8308   5.404   5.179   0.355  1.5581 -1.0849 -1.6206
   17MOL   C277 8309   6.037   4.893   7.768 -0.4871 -0.4788 -0.5563
   17MOL   C278 8310   6.183   4.933   7.718  0.2017  0.8742  0.9019
   17MOL   O279 8311   6.205   4.859   7.606 -0.0223 -0.2654 -0.2938
   17MOL   C280 8312   6.343   4.848   7.546  0.8440 -0.3666 -0.1957
   17MOL   C281 8313   6.363   4.716   7.491  0.1546  0.2386  0.1734
   17MOL   C282 8314   6.375   4.602   7.596 -0.7939 -0.5202  0.0307
   17MOL   C283 8315   6.394   4.468   7.532 -0.3763  0.3865  0.3505
   17MOL   C284 8316   6.424   4.355   7.633 -0.0769  0.0054 -0.5872
   17MOL   C285 8317   6.427   4.220   7.556 -0.3654 -0.1043  0.6884
   17MOL   H286 8318   5.965   4.917   7.690 -0.4134  1.4408 -0.0652
   17MOL   H287 8319   6.020   4.967   0.070  0.1684 -0.4623 -0.4301
   17MOL   H288 8320   6.261   4.905   0.011 -0.1799 -0.9580  0.6144
   17MOL   H289 8321   6.424   4.877   7.613 -0.4197 -1.1612  1.7481
   17MOL   H290 8322   6.361   4.922   7.469  1.1877 -0.2452  0.0020
   17MOL   H291 8323   6.456   4.707   7.434 -1.2548 -1.9350 -1.8938
   17MOL   H292 8324   6.290   4.692   7.414  0.4329 -0.5112  0.1362
   17MOL   H293 8325   6.453   4.621   7.670 -0.2427  0.8304 -0.8675
   17MOL   H294 8326   6.280   4.604   7.649 -1.1956  0.1364 -0.7013
   17MOL   H295 8327   6.309   4.447   7.466 -0.4579  0.2451  0.5007
   17MOL   H296 8328   6.480   4.471   7.466 -0.9711 -1.1913 -0.5338
   17MOL   H297 8329   6.511   4.380   7.695 -0.6637 -2.2311  1.2090
   17MOL   H298 8330   6.346   4.333   7.706  1.5214  0.8925  1.4721
   17MOL   H299 8331   6.422   4.131   7.619 -0.8814 -0.1602  0.5659
   17MOL   H300 8332   6.355   4.212   7.475 -0.3199 -3.4516  0.8971
   17MOL   H301 8333   6.531   4.220   7.521 -0.4550 -0.1677  0.4227
   17MOL   C302 8334   6.200   5.081   7.684  0.3333  0.1922 -0.2016
   17MOL   C303 8335   6.209   5.183   0.020  0.4282 -0.8247  0.3314
   17MOL   O304 8336   6.186   5.311   7.743 -0.3743 -0.5803  0.0632
   17MOL   C305 8337   6.105   5.393   0.045  0.1587  0.2730 -0.6846
   17MOL   C306 8338   6.075   5.532   7.756  0.3467  0.1170  0.0090
   17MOL   C307 8339   6.021   5.507   7.607 -0.1466  0.2748  0.3080
   17MOL   C308 8340   5.925   5.616   7.557  0.3480 -0.9156  0.3989
   17MOL   C309 8341   5.871   5.588   7.419  0.4345  0.1778  0.6251
   17MOL   C310 8342   5.779   5.702   7.377  0.0259  0.6258 -0.3940
   17MOL   H311 8343   6.296   5.091   7.634 -0.1513 -2.0169 -1.6460
   17MOL   H312 8344   6.128   5.108   7.607  0.2974  1.2253  0.1872
   17MOL   H313 8345   6.125   5.154   0.082  0.3973 -1.5484 -0.0428
   17MOL   H314 8346   6.151   5.410   0.143 -4.0729 -0.5315  1.5655
   17MOL   H315 8347   6.012   5.342   0.069  0.5958 -0.0394  0.3957
   17MOL   H316 8348   6.158   5.602   7.758 -0.0343  0.5725 -0.2312
   17MOL   H317 8349   6.007   5.587   0.043  1.8792 -0.5883  2.3063
   17MOL   H318 8350   6.102   5.493   7.536  0.3373  0.8368  0.7497
   17MOL   H319 8351   5.973   5.409   7.607  1.6733 -0.6351 -0.2028
   17MOL   H320 8352   5.846   5.631   7.631 -0.1344  0.4903 -0.3887
   17MOL   H321 8353   5.984   5.708   7.560 -0.5373 -0.2745 -1.2737
   17MOL   H322 8354   5.952   5.573   7.347  0.2942 -0.2764  0.5595
   17MOL   H323 8355   5.818   5.495   7.401 -0.6173  0.7010  0.9399
   17MOL   H324 8356   5.753   5.703   7.271 -3.4223 -2.0823  0.3138
   17MOL   H325 8357   5.693   5.704   7.445  0.0458  0.8080 -0.3745
   17MOL   H326 8358   5.825   5.797   7.401  0.5440  0.3834 -0.4292
   17MOL   C327 8359   6.343   5.169   0.103  0.7433 -0.0117 -0.5241
   17MOL   C328 8360   6.335   5.214   0.247 -0.1435  0.1823  0.3635
   17MOL   O329 8361   6.275   5.122   0.332 -0.0051 -0.2334 -0.4405
   17MOL   C330 8362   6.185   5.177   0.428 -0.6595  0.1059  0.7517
   17MOL   C331 8363   6.142   5.068   0.531 -0.3435 -0.0452 -0.3864
   17MOL   C332 8364   6.265   5.043   0.625  0.3967 -0.2399 -0.3739
   17MOL   C333 8365   6.258   4.902   0.680  0.9195 -0.1665 -0.5629
   17MOL   C334 8366   6.390   4.868   0.757  0.0387  0.2167 -1.2801
   17MOL   C335 8367   6.397   4.720   0.801 -0.0126 -0.0866 -0.0523
   17MOL   H336 8368   6.420   5.224   0.050  1.2868  0.4653  0.7482
   17MOL   H337 8369   6.374   5.065   0.113  1.1323  0.2410  0.9957
   17MOL   H338 8370   6.275   5.304   0.257 -3.1713 -1.7307  0.0711
   17MOL   H339 8371   6.099   5.226   0.383 -0.6996 -1.1520 -0.5844
   17MOL   H340 8372   6.237   5.253   0.486 -2.8299  1.1490  1.3940
   17MOL   H341 8373   6.126   4.971   0.484 -1.7009  0.0061 -0.0267
   17MOL   H342 8374   6.051   5.073   0.590  1.0449  0.2841  1.7888
   17MOL   H343 8375   6.363   5.067   0.583  1.3604 -0.7501  1.4809
   17MOL   H344 8376   6.271   5.103   0.715  3.1649 -0.8235 -0.1052
   17MOL   H345 8377   6.178   4.883   0.752  0.5331 -1.8196 -1.4079
   17MOL   H346 8378   6.233   4.824   0.608 -0.9427  1.5476 -1.8078
   17MOL   H347 8379   6.467   4.882   0.681  0.5689 -0.5452 -0.8931
   17MOL   H348 8380   6.427   4.935   0.835  1.8494 -1.7247 -0.4025
   17MOL   H349 8381   6.498   4.702   0.837  0.3559 -1.9325 -1.9488
   17MOL   H350 8382   6.335   4.704   0.889 -0.6619 -0.1789 -0.5225
   17MOL   H351 8383   6.365   4.641   0.733 -1.9643 -0.3558  1.1203
   17MOL   C352 8384   6.480   5.241   0.299  0.4496  0.0710  0.0835
   17MOL   C353 8385   6.553   5.368   0.249 -0.3754  0.1682 -0.5251
   17MOL   O354 8386   6.677   5.365   0.307  0.1878 -0.4671 -0.9036
   17MOL   C355 8387   6.785   5.411   0.226 -0.3674  0.4161 -0.0326
   17MOL   C356 8388   6.909   5.446   0.301 -0.1462 -0.2040 -0.5153
   17MOL   C357 8389   6.862   5.547   0.411  0.1856  0.3000 -0.1090
   17MOL   C358 8390   6.974   5.589   0.514 -0.5694  0.1126  0.4307
   17MOL   C359 8391   6.928   5.683   0.622 -0.0099  0.3925  0.1280
   17MOL   C360 8392   7.051   5.746   0.699  0.4233  0.0094 -0.3318
   17MOL   H361 8393   6.470   5.251   0.408 -1.9694  0.1928 -0.1216
   17MOL   H362 8394   6.539   5.151   0.283  2.7051  1.6179 -0.4905
   17MOL   H363 8395   6.551   5.363   0.140 -0.4824 -1.3678 -0.4503
   17MOL   H364 8396   6.755   5.500   0.171  3.1983  0.9576 -1.2109
   17MOL   H365 8397   6.800   5.339   0.146  0.8950  1.1878 -0.5049
   17MOL   H366 8398   6.979   5.503   0.240 -1.3561  1.0023 -0.7918
   17MOL   H367 8399   6.966   5.372   0.358  1.1938  1.6513  0.6166
   17MOL   H368 8400   6.841   5.641   0.358 -0.4126  0.5679  0.5782
   17MOL   H369 8401   6.778   5.510   0.470  1.5992 -1.8185  0.6170
   17MOL   H370 8402   7.023   5.503   0.560 -1.7907 -1.9985 -2.0990
   17MOL   H371 8403   7.054   5.636   0.456 -0.5496  0.2365  0.5577
   17MOL   H372 8404   6.866   5.764   0.585 -0.4015  0.0235 -0.0325
   17MOL   H373 8405   6.862   5.634   0.694  1.3694  0.6399  1.6025
   17MOL   H374 8406   7.131   5.784   0.635 -0.2471 -0.6190 -1.5577
   17MOL   H375 8407   7.012   5.831   0.755 -1.0307 -1.7717  1.4128
   17MOL   H376 8408   7.107   5.682   0.767  3.0717  1.5259 -0.9878
   17MOL   C377 8409   6.486   5.501   0.311  0.2643 -0.0569 -1.0459
   17MOL   C378 8410   6.525   5.633   0.244  0.5898 -0.4149 -0.3521
   17MOL   O379 8411   6.457   5.737   0.323  0.5765  0.5668 -0.0579
   17MOL   C380 8412   6.528   5.779   0.442  0.9742 -0.1761 -0.1494
   17MOL   C381 8413   6.431   5.835   0.542 -0.2790  0.3174 -0.8722
   17MOL   C382 8414   6.506   5.882   0.671  0.0100 -0.0107 -0.0051
   17MOL   C383 8415   6.551   5.770   0.769  0.0532  0.2077  0.2527
   17MOL   C384 8416   6.590   5.829   0.909  0.5553  0.0004  0.0449
   17MOL   C385 8417   6.646   5.725   1.002  0.4384 -0.0852  0.1903
   17MOL   H386 8418   6.378   5.494   0.304  0.3488 -1.2869 -1.1990
   17MOL   H387 8419   6.507   5.499   0.418  1.9222  2.0515 -1.2933
   17MOL   H388 8420   6.634   5.642   0.254  0.5028 -1.6988  2.1348
   17MOL   H389 8421   6.603   5.853   0.415 -0.1631  1.4222  0.9788
   17MOL   H390 8422   6.580   5.694   0.487  1.7395 -0.4749 -1.5737
   17MOL   H391 8423   6.351   5.762   0.558 -0.2897  0.7914  1.4282
   17MOL   H392 8424   6.391   5.927   0.499  1.1803  1.7476  0.7538
   17MOL   H393 8425   6.594   5.945   0.654  0.6322 -1.4980 -2.6324
   17MOL   H394 8426   6.440   5.956   0.714  0.2445  2.2768 -3.3432
   17MOL   H395 8427   6.465   5.704   0.775  0.5699 -0.5067 -0.0215
   17MOL   H396 8428   6.630   5.716   0.715 -1.7161 -0.4079 -1.7807
   17MOL   H397 8429   6.662   5.909   0.887  1.2165 -0.6069 -0.0148
   17MOL   H398 8430   6.498   5.860   0.959 -0.7442  0.8172 -2.7201
   17MOL   H399 8431   6.569   5.662   1.046  1.6752 -0.3115  2.0732
   17MOL   H400 8432   6.722   5.679   0.938 -0.3262 -1.0698 -0.0246
   17MOL   H401 8433   6.692   5.782   1.083  1.1978  1.7217 -1.4735
   17MOL   C402 8434   6.475   5.637   0.100 -0.2768  0.0798 -0.2862
   17MOL   C403 8435   6.493   5.774   0.037  0.1594 -0.0608 -0.5106
   17MOL   O404 8436   6.367   5.821   7.767 -0.0995  0.6909  0.5629
   17MOL   C405 8437   6.339   5.953   0.016 -0.4216  0.2201 -0.2682
   17MOL   C406 8438   6.227   5.999   7.692  0.7058  0.2990  0.6996
   17MOL   C407 8439   6.241   5.960   7.539  0.2152 -0.5192  0.3151
   17MOL   C408 8440   6.114   5.983   7.455  0.0827  0.4591 -0.2097
   17MOL   C409 8441   6.121   5.907   7.318 -0.4067 -0.0549  0.5587
   17MOL   C410 8442   6.055   6.000   7.211 -0.2137  0.1539 -0.4984
   17MOL   H411 8443   6.369   5.611   0.104 -0.3557  0.3018 -0.9071
   17MOL   H412 8444   6.516   5.557   0.039  0.3940 -0.5141  0.9072
   17MOL   H413 8445   6.539   5.847   0.104 -1.3391  0.8432 -0.4442
   17MOL   H414 8446   6.427   6.016   0.011  0.0421 -0.4220 -0.1598
   17MOL   H415 8447   6.312   5.959   0.122 -2.6616 -0.5417 -0.7614
   17MOL   H416 8448   6.219   6.107   7.704  2.6676  0.4146  1.0782
   17MOL   H417 8449   6.132   5.960   7.730  0.2864 -0.3532 -0.9795
   17MOL   H418 8450   6.332   6.001   7.495 -0.7092  1.0229 -0.2104
   17MOL   H419 8451   6.258   5.852   7.533  2.3492 -0.2037  0.3358
   17MOL   H420 8452   6.026   5.954   7.513  2.0420  2.1419  3.7751
   17MOL   H421 8453   6.111   6.090   7.438  2.3699  0.6288  0.3851
   17MOL   H422 8454   6.224   5.894   7.288 -0.5002 -0.4170  0.3896
   17MOL   H423 8455   6.075   5.810   7.339  0.0922  0.4510  4.2999
   17MOL   H424 8456   6.117   6.090   7.202 -0.2377  0.1093 -1.1053
   17MOL   H425 8457   6.034   5.945   7.120  1.2105 -2.3499  0.6377
   17MOL   H426 8458   5.950   6.016   7.235 -0.1161 -0.8858  0.6507
   17MOL   C427 8459   6.575   5.755   7.685 -0.5707 -0.8081 -0.0408
   17MOL   C428 8460   6.730   5.775   7.686 -0.4841  0.2691  0.1435
   17MOL   O429 8461   6.793   5.684   7.587  0.0915  0.2892  0.3679
   17MOL   C430 8462   6.846   5.567   7.640 -0.2229  0.0668 -0.3835
   17MOL   C431 8463   6.850   5.468   7.525 -0.1012  0.1954 -0.3452
   17MOL   C432 8464   6.955   5.501   7.416  0.1816 -0.4720  0.6045
   17MOL   C433 8465   6.934   5.418   7.286  0.0586  0.3326  0.7398
   17MOL   C434 8466   7.018   5.462   7.165  0.4238  0.1632 -0.0784
   17MOL   C435 8467   6.972   5.380   7.039 -0.3308 -0.5365 -0.2583
   17MOL   H436 8468   6.553   5.666   7.626 -0.8539 -0.8588  0.1357
   17MOL   H437 8469   6.539   5.835   7.621  0.3892 -0.4422 -0.1257
   17MOL   H438 8470   6.753   5.755   0.013 -3.1519 -0.9173  0.5617
   17MOL   H439 8471   6.777   5.537   7.719  1.6682 -0.3199  1.1509
   17MOL   H440 8472   6.943   5.591   7.683  0.0348  0.2018 -1.0245
   17MOL   H441 8473   6.751   5.466   7.479  0.6687  1.0127 -2.0831
   17MOL   H442 8474   6.859   5.365   7.558  2.2546  0.3217 -0.5365
   17MOL   H443 8475   6.957   5.605   7.384 -1.1532 -0.9395 -1.0573
   17MOL   H444 8476   7.055   5.490   7.457  0.7471  0.8231 -0.3848
   17MOL   H445 8477   6.952   5.311   7.301 -0.9398 -0.0801 -0.9763
   17MOL   H446 8478   6.829   5.418   7.259  0.4662 -2.7282 -1.0906
   17MOL   H447 8479   7.004   5.569   7.155  0.0741  0.1916  0.6627
   17MOL   H448 8480   7.123   5.441   7.186  0.0851 -0.3004  1.2262
   17MOL   H449 8481   7.042   5.381   6.955  0.1117 -1.9085  0.0962
   17MOL   H450 8482   6.960   5.277   7.072 -3.5051 -0.2483 -0.3067
   17MOL   H451 8483   6.867   5.400   7.015 -1.2143 -0.9251  3.1155
   17MOL   C452 8484   6.761   5.921   7.654  1.1476 -0.0727 -0.0491
   17MOL   C453 8485   6.914   5.944   7.666 -0.4009  0.0377  0.2100
   17MOL   O454 8486   6.941   5.926   0.025  1.2847 -0.1465  0.3400
   17MOL   C455 8487   7.064   5.868   0.052  0.4503  0.0861 -0.3931
   17MOL   C456 8488   7.078   5.849   0.209 -0.5994 -0.4372  0.4038
   17MOL   C457 8489   7.125   5.982   0.273  0.0893  0.4002 -0.5865
   17MOL   C458 8490   7.137   5.954   0.430 -0.0406  0.0082 -0.1787
   17MOL   C459 8491   7.153   6.089   0.502 -0.3771 -0.2239 -0.8077
   17MOL   C460 8492   7.290   6.163   0.472  0.0411  0.3013  0.1601
   17MOL   H461 8493   6.728   5.930   7.550 -0.5267  1.2881  0.5831
   17MOL   H462 8494   6.702   5.995   7.707  0.6638  1.1196 -2.1839
   17MOL   H463 8495   6.963   5.870   7.602 -1.6083 -1.4346  0.9570
   17MOL   H464 8496   7.143   5.929   0.009 -0.8254  1.6580 -0.5451
   17MOL   H465 8497   7.073   5.773   0.000  0.6960 -0.2640  0.2854
   17MOL   H466 8498   7.149   5.769   0.231  0.9595  0.1987 -2.1233
   17MOL   H467 8499   6.983   5.818   0.252 -2.5721  2.0109 -2.0139
   17MOL   H468 8500   7.223   6.009   0.232  1.2903 -1.6649  0.8031
   17MOL   H469 8501   7.062   6.069   0.257 -0.7193 -0.1161 -0.2407
   17MOL   H470 8502   7.044   5.910   0.467  1.4220 -0.5232  2.9795
   17MOL   H471 8503   7.219   5.889   0.460  0.2617  0.9202  1.0279
   17MOL   H472 8504   7.072   6.158   0.476 -0.0502  0.2069 -0.6796
   17MOL   H473 8505   7.147   6.061   0.607 -1.1976  1.1061 -0.4773
   17MOL   H474 8506   7.373   6.100   0.503  0.0346  0.6035  0.7968
   17MOL   H475 8507   7.308   6.187   0.368  1.7522  2.1457  0.8560
   17MOL   H476 8508   7.291   6.260   0.522 -2.6808  0.7721 -0.6215
   17MOL   C477 8509   6.959   6.088   7.627 -0.0375 -0.1803  0.1507
   17MOL   C478 8510   6.910   6.205   7.711  0.0012  0.3125  0.2921
   17MOL   O479 8511   6.933   6.318   7.644 -0.5030 -0.4418 -0.2957
   17MOL   C480 8512   6.953   6.426   7.740 -0.7207  0.0189 -0.1042
   17MOL   C481 8513   7.014   6.544   7.661 -0.5887 -0.1092 -0.2518
   17MOL   C482 8514   6.931   6.592   7.534  0.1391  0.4035  0.0439
   17MOL   C483 8515   6.994   6.721   7.476 -0.2330 -0.1265  0.0013
   17MOL   C484 8516   6.933   6.780   7.349  0.1785 -0.4692  0.3695
   17MOL   C485 8517   6.984   6.923   7.328 -0.5411 -0.2050 -0.5883
   17MOL   H486 8518   7.067   6.090   7.613 -0.0310 -0.6232  0.1296
   17MOL   H487 8519   6.939   6.122   7.526  2.4770  2.7480  0.5599
   17MOL   H488 8520   6.803   6.195   7.731  0.0490 -0.6736  0.0659
   17MOL   H489 8521   7.023   6.398   0.042 -1.4631 -0.8551  0.2419
   17MOL   H490 8522   6.865   6.464   0.015 -0.1437  0.3570  0.6318
   17MOL   H491 8523   7.115   6.514   7.631 -0.5257  0.7544 -0.9291
   17MOL   H492 8524   7.027   6.624   7.733 -0.4839  0.6379 -1.1031
   17MOL   H493 8525   6.920   6.517   7.456 -2.1377 -0.1960  0.9103
   17MOL   H494 8526   6.829   6.598   7.572  0.3266 -2.2497  1.0587
   17MOL   H495 8527   7.001   6.800   7.550 -0.8918  0.1372 -0.2150
   17MOL   H496 8528   7.098   6.698   7.451 -0.3865  0.4543 -1.2252
   17MOL   H497 8529   6.951   6.720   7.259 -0.5067  1.1507 -0.8619
   17MOL   H498 8530   6.824   6.786   7.350  0.1371 -1.1254  0.0916
   17MOL   H499 8531   7.089   6.927   7.298 -0.1617  0.0217  0.7241
   17MOL   H500 8532   6.935   6.968   7.242  0.6462 -0.8420 -1.6109
   17MOL   H501 8533   6.970   6.985   7.417 -0.8644  1.0431 -1.4954
   17MOL   H502 8534   6.973   6.191   0.022 -0.8292  0.4410  0.9164
   18MOL     C1 8535   3.039   5.110   1.755  0.8233 -0.2351 -0.6415
   18MOL     C2 8536   3.176   5.138   1.701  0.2772 -0.0760  0.1892
   18MOL     O3 8537   3.160   5.199   1.573  0.5365  0.0295 -0.0526
   18MOL     C4 8538   3.241   5.315   1.552 -0.7627  0.3517 -0.4439
   18MOL     C5 8539   3.176   5.412   1.453 -0.1141  0.0994 -0.1587
   18MOL     C6 8540   3.030   5.445   1.469  0.2814  0.3843  0.0215
   18MOL     C7 8541   2.966   5.526   1.359 -0.4924  0.1492  0.4967
   18MOL     C8 8542   2.824   5.577   1.386 -0.2126  0.5144 -0.3984
   18MOL     C9 8543   2.748   5.624   1.273  0.7743  0.4954 -0.6789
   18MOL    H10 8544   2.981   5.053   1.681 -1.0885 -0.8244  1.2480
   18MOL    H11 8545   3.049   5.061   1.852  1.5293  0.1208 -0.5368
   18MOL    H12 8546   3.225   5.214   1.763 -2.7419  1.6836  0.5214
   18MOL    H13 8547   3.339   5.285   1.515 -0.8684  3.6695 -3.7639
   18MOL    H14 8548   3.257   5.378   1.639 -1.6766 -1.3616  0.9963
   18MOL    H15 8549   3.191   5.382   1.349  1.2038  1.1759 -0.2925
   18MOL    H16 8550   3.228   5.507   1.444  0.8596 -0.6306 -2.6961
   18MOL    H17 8551   2.983   5.347   1.475  2.8252 -0.9576 -1.6489
   18MOL    H18 8552   3.011   5.483   1.570 -1.8340 -0.0951 -0.1657
   18MOL    H19 8553   3.027   5.614   1.337  1.6318 -1.8461 -1.9388
   18MOL    H20 8554   2.962   5.465   1.268 -1.1165 -1.5128  1.6238
   18MOL    H21 8555   2.839   5.661   1.454 -0.5862 -0.5959  1.0818
   18MOL    H22 8556   2.763   5.510   1.447  0.2064 -0.5233 -1.1114
   18MOL    H23 8557   2.749   5.568   1.179 -2.0587  0.3845 -0.7091
   18MOL    H24 8558   2.644   5.653   1.291  0.9037  0.1784  0.5643
   18MOL    H25 8559   2.793   5.719   1.245 -0.2540  0.9318 -0.8924
   18MOL    H26 8560   2.987   5.206   1.761 -0.3360 -0.8720 -0.1082
   18MOL    C27 8561   3.261   5.013   1.673 -0.5042 -0.3617  0.0661
   18MOL    C28 8562   3.302   4.944   1.802  0.2710  0.1637 -0.0814
   18MOL    O29 8563   3.393   4.848   1.757  0.0033  0.1396 -0.1291
   18MOL    C30 8564   3.345   4.727   1.725 -0.2445 -0.3482  0.9362
   18MOL    C31 8565   3.466   4.660   1.655 -0.9694 -0.4869 -0.2337
   18MOL    C32 8566   3.438   4.513   1.621  0.3218 -0.2177 -0.5045
   18MOL    C33 8567   3.565   4.439   1.580 -0.4368  0.4162  0.6491
   18MOL    C34 8568   3.552   4.292   1.533  0.1686  0.2774  0.2116
   18MOL    C35 8569   3.489   4.283   1.390  0.5665 -0.2404  0.6345
   18MOL    H36 8570   3.202   4.957   1.600 -0.0872 -0.8972  0.1331
   18MOL    H37 8571   3.349   5.046   1.619 -1.6186  1.1202 -0.8849
   18MOL    H38 8572   3.217   4.898   1.853  1.6553 -2.4329 -0.0891
   18MOL    H39 8573   3.264   4.744   1.654 -0.0515  0.4225  0.8996
   18MOL    H40 8574   3.307   4.674   1.812  1.2674 -2.9034  0.1000
   18MOL    H41 8575   3.546   4.665   1.729  0.4376 -0.8375 -1.7091
   18MOL    H42 8576   3.507   4.705   1.564  0.9411 -2.4691 -0.4106
   18MOL    H43 8577   3.403   4.461   1.710  0.1807  2.9563  1.3867
   18MOL    H44 8578   3.368   4.511   1.538  0.7383  2.2220 -0.9622
   18MOL    H45 8579   3.620   4.496   1.504  0.5696  0.0790  1.1139
   18MOL    H46 8580   3.626   4.439   1.670 -0.8214 -0.3348  0.9147
   18MOL    H47 8581   3.653   4.253   1.523 -0.1015 -0.4406  0.2612
   18MOL    H48 8582   3.496   4.231   1.604 -0.2751  2.5781  1.8903
   18MOL    H49 8583   3.527   4.342   1.307 -1.8593  0.3327 -0.0891
   18MOL    H50 8584   3.492   4.182   1.350 -1.0830  0.3277 -0.9761
   18MOL    H51 8585   3.384   4.305   1.406  0.1834 -1.5825  0.0625
   18MOL    C52 8586   3.382   5.042   1.893  0.7101 -0.5976 -0.6164
   18MOL    C53 8587   3.466   4.958   1.994  0.5262  0.2073 -0.1054
   18MOL    O54 8588   3.528   5.052   2.081 -0.3749  0.0416  0.2497
   18MOL    C55 8589   3.647   5.105   2.034  0.0787 -0.1136  0.1294
   18MOL    C56 8590   3.695   5.203   2.137  0.2313  0.1917 -0.2361
   18MOL    C57 8591   3.593   5.315   2.160  0.1423 -0.6071  0.2605
   18MOL    C58 8592   3.637   5.409   2.276  0.7372  0.2202 -0.3213
   18MOL    C59 8593   3.534   5.522   2.283  0.2305  0.0421  0.2965
   18MOL    C60 8594   3.555   5.632   2.393  0.5418 -0.2025  0.0849
   18MOL    H61 8595   3.319   5.112   1.948 -0.0607 -2.8896  1.5204
   18MOL    H62 8596   3.452   5.096   1.829  0.5502 -1.5577 -1.6160
   18MOL    H63 8597   3.548   4.909   1.941  0.1642  1.4001 -1.7990
   18MOL    H64 8598   3.636   5.158   1.940 -1.0583  1.4082  1.0988
   18MOL    H65 8599   3.718   5.025   2.011 -0.4291 -0.0191 -1.8955
   18MOL    H66 8600   3.785   5.258   2.107  1.0485 -1.6210 -1.1880
   18MOL    H67 8601   3.709   5.150   2.232 -1.0322  2.3890  1.2099
   18MOL    H68 8602   3.567   5.370   2.070  3.1667  1.0824  0.3871
   18MOL    H69 8603   3.499   5.269   2.194  0.6824 -1.7496  0.2340
   18MOL    H70 8604   3.643   5.352   2.368 -0.9738 -0.3659 -0.5537
   18MOL    H71 8605   3.732   5.459   2.260 -1.0573  2.9186 -3.1313
   18MOL    H72 8606   3.518   5.569   2.186  1.6709 -1.3560 -0.6571
   18MOL    H73 8607   3.436   5.474   2.287  0.4537 -0.3773  0.9773
   18MOL    H74 8608   3.643   5.689   2.365 -0.9561  1.5805 -1.0793
   18MOL    H75 8609   3.473   5.703   2.402  0.3866 -0.2776 -0.7095
   18MOL    H76 8610   3.568   5.582   2.489 -0.9314  0.2710  0.5428
   18MOL    C77 8611   3.392   4.856   2.086 -0.5038  0.0461  0.0854
   18MOL    C78 8612   3.473   4.747   2.164  0.5975 -0.6692  0.0051
   18MOL    O79 8613   3.389   4.635   2.204 -0.2713  0.0695 -0.1818
   18MOL    C80 8614   3.362   4.541   2.104 -0.4356  0.1890 -0.8471
   18MOL    C81 8615   3.418   4.403   2.138 -0.1257  0.2529 -0.1917
   18MOL    C82 8616   3.359   4.333   2.256 -0.0745  0.0599 -0.2510
   18MOL    C83 8617   3.451   4.222   2.310 -0.4564  0.1826  0.8001
   18MOL    C84 8618   3.393   4.155   2.433  0.4118 -0.0498 -0.7432
   18MOL    C85 8619   3.488   4.057   2.483 -0.1278 -0.1872 -0.1389
   18MOL    H86 8620   3.326   4.800   2.020  1.7492 -0.3887 -1.8992
   18MOL    H87 8621   3.329   4.917   2.151 -1.9456 -1.3998  0.0600
   18MOL    H88 8622   3.555   4.713   2.099  0.3761  0.1975 -0.7452
   18MOL    H89 8623   3.419   4.565   2.014 -0.4235 -0.9755 -1.1687
   18MOL    H90 8624   3.255   4.521   2.098 -0.6975  0.7713  1.5609
   18MOL    H91 8625   3.527   4.405   2.145  0.1484 -0.2368 -3.5761
   18MOL    H92 8626   3.387   4.337   2.057  0.0922  1.3873 -1.2135
   18MOL    H93 8627   3.340   4.408   2.333  0.1947 -0.8566  0.7186
   18MOL    H94 8628   3.263   4.290   2.226 -0.4488  0.7869 -0.0936
   18MOL    H95 8629   3.466   4.142   2.237  4.9415  1.3341  0.3865
   18MOL    H96 8630   3.546   4.272   2.329  0.5573 -1.1712 -0.5779
   18MOL    H97 8631   3.359   4.230   2.504 -1.8300 -0.4689 -1.3280
   18MOL    H98 8632   3.300   4.102   2.409 -0.6089  1.3987 -0.0566
   18MOL    H99 8633   3.430   3.986   2.543  0.1913 -0.4084 -0.0933
   18MOL   H100 8634   3.527   3.984   2.412  0.0362 -0.3595  0.1258
   18MOL   H101 8635   3.572   4.098   2.538 -0.0363 -1.3098  0.5891
   18MOL   C102 8636   3.532   4.799   2.298 -0.4362 -0.2787  0.1117
   18MOL   C103 8637   3.649   4.718   2.360 -0.6151  0.3636  0.8558
   18MOL   O104 8638   3.741   4.811   2.410  0.1838  0.2129 -0.0895
   18MOL   C105 8639   3.830   4.852   2.315 -0.3455  0.1215  0.0592
   18MOL   C106 8640   3.909   4.959   2.389  0.1449 -0.6678  0.5130
   18MOL   C107 8641   3.999   5.026   2.285 -0.3668  0.4056  0.0429
   18MOL   C108 8642   4.070   5.147   2.346 -0.0486 -0.4753 -0.2375
   18MOL   C109 8643   4.150   5.223   2.232  1.2756  0.5327  0.3551
   18MOL   C110 8644   4.077   5.304   2.122  0.7570 -0.3040 -0.3917
   18MOL   H111 8645   3.564   4.897   2.262 -2.0674  0.3568  0.3080
   18MOL   H112 8646   3.455   4.806   2.375 -2.1927 -0.5547 -1.5843
   18MOL   H113 8647   3.695   4.662   2.278 -0.3371  0.7014  0.7810
   18MOL   H114 8648   3.800   4.888   2.217  0.0932  1.3073  0.3510
   18MOL   H115 8649   3.901   4.772   2.296  1.7989  1.2325  3.0601
   18MOL   H116 8650   3.964   4.904   2.466  0.5361  0.8370  1.3373
   18MOL   H117 8651   3.839   5.033   2.428  2.1108  1.9564 -0.7783
   18MOL   H118 8652   4.064   4.951   2.241 -2.1011 -1.8224  1.1965
   18MOL   H119 8653   3.939   5.056   2.198  1.8237 -0.3932 -1.7745
   18MOL   H120 8654   3.996   5.207   2.397 -1.0617 -1.0027 -1.0612
   18MOL   H121 8655   4.138   5.096   2.415  0.1733 -1.9834 -1.5269
   18MOL   H122 8656   4.217   5.288   2.288  4.2421 -2.4824  0.4358
   18MOL   H123 8657   4.221   5.155   2.183  1.6882  0.7179  0.6949
   18MOL   H124 8658   4.139   5.362   2.054  1.7459  0.3950  1.0849
   18MOL   H125 8659   4.017   5.249   2.049 -0.3445 -1.9058  1.6823
   18MOL   H126 8660   4.015   5.380   2.168 -1.6641 -1.7287 -1.2133
   18MOL   C127 8661   3.618   4.613   2.468  0.7808  0.2028 -0.1897
   18MOL   C128 8662   3.748   4.533   2.515  1.0023 -0.4949  0.3330
   18MOL   O129 8663   3.784   4.440   2.411 -0.9789  0.0164  0.6757
   18MOL   C130 8664   3.919   4.380   2.410  0.9234  0.5973  0.0823
   18MOL   C131 8665   3.917   4.269   2.305 -0.1109  0.3621  0.1495
   18MOL   C132 8666   3.880   4.321   2.166  0.1877 -0.0198 -0.2202
   18MOL   C133 8667   3.876   4.218   2.056 -0.0654 -0.2656 -1.0151
   18MOL   C134 8668   3.848   4.285   1.917 -0.0158 -0.3963 -0.5211
   18MOL   C135 8669   3.817   4.174   1.808  0.3524  0.7513  0.6922
   18MOL   H136 8670   3.582   4.666   2.557  0.8805  1.0631 -0.6599
   18MOL   H137 8671   3.540   4.551   2.425  0.3574 -0.4880  1.5233
   18MOL   H138 8672   3.827   4.607   2.522  1.4189 -0.9967  1.0745
   18MOL   H139 8673   3.935   4.340   2.510  0.9811 -0.5188 -0.3667
   18MOL   H140 8674   3.994   4.459   2.400  0.3050  1.3470  1.2452
   18MOL   H141 8675   3.848   4.193   2.342  0.2176 -0.5661 -1.1303
   18MOL   H142 8676   4.013   4.218   2.303 -0.3520 -0.0669 -0.4367
   18MOL   H143 8677   3.779   4.362   2.172 -0.4197 -1.2240 -1.8976
   18MOL   H144 8678   3.948   4.403   2.144 -0.2699 -0.0325 -1.7194
   18MOL   H145 8679   3.962   4.151   2.053 -1.0558 -1.7232  1.8128
   18MOL   H146 8680   3.789   4.155   2.077  0.5830 -0.5487  0.8732
   18MOL   H147 8681   3.750   4.328   1.938 -0.4085 -1.8819  0.7895
   18MOL   H148 8682   3.928   4.344   1.873  1.5600 -2.2455 -0.1950
   18MOL   H149 8683   3.731   4.112   1.836 -0.4533  1.7841  0.5394
   18MOL   H150 8684   3.801   4.207   1.705 -2.7613 -2.1177  0.1484
   18MOL   H151 8685   3.907   4.114   1.797 -0.1584 -0.0999  1.0948
   18MOL   C152 8686   3.716   4.452   2.644  0.0725  0.0498  0.2955
   18MOL   C153 8687   3.684   4.529   2.771  0.9036  0.1602  0.1929
   18MOL   O154 8688   3.592   4.452   2.844 -0.0363  0.2704 -0.0707
   18MOL   C155 8689   3.455   4.490   2.834 -0.7488 -0.2628  0.0648
   18MOL   C156 8690   3.360   4.404   2.923  0.2790  0.4160  0.1180
   18MOL   C157 8691   3.351   4.259   2.873 -0.4204  0.0970 -0.2099
   18MOL   C158 8692   3.278   4.173   2.971 -0.0663  0.6734 -0.2066
   18MOL   C159 8693   3.260   4.026   2.936  0.2272  0.5225  1.4566
   18MOL   C160 8694   3.396   3.951   2.944  0.2936  0.1993 -1.1003
   18MOL   H161 8695   3.634   4.386   2.613  0.4029 -0.2150 -0.0148
   18MOL   H162 8696   3.808   4.395   2.657  0.4984  0.4052 -1.0748
   18MOL   H163 8697   3.642   4.629   2.758  1.5660  0.5914  1.2936
   18MOL   H164 8698   3.423   4.486   2.730 -0.4788  0.4465 -0.0468
   18MOL   H165 8699   3.456   4.594   2.868 -0.5327 -0.3416  0.3005
   18MOL   H166 8700   3.260   4.444   2.905  0.1061  0.6285  1.5118
   18MOL   H167 8701   3.385   4.430   3.026  1.4018 -2.5536  0.6420
   18MOL   H168 8702   3.291   4.260   2.781  0.8706 -0.8611 -1.0812
   18MOL   H169 8703   3.452   4.225   2.855 -0.2254 -0.4885  1.9456
   18MOL   H170 8704   3.337   4.186   3.061 -1.2880 -2.1336  1.0569
   18MOL   H171 8705   3.181   4.219   2.985  0.1719  1.1078  0.0341
   18MOL   H172 8706   3.205   3.981   3.019 -0.4545  1.5211  1.5565
   18MOL   H173 8707   3.213   4.009   2.839 -0.0417 -0.5903  1.7702
   18MOL   H174 8708   3.383   3.845   2.924 -4.6930  0.1618  1.6491
   18MOL   H175 8709   3.457   3.991   2.863 -1.0186  0.5047 -1.9575
   18MOL   H176 8710   3.453   3.950   3.036 -1.8079  0.8749  0.2498
   18MOL   C177 8711   3.802   4.556   2.870 -0.3124  0.2052 -0.2020
   18MOL   C178 8712   3.776   4.642   2.994  0.6069  0.4828 -0.3536
   18MOL   O179 8713   3.780   4.567   3.112  0.3347  0.1340  0.4349
   18MOL   C180 8714   3.694   4.455   3.121 -0.0257  0.3268 -0.5362
   18MOL   C181 8715   3.688   4.401   3.267 -0.2813  0.6021 -0.2120
   18MOL   C182 8716   3.599   4.272   3.298 -0.8766  0.1015  0.1866
   18MOL   C183 8717   3.572   4.229   3.440 -0.6796 -0.1640  0.1921
   18MOL   C184 8718   3.475   4.116   3.446  0.2944  0.4102 -0.7760
   18MOL   C185 8719   3.446   4.071   3.599  0.2999 -0.7830 -0.8074
   18MOL   H186 8720   3.852   4.465   2.904 -3.9855 -1.3948  1.2714
   18MOL   H187 8721   3.873   4.602   2.802  0.2424 -1.3336 -0.6753
   18MOL   H188 8722   3.675   4.681   2.988 -0.5754 -2.3111  0.5593
   18MOL   H189 8723   3.720   4.376   3.050  2.3694  0.8453 -0.2773
   18MOL   H190 8724   3.592   4.487   3.101 -0.3001 -0.1044  0.1482
   18MOL   H191 8725   3.644   4.482   3.324  0.0325  0.1711  0.6569
   18MOL   H192 8726   3.791   4.389   3.300  0.1138  2.3442 -0.7778
   18MOL   H193 8727   3.500   4.290   3.257 -1.1233 -1.0258  0.2788
   18MOL   H194 8728   3.642   4.192   3.238 -0.0095  0.0767  0.8232
   18MOL   H195 8729   3.663   4.188   3.484 -1.0143 -0.6333  0.4477
   18MOL   H196 8730   3.543   4.316   3.500  1.3002 -1.1621  2.6815
   18MOL   H197 8731   3.384   4.141   3.392 -0.1676  0.1894 -0.1149
   18MOL   H198 8732   3.510   4.023   3.402 -3.6025  0.0799 -3.3915
   18MOL   H199 8733   3.349   4.021   3.594 -1.0743  1.9157 -2.1691
   18MOL   H200 8734   3.525   4.010   3.642  0.9642  0.1555 -0.6739
   18MOL   H201 8735   3.424   4.151   3.671 -2.5140 -2.0097 -0.2154
   18MOL   C202 8736   3.900   4.729   3.012 -0.1609  0.3283  0.1916
   18MOL   C203 8737   3.894   4.868   2.934  0.7601  0.6457  0.3060
   18MOL   O204 8738   4.029   4.912   2.915  0.1005 -0.8019  0.1490
   18MOL   C205 8739   4.082   4.873   2.794 -0.1749 -0.4513 -0.3435
   18MOL   C206 8740   4.225   4.913   2.779 -0.0562  0.0635  0.2815
   18MOL   C207 8741   4.287   4.888   2.641 -0.4205  0.0626 -0.6283
   18MOL   C208 8742   4.337   4.744   2.609  0.1895 -0.3312  0.1843
   18MOL   C209 8743   4.431   4.744   2.485  0.0877  0.3655 -0.1406
   18MOL   C210 8744   4.376   4.791   2.342  0.0720 -0.2712 -0.4604
   18MOL   H211 8745   3.915   4.749   3.118  1.2917 -2.2598  0.5115
   18MOL   H212 8746   3.987   4.667   2.988  1.3560  1.6961  2.0560
   18MOL   H213 8747   3.844   4.854   2.839 -0.4123  2.8163  0.5808
   18MOL   H214 8748   4.011   4.918   2.724 -0.7317  1.0255  1.1345
   18MOL   H215 8749   4.079   4.764   2.787 -2.7216 -0.6491  2.6914
   18MOL   H216 8750   4.279   4.852   2.851  0.4159 -0.7322 -0.7245
   18MOL   H217 8751   4.233   5.019   2.804  1.9824 -0.2744  1.1326
   18MOL   H218 8752   4.226   4.923   2.558 -2.0264 -1.3770 -0.0758
   18MOL   H219 8753   4.371   4.957   2.637  1.0102 -1.6942 -2.4510
   18MOL   H220 8754   4.396   4.712   2.695 -0.2353 -2.4589 -0.2903
   18MOL   H221 8755   4.257   4.675   2.583  0.5337 -0.9605  0.7874
   18MOL   H222 8756   4.516   4.810   2.501  0.0898  0.6503 -1.2943
   18MOL   H223 8757   4.467   4.642   2.473 -0.3699  0.1599  0.2440
   18MOL   H224 8758   4.270   4.771   2.326 -0.7276  2.1986  1.4525
   18MOL   H225 8759   4.401   4.896   2.326 -0.6132  0.3576  2.2148
   18MOL   H226 8760   4.427   4.737   2.263  1.3487  0.9635 -0.4982
   18MOL   C227 8761   3.819   4.971   3.016 -0.4496 -0.2657 -0.1964
   18MOL   C228 8762   3.772   5.104   2.944 -0.0270  0.3920 -0.4074
   18MOL   O229 8763   3.668   5.067   2.858 -0.4921  0.0890 -0.1954
   18MOL   C230 8764   3.686   5.066   2.719  0.0659 -0.3727 -0.4829
   18MOL   C231 8765   3.555   5.004   2.651  0.5991  0.2668 -0.2097
   18MOL   C232 8766   3.429   5.085   2.655  0.4418  0.1846  0.6587
   18MOL   C233 8767   3.317   5.015   2.572 -0.7120  0.2549  0.4269
   18MOL   C234 8768   3.282   5.060   2.427  0.2892 -0.3132 -0.0853
   18MOL   C235 8769   3.238   5.203   2.429 -0.7121 -0.0188  0.0337
   18MOL   H236 8770   3.735   4.923   3.066 -0.8642  0.6778  0.0174
   18MOL   H237 8771   3.893   5.005   3.089 -0.6366  0.6487 -0.4265
   18MOL   H238 8772   3.844   5.158   2.883  0.2111  1.5150  0.8303
   18MOL   H239 8773   3.776   5.010   2.694  1.5126  1.3574  0.7561
   18MOL   H240 8774   3.715   5.161   2.674  2.2514 -0.7913 -0.0142
   18MOL   H241 8775   3.530   4.905   2.688 -2.0958  0.5069 -1.2672
   18MOL   H242 8776   3.571   4.995   2.543  0.6841 -1.8636 -0.0313
   18MOL   H243 8777   3.390   5.100   2.756 -0.8277  2.8513 -0.1883
   18MOL   H244 8778   3.460   5.184   2.621 -1.5908  0.3146 -0.8980
   18MOL   H245 8779   3.322   4.906   2.574  2.0681  0.3198 -0.5606
   18MOL   H246 8780   3.222   5.033   2.622 -1.5144 -0.4282 -0.8153
   18MOL   H247 8781   3.370   5.046   2.365  1.4572  0.4822  1.3605
   18MOL   H248 8782   3.207   4.999   2.377  0.0330  0.6512 -0.8784
   18MOL   H249 8783   3.156   5.211   2.500  0.8324  1.3279  1.7036
   18MOL   H250 8784   3.312   5.278   2.457 -0.1836  0.5025 -2.6654
   18MOL   H251 8785   3.225   5.250   2.331  1.2387  0.9973  0.2369
   18MOL   C252 8786   3.712   5.201   3.043 -0.0523  0.0947 -0.8110
   18MOL   C253 8787   3.653   5.330   2.970  0.1656 -0.9630 -0.1044
   18MOL   O254 8788   3.757   5.383   2.892  0.4416 -0.0025  0.0708
   18MOL   C255 8789   3.703   5.446   2.780  0.1459  0.4520 -0.4006
   18MOL   C256 8790   3.811   5.513   2.693 -0.3840 -0.8525  0.1996
   18MOL   C257 8791   3.905   5.420   2.630 -0.2753 -0.6728  0.4295
   18MOL   C258 8792   4.012   5.492   2.545  0.7460 -0.7462  0.2125
   18MOL   C259 8793   3.952   5.559   2.423  0.1473  0.0235 -0.1084
   18MOL   C260 8794   4.044   5.666   2.368  0.5139  0.8346 -0.1533
   18MOL   H261 8795   3.629   5.156   3.099  1.8254 -2.6635 -0.1612
   18MOL   H262 8796   3.790   5.226   3.115 -1.6378 -0.6997  1.2646
   18MOL   H263 8797   3.569   5.303   2.906 -0.0482  0.8832 -0.6287
   18MOL   H264 8798   3.633   5.527   2.805 -2.2982 -1.6966 -0.1091
   18MOL   H265 8799   3.651   5.374   2.718  0.8604  1.4557 -2.2175
   18MOL   H266 8800   3.878   5.573   2.755 -0.1752 -0.0313 -0.7992
   18MOL   H267 8801   3.760   5.575   2.620 -0.2706 -0.7776  0.1832
   18MOL   H268 8802   3.954   5.369   2.713 -1.6348 -0.3851  1.4276
   18MOL   H269 8803   3.864   5.333   2.578  2.9509 -1.1127 -1.5766
   18MOL   H270 8804   4.051   5.565   2.617 -1.4441 -0.3221  1.0114
   18MOL   H271 8805   4.086   5.421   2.508 -0.1641 -0.7173 -1.6945
   18MOL   H272 8806   3.933   5.478   2.354 -0.6854  0.4686 -0.4066
   18MOL   H273 8807   3.860   5.612   2.449  0.5009  0.5004  0.1872
   18MOL   H274 8808   3.993   5.726   2.293 -1.1028 -1.1453 -0.6889
   18MOL   H275 8809   4.083   5.737   2.441  2.6296 -2.3815  1.9428
   18MOL   H276 8810   4.132   5.626   2.318  0.0684  0.1818 -0.4188
   18MOL   C277 8811   3.598   5.424   3.080 -0.1753 -0.6116 -0.2171
   18MOL   C278 8812   3.456   5.416   3.120 -0.3485 -0.0946 -0.1564
   18MOL   O279 8813   3.427   5.286   3.179 -0.1122  0.5493  0.7028
   18MOL   C280 8814   3.288   5.253   3.185  0.1586 -0.1401 -0.2706
   18MOL   C281 8815   3.243   5.111   3.177 -0.4120  0.6991  0.3313
   18MOL   C282 8816   3.263   5.048   3.034 -0.4004 -0.5273 -0.3170
   18MOL   C283 8817   3.202   4.910   3.016  0.1627 -0.1578 -0.1511
   18MOL   C284 8818   3.256   4.807   3.113 -0.2812  0.1037  0.1203
   18MOL   C285 8819   3.412   4.779   3.112 -0.1390  0.3913 -0.2281
   18MOL   H286 8820   3.654   5.410   3.172 -2.1062  2.7607  1.5236
   18MOL   H287 8821   3.623   5.523   3.042  0.2785 -0.8852 -0.6477
   18MOL   H288 8822   3.402   5.425   3.026 -1.7308 -0.3743  0.5769
   18MOL   H289 8823   3.240   5.301   3.100  0.9818 -0.1386 -0.7293
   18MOL   H290 8824   3.257   5.295   3.281 -0.4794  3.9598 -2.1397
   18MOL   H291 8825   3.135   5.110   3.188 -0.4329  5.3642  1.7803
   18MOL   H292 8826   3.286   5.051   3.257  1.8514  3.1295  0.9879
   18MOL   H293 8827   3.216   5.112   2.958  0.4141 -1.4446 -1.6169
   18MOL   H294 8828   3.370   5.039   3.017 -0.3885  0.5727 -0.9074
   18MOL   H295 8829   3.095   4.921   3.032 -0.0369  0.9942 -2.1438
   18MOL   H296 8830   3.206   4.878   2.912 -0.0073 -1.2587  0.1658
   18MOL   H297 8831   3.215   4.819   3.214  0.0645  1.9857  0.0449
   18MOL   H298 8832   3.224   4.711   3.073 -0.6881 -1.1120  3.1591
   18MOL   H299 8833   3.444   4.776   3.008  1.2718  0.4700  0.2054
   18MOL   H300 8834   3.474   4.852   3.164 -0.6001 -2.4211  4.5648
   18MOL   H301 8835   3.432   4.682   3.158 -2.3948  0.4168  0.9017
   18MOL   C302 8836   3.424   5.528   3.226 -0.5763  0.2979  0.5528
   18MOL   C303 8837   3.287   5.594   3.221  0.3225  0.1210  0.1933
   18MOL   O304 8838   3.268   5.689   3.114  0.3334 -0.1360  0.2926
   18MOL   C305 8839   3.132   5.732   3.093 -0.4131  0.2185 -0.0811
   18MOL   C306 8840   3.040   5.624   3.048 -0.1577  0.3551  0.2330
   18MOL   C307 8841   2.929   5.598   3.152 -0.4777  0.7486 -0.4405
   18MOL   C308 8842   2.823   5.498   3.109 -0.0711  0.1338  0.2443
   18MOL   C309 8843   2.862   5.350   3.091  0.1148 -0.1092 -0.8239
   18MOL   C310 8844   2.746   5.256   3.105 -0.3377 -0.2984 -0.2366
   18MOL   H311 8845   3.438   5.480   3.323  0.0121 -1.5718 -0.4416
   18MOL   H312 8846   3.504   5.601   3.212 -0.0115 -0.0291  1.9508
   18MOL   H313 8847   3.210   5.516   3.216  0.0592  0.4181 -0.4455
   18MOL   H314 8848   3.135   5.808   3.015 -3.6461  1.2136  0.6751
   18MOL   H315 8849   3.099   5.789   3.179 -0.4884  0.0139  0.0261
   18MOL   H316 8850   3.102   5.537   3.025 -1.2453 -0.3357 -0.1638
   18MOL   H317 8851   3.007   5.654   2.948 -0.7012  0.4281  0.4314
   18MOL   H318 8852   2.968   5.551   3.243 -2.2159  0.2265  0.0477
   18MOL   H319 8853   2.887   5.693   3.185  0.9675  1.0929  0.4513
   18MOL   H320 8854   2.738   5.499   3.176 -0.8895 -0.0132 -0.7712
   18MOL   H321 8855   2.791   5.520   3.007 -2.4254 -0.6194  0.8070
   18MOL   H322 8856   2.891   5.336   2.986  1.3495 -0.2288 -0.4785
   18MOL   H323 8857   2.941   5.328   3.163 -1.3454 -2.6824  0.0130
   18MOL   H324 8858   2.647   5.296   3.084 -0.5467  0.9362  2.8552
   18MOL   H325 8859   2.758   5.174   3.035 -0.2531  1.6451 -2.5788
   18MOL   H326 8860   2.732   5.220   3.207  1.8199 -1.6806 -0.4039
   18MOL   C327 8861   3.244   5.653   3.357  0.2146 -0.5711 -0.4337
   18MOL   C328 8862   3.335   5.763   3.419 -0.1915 -0.5567 -0.1344
   18MOL   O329 8863   3.289   5.883   3.349 -0.5992 -0.0026  0.4373
   18MOL   C330 8864   3.399   5.958   3.287  0.3364  0.6060 -0.3548
   18MOL   C331 8865   3.342   6.046   3.177  0.0276 -0.2842  0.9529
   18MOL   C332 8866   3.271   6.172   3.228  0.0220 -0.1020 -0.5058
   18MOL   C333 8867   3.228   6.272   3.126  0.0597 -0.0268 -0.0995
   18MOL   C334 8868   3.089   6.330   3.145  0.1934 -0.2041  0.4205
   18MOL   C335 8869   3.083   6.419   3.261  0.6268  0.1896  0.3762
   18MOL   H336 8870   3.251   5.575   3.433 -0.0857  0.6297  0.8584
   18MOL   H337 8871   3.140   5.684   3.363 -0.4728 -2.6676 -1.0108
   18MOL   H338 8872   3.438   5.736   3.396 -0.7164  0.0807 -3.4326
   18MOL   H339 8873   3.472   5.897   3.233 -1.1704 -1.3313 -0.2738
   18MOL   H340 8874   3.459   6.014   3.358 -0.4639  0.0244  0.8026
   18MOL   H341 8875   3.265   5.995   3.119  0.3071 -0.5799  0.8387
   18MOL   H342 8876   3.422   6.057   3.104  0.2655  0.5609  1.3472
   18MOL   H343 8877   3.183   6.135   3.281  0.1966 -1.1008 -0.9133
   18MOL   H344 8878   3.333   6.225   3.300  1.2474  0.4909 -1.9671
   18MOL   H345 8879   3.304   6.350   3.128 -0.8862  0.9355 -1.1542
   18MOL   H346 8880   3.240   6.230   3.026  5.7522  1.8079 -0.3611
   18MOL   H347 8881   3.065   6.397   3.063  3.1372 -1.4451 -1.5080
   18MOL   H348 8882   3.009   6.257   3.146 -0.0523  0.0643  1.0185
   18MOL   H349 8883   3.095   6.370   3.357  2.2115 -0.1782  0.0035
   18MOL   H350 8884   3.144   6.509   3.256  0.5535  0.2518  0.6046
   18MOL   H351 8885   2.980   6.454   3.270  1.0640  1.5531  0.1939
   18MOL   C352 8886   3.306   5.779   3.570  1.1561  0.1501 -0.0982
   18MOL   C353 8887   3.363   5.668   3.667  0.7733  0.0954 -0.4779
   18MOL   O354 8888   3.277   5.664   3.772 -0.2229  0.3159  0.6698
   18MOL   C355 8889   3.272   5.541   3.846 -0.1564  0.2906  1.0621
   18MOL   C356 8890   3.174   5.553   3.964  0.0127  0.2151 -0.3236
   18MOL   C357 8891   3.024   5.535   3.925  0.5643 -0.0335 -0.2837
   18MOL   C358 8892   2.926   5.574   4.029 -0.6048 -0.3235 -0.4487
   18MOL   C359 8893   2.789   5.571   3.969  0.2089 -0.0085 -0.8734
   18MOL   C360 8894   2.684   5.637   4.073  0.0460 -0.1842 -0.4131
   18MOL   H361 8895   3.345   5.876   3.598 -1.6800  2.0760 -2.5675
   18MOL   H362 8896   3.201   5.799   3.589  1.4271  1.4187  0.0908
   18MOL   H363 8897   3.343   5.578   3.608  0.0335  1.0205 -1.6605
   18MOL   H364 8898   3.374   5.525   3.883 -0.0086  1.4405  1.1456
   18MOL   H365 8899   3.260   5.449   3.788 -0.6681  0.2787  1.1915
   18MOL   H366 8900   3.194   5.645   4.019  0.0473  0.7211 -1.1871
   18MOL   H367 8901   3.208   5.492   4.049 -2.4812  0.7640  1.1200
   18MOL   H368 8902   3.001   5.595   3.837 -0.6409  0.0048  0.0517
   18MOL   H369 8903   3.012   5.431   3.895  0.0396  0.1988 -0.8811
   18MOL   H370 8904   2.945   5.521   4.122  0.0866  2.1860  0.8955
   18MOL   H371 8905   2.945   5.678   4.057 -0.9437 -0.4096  0.0885
   18MOL   H372 8906   2.775   5.631   3.878  4.7380 -0.4477 -1.9812
   18MOL   H373 8907   2.751   5.472   3.945 -0.4694 -0.2412  1.1301
   18MOL   H374 8908   2.700   5.741   4.100  0.9713  0.0667 -1.8342
   18MOL   H375 8909   2.581   5.625   4.039  0.0315 -1.1529 -0.0668
   18MOL   H376 8910   2.696   5.583   4.167 -0.3174  2.0109  0.9224
   18MOL   C377 8911   3.510   5.671   3.709  0.0031 -0.8639  0.4330
   18MOL   C378 8912   3.591   5.585   3.608  0.1741 -0.6895 -0.4718
   18MOL   O379 8913   3.585   5.453   3.655  0.3238  0.3447  0.3214
   18MOL   C380 8914   3.572   5.349   3.555  0.3123 -0.0946 -0.1949
   18MOL   C381 8915   3.577   5.205   3.616 -0.5567  0.2255 -0.4811
   18MOL   C382 8916   3.465   5.175   3.711 -0.0005 -0.5061 -0.0072
   18MOL   C383 8917   3.401   5.032   3.736 -0.4920  0.3614 -0.0638
   18MOL   C384 8918   3.289   4.987   3.634  0.0378  0.5340 -0.3559
   18MOL   C385 8919   3.174   5.091   3.625 -0.3765 -0.1799  0.3967
   18MOL   H386 8920   3.549   5.772   3.713 -2.8751  0.2752  0.8799
   18MOL   H387 8921   3.528   5.646   3.814  0.2120 -1.2169  0.3159
   18MOL   H388 8922   3.563   5.601   3.504  2.5487 -1.7435 -1.2975
   18MOL   H389 8923   3.650   5.355   3.479  0.6022 -1.8468 -0.0558
   18MOL   H390 8924   3.480   5.361   3.499 -0.4044  3.1133  1.5463
   18MOL   H391 8925   3.675   5.184   3.659 -0.0505  0.9025 -1.2933
   18MOL   H392 8926   3.573   5.146   3.525  0.3708 -0.1308 -0.2964
   18MOL   H393 8927   3.488   5.216   3.809  1.3239 -0.0939 -0.4669
   18MOL   H394 8928   3.388   5.246   3.681  2.9641  1.8462 -2.4338
   18MOL   H395 8929   3.481   4.958   3.742  1.4006  2.2120 -1.7214
   18MOL   H396 8930   3.350   5.035   3.833 -1.6390  0.3059 -0.6640
   18MOL   H397 8931   3.325   4.947   3.540 -1.7662 -0.7305 -0.5291
   18MOL   H398 8932   3.247   4.895   3.676  1.5101  0.9833  2.2484
   18MOL   H399 8933   3.203   5.169   3.556 -0.2035  0.2612  0.9670
   18MOL   H400 8934   3.074   5.066   3.589 -1.1795  0.1062  2.3417
   18MOL   H401 8935   3.154   5.139   3.721  0.1034  0.4136  0.1956
   18MOL   C402 8936   3.743   5.618   3.612  0.4484  0.4019  0.4224
   18MOL   C403 8937   3.785   5.732   3.508 -0.2701 -0.0858 -0.0280
   18MOL   O404 8938   3.715   5.846   3.543 -0.2980 -0.3031  0.2506
   18MOL   C405 8939   3.791   5.943   3.614 -0.4613  0.1494 -0.0439
   18MOL   C406 8940   3.699   6.043   3.683  0.3224 -0.4308  0.8312
   18MOL   C407 8941   3.775   6.159   3.756 -0.4334  0.6276 -0.8158
   18MOL   C408 8942   3.662   6.254   3.799  0.0369 -0.4350 -0.1757
   18MOL   C409 8943   3.731   6.376   3.861 -0.6563  0.2603  0.5548
   18MOL   C410 8944   3.650   6.502   3.869  0.4371  0.4673  0.5734
   18MOL   H411 8945   3.803   5.533   3.580  0.0032  0.9123 -1.8311
   18MOL   H412 8946   3.783   5.648   3.709  1.2176  3.8483 -0.8858
   18MOL   H413 8947   3.893   5.734   3.516 -0.2835 -1.5139  0.5690
   18MOL   H414 8948   3.849   5.988   3.533 -1.2633 -2.7811 -2.3386
   18MOL   H415 8949   3.855   5.900   3.691 -0.8152 -0.6255 -0.1865
   18MOL   H416 8950   3.641   5.979   3.749  1.0758 -1.2317  0.7321
   18MOL   H417 8951   3.629   6.082   3.609 -1.7000 -1.0781  2.3704
   18MOL   H418 8952   3.829   6.120   3.842 -0.5748  0.5545 -0.7592
   18MOL   H419 8953   3.852   6.204   3.694  1.2080  0.0599  0.7789
   18MOL   H420 8954   3.586   6.267   3.721 -0.3585 -1.0782  0.0963
   18MOL   H421 8955   3.600   6.222   3.882  1.3399  0.5909  1.2118
   18MOL   H422 8956   3.782   6.356   3.955  2.2485  0.6311 -0.9010
   18MOL   H423 8957   3.824   6.396   3.808 -1.3236 -0.1231 -0.7832
   18MOL   H424 8958   3.708   6.580   3.918  1.7366 -1.5625  2.4112
   18MOL   H425 8959   3.618   6.534   3.770  0.7212  0.8396  0.6023
   18MOL   H426 8960   3.562   6.484   3.931  0.4495  0.6493  0.6441
   18MOL   C427 8961   3.774   5.697   3.354  0.0700 -0.2306  0.5636
   18MOL   C428 8962   3.838   5.810   3.271  0.1690 -0.3468 -0.3494
   18MOL   O429 8963   3.970   5.782   3.275 -0.3588  0.0945 -0.3204
   18MOL   C430 8964   4.056   5.887   3.315  0.2851  0.0627  0.2530
   18MOL   C431 8965   4.186   5.843   3.375  0.0542 -0.2426 -0.3936
   18MOL   C432 8966   4.168   5.753   3.498 -0.6406  0.3218  0.4275
   18MOL   C433 8967   4.302   5.702   3.551  0.4846 -0.2251  0.0220
   18MOL   C434 8968   4.274   5.591   3.648  0.2393  0.4233 -0.1332
   18MOL   C435 8969   4.239   5.647   3.781  0.7264  0.1918 -0.5425
   18MOL   H436 8970   3.822   5.602   3.331  0.3183  0.4718 -1.9846
   18MOL   H437 8971   3.670   5.688   3.324 -0.3033 -0.8987  2.0022
   18MOL   H438 8972   3.807   5.908   3.308  0.3377 -1.3381  2.4916
   18MOL   H439 8973   4.012   5.968   3.373  0.7111 -0.6425  1.5772
   18MOL   H440 8974   4.075   5.930   3.217  2.4356  2.5316  1.7092
   18MOL   H441 8975   4.256   5.923   3.395  0.1534 -0.2568 -0.6830
   18MOL   H442 8976   4.232   5.780   3.299  2.9932 -0.3157  1.3880
   18MOL   H443 8977   4.133   5.812   3.583 -1.8516 -1.1879  0.9761
   18MOL   H444 8978   4.101   5.671   3.475  0.1959 -0.9783  2.5253
   18MOL   H445 8979   4.352   5.663   3.462  2.5951 -1.7510  1.8056
   18MOL   H446 8980   4.369   5.775   3.596  1.7032 -1.7302  0.6978
   18MOL   H447 8981   4.202   5.522   3.604  1.5244 -0.6571 -0.5852
   18MOL   H448 8982   4.368   5.537   3.662  0.1889  0.5101  0.5305
   18MOL   H449 8983   4.146   5.701   3.763  0.1946 -1.1595 -1.9514
   18MOL   H450 8984   4.228   5.572   3.859  1.5776 -0.2331 -0.8304
   18MOL   H451 8985   4.312   5.716   3.825  3.7216 -4.1775  1.7319
   18MOL   C452 8986   3.794   5.791   3.124  0.5316  0.1597 -0.4936
   18MOL   C453 8987   3.832   5.910   3.032  0.0220 -0.0022  0.0452
   18MOL   O454 8988   3.778   6.029   3.081 -0.8745 -0.3305 -0.0076
   18MOL   C455 8989   3.852   6.144   3.053 -0.9178  0.0882  0.4224
   18MOL   C456 8990   3.797   6.249   3.144  0.4710 -0.1640  0.2191
   18MOL   C457 8991   3.822   6.222   3.294  0.4253  0.5543 -0.0747
   18MOL   C458 8992   3.802   6.348   3.385  0.4208  0.0097 -0.4084
   18MOL   C459 8993   3.664   6.406   3.385 -0.4184 -0.0760  0.2295
   18MOL   C460 8994   3.652   6.541   3.447  0.2062 -0.5739  0.1646
   18MOL   H461 8995   3.820   5.696   3.077  1.5807  0.3376 -0.2679
   18MOL   H462 8996   3.685   5.790   3.120  0.5150  0.3118 -0.1342
   18MOL   H463 8997   3.941   5.915   3.027 -0.0026  0.0493 -0.4985
   18MOL   H464 8998   3.826   6.172   2.951  0.4583  0.8888  0.2869
   18MOL   H465 8999   3.957   6.128   3.077 -1.2728  0.6921  2.5777
   18MOL   H466 9000   3.689   6.259   3.129  0.2841 -2.8329 -0.4298
   18MOL   H467 9001   3.840   6.344   3.114  2.0464 -1.4891 -1.9007
   18MOL   H468 9002   3.757   6.138   3.319  0.9185  0.5643  1.2691
   18MOL   H469 9003   3.924   6.189   3.316 -0.3875 -2.5734 -0.7434
   18MOL   H470 9004   3.821   6.325   3.490  1.2040  2.4864  0.0203
   18MOL   H471 9005   3.871   6.428   3.357  0.8478  0.5806  2.1200
   18MOL   H472 9006   3.635   6.412   3.280  0.3008  0.1801  0.0424
   18MOL   H473 9007   3.591   6.337   3.427 -0.0288 -1.2797 -1.0330
   18MOL   H474 9008   3.732   6.607   3.413 -1.1036  0.7582 -0.3662
   18MOL   H475 9009   3.556   6.586   3.423 -0.0412 -1.6797 -0.9829
   18MOL   H476 9010   3.670   6.526   3.554 -0.7367 -0.7620  0.3037
   18MOL   C477 9011   3.794   5.872   2.885  0.0920  0.4117  0.1609
   18MOL   C478 9012   3.643   5.856   2.857 -0.5026  0.3164  0.5920
   18MOL   O479 9013   3.613   5.844   2.719  0.2594  0.1160 -0.6668
   18MOL   C480 9014   3.473   5.827   2.684  0.1773 -0.2401  1.0131
   18MOL   C481 9015   3.418   5.698   2.728 -0.7317  0.3016 -0.3788
   18MOL   C482 9016   3.280   5.679   2.665 -0.5590 -0.4049 -0.3847
   18MOL   C483 9017   3.227   5.536   2.691  0.3903  0.4540 -0.7406
   18MOL   C484 9018   3.091   5.498   2.625 -0.1527 -0.2918 -0.4969
   18MOL   C485 9019   3.024   5.384   2.695 -0.4344 -0.4826  0.5146
   18MOL   H486 9020   3.806   5.953   2.813 -2.5598 -1.2671 -2.3155
   18MOL   H487 9021   3.849   5.788   2.842  0.2435 -0.1448  1.4105
   18MOL   H488 9022   3.602   5.771   2.912  0.6987  1.4528  3.2887
   18MOL   H489 9023   3.463   5.832   2.576 -1.0442  2.0386  1.2138
   18MOL   H490 9024   3.416   5.911   2.724  1.2914  0.8157  0.4128
   18MOL   H491 9025   3.415   5.699   2.836  1.9667 -0.0292 -0.2426
   18MOL   H492 9026   3.479   5.614   2.693 -1.4615  0.5088 -2.2137
   18MOL   H493 9027   3.220   5.756   2.714 -1.2863 -1.7524  0.8612
   18MOL   H494 9028   3.284   5.692   2.557 -0.7878 -0.5458 -0.4082
   18MOL   H495 9029   3.292   5.456   2.657  1.0411  1.2411 -1.3749
   18MOL   H496 9030   3.233   5.511   2.797 -0.2040  1.2674 -0.5020
   18MOL   H497 9031   3.025   5.585   2.634 -0.8872 -1.0142  1.5325
   18MOL   H498 9032   3.090   5.481   2.518  0.4473 -0.9329 -0.3985
   18MOL   H499 9033   3.003   5.407   2.800  0.4880  1.8626  0.2308
   18MOL   H500 9034   2.938   5.352   2.637 -0.5258  3.3803 -1.6476
   18MOL   H501 9035   3.082   5.292   2.703  1.9422  0.9467  0.2435
   18MOL   H502 9036   3.593   5.940   2.905  0.7750 -0.0983  2.7185
   19MOL     C1 9037   5.944   0.888   0.866 -0.3634 -0.4805  0.1306
   19MOL     C2 9038   6.021   0.759   0.854 -0.2506  0.4834  0.5723
   19MOL     O3 9039   6.158   0.760   0.914 -0.1906 -0.1011 -0.3322
   19MOL     C4 9040   6.163   0.793   1.053  0.4962 -0.7818  0.3289
   19MOL     C5 9041   6.288   0.734   1.117 -0.3645 -0.3158  0.4053
   19MOL     C6 9042   6.287   0.739   1.270  0.3685 -0.2089  0.0740
   19MOL     C7 9043   6.400   0.655   1.331 -0.6296  0.4395  0.1930
   19MOL     C8 9044   6.412   0.669   1.484  0.2796  0.4411  0.2864
   19MOL     C9 9045   6.531   0.599   1.553 -0.2439 -0.2233 -0.1852
   19MOL    H10 9046   5.999   0.981   0.850  0.3547 -0.9495 -0.1490
   19MOL    H11 9047   5.855   0.905   0.805  0.0169  1.4912  0.0683
   19MOL    H12 9048   5.965   0.685   0.912 -0.1828  0.4215  0.5582
   19MOL    H13 9049   6.068   0.766   1.100 -0.3886 -0.6677 -1.3546
   19MOL    H14 9050   6.166   0.902   1.060  1.3185 -0.5343 -3.0959
   19MOL    H15 9051   6.379   0.761   1.063 -0.7992 -0.5985 -0.4947
   19MOL    H16 9052   6.275   0.629   1.091 -1.4634  0.1148 -0.8160
   19MOL    H17 9053   6.286   0.846   1.291  2.7445 -0.4536  1.5599
   19MOL    H18 9054   6.190   0.700   1.302 -0.8835  3.7371  1.3814
   19MOL    H19 9055   6.384   0.549   1.312  0.9103  0.1027  0.7478
   19MOL    H20 9056   6.494   0.676   1.280  0.0990  0.1675  1.3987
   19MOL    H21 9057   6.318   0.634   1.525  0.6065 -2.1797 -1.1492
   19MOL    H22 9058   6.401   0.770   1.525 -2.9141 -0.0801  0.8533
   19MOL    H23 9059   6.541   0.653   1.647  0.2125 -0.3361 -0.1710
   19MOL    H24 9060   6.515   0.493   1.573  0.3023 -0.5808 -1.6071
   19MOL    H25 9061   6.626   0.615   1.502 -0.3493  0.5982 -0.1345
   19MOL    H26 9062   5.915   0.894   0.971 -0.2282  1.3583  0.0868
   19MOL    C27 9063   6.034   0.691   0.712  0.1626  0.1167 -0.0086
   19MOL    C28 9064   6.110   0.561   0.709  0.1682 -0.3372  0.3671
   19MOL    O29 9065   6.051   0.472   0.613 -0.0557 -0.2409 -0.2450
   19MOL    C30 9066   5.929   0.418   0.651  0.1679 -0.6692 -1.0408
   19MOL    C31 9067   5.840   0.404   0.530 -0.2145  0.1415  0.7433
   19MOL    C32 9068   5.714   0.325   0.550  0.2370  0.0760 -0.3659
   19MOL    C33 9069   5.641   0.303   0.421  0.3786 -0.1217 -0.7245
   19MOL    C34 9070   5.521   0.215   0.444 -0.0374 -0.1497  0.4067
   19MOL    C35 9071   5.460   0.158   0.313 -0.2537  0.0924 -0.2961
   19MOL    H36 9072   5.932   0.674   0.680  0.0006 -1.5934  1.3188
   19MOL    H37 9073   6.066   0.767   0.641  0.4770 -1.4532 -1.5672
   19MOL    H38 9074   6.096   0.511   0.805 -1.7900 -2.0311 -0.7512
   19MOL    H39 9075   5.881   0.467   0.736 -0.7042 -1.4764 -1.0624
   19MOL    H40 9076   5.945   0.314   0.678 -0.2542 -0.4079  0.2676
   19MOL    H41 9077   5.897   0.351   0.454 -0.4703  1.3843 -0.3487
   19MOL    H42 9078   5.817   0.509   0.510  0.0730 -0.1943 -1.4302
   19MOL    H43 9079   5.754   0.232   0.591 -0.4839  0.0510  0.2821
   19MOL    H44 9080   5.656   0.370   0.630  2.6565  1.3220  0.7497
   19MOL    H45 9081   5.615   0.399   0.376 -0.2219  0.4011  0.7124
   19MOL    H46 9082   5.709   0.264   0.345 -0.3413 -0.0284 -1.4173
   19MOL    H47 9083   5.551   0.131   0.507  0.1577 -0.3019  0.1083
   19MOL    H48 9084   5.446   0.266   0.505  1.4025  1.7372  0.6583
   19MOL    H49 9085   5.415   0.240   0.259 -1.6653 -0.6594 -0.2928
   19MOL    H50 9086   5.524   0.092   0.255 -0.5500 -0.2514 -0.2362
   19MOL    H51 9087   5.368   0.107   0.343 -0.0324 -0.3462 -0.3554
   19MOL    C52 9088   6.261   0.565   0.671 -0.2505  0.0892 -0.0233
   19MOL    C53 9089   6.328   0.426   0.681  0.1580  0.5482  1.0435
   19MOL    O54 9090   6.456   0.430   0.617  0.1061 -0.8223  0.2735
   19MOL    C55 9091   6.447   0.410   0.480 -0.0566 -0.1557 -0.8853
   19MOL    C56 9092   6.587   0.431   0.413  0.0926 -1.4251 -0.2101
   19MOL    C57 9093   6.636   0.574   0.447 -0.4394  0.3884 -0.0323
   19MOL    C58 9094   6.776   0.612   0.402  0.0484 -0.5107  0.2309
   19MOL    C59 9095   6.818   0.741   0.467 -0.0220  0.0769 -0.4115
   19MOL    C60 9096   6.960   0.790   0.423  0.0049  0.1621  0.6385
   19MOL    H61 9097   6.304   0.638   0.740 -3.0237  0.0101  1.8738
   19MOL    H62 9098   6.290   0.606   0.574  3.1552 -0.5997  0.6388
   19MOL    H63 9099   6.253   0.369   0.626 -0.5613  1.0248  1.5078
   19MOL    H64 9100   6.377   0.481   0.436 -0.5815 -1.0011 -1.4267
   19MOL    H65 9101   6.400   0.313   0.468 -1.5071  0.3678  0.3963
   19MOL    H66 9102   6.592   0.416   0.305  1.3509  1.1063 -0.5251
   19MOL    H67 9103   6.647   0.348   0.451  2.2938  0.3429  0.2622
   19MOL    H68 9104   6.555   0.643   0.425 -1.7689 -1.0356  0.3530
   19MOL    H69 9105   6.636   0.573   0.556  0.0495  1.2499 -0.0196
   19MOL    H70 9106   6.846   0.536   0.437  0.9220 -1.7624 -3.9625
   19MOL    H71 9107   6.795   0.620   0.295 -0.1779  1.0993  0.2991
   19MOL    H72 9108   6.739   0.811   0.442 -0.0869 -0.1845 -0.9404
   19MOL    H73 9109   6.834   0.737   0.575 -1.7805 -1.8756 -0.1923
   19MOL    H74 9110   6.963   0.893   0.461 -1.0572  0.6567 -0.5710
   19MOL    H75 9111   7.048   0.742   0.466 -0.8578 -1.8852  0.1392
   19MOL    H76 9112   6.961   0.794   0.314  2.3354 -3.5971  0.4454
   19MOL    C77 9113   6.356   0.377   0.823  0.2634 -0.5688 -0.3783
   19MOL    C78 9114   6.408   0.230   0.834  0.0423  0.4961  0.5921
   19MOL    O79 9115   6.295   0.144   0.851  0.0591  0.5345  0.1554
   19MOL    C80 9116   6.284   0.038   0.758  0.5271  0.2724  0.3797
   19MOL    C81 9117   6.152   0.063   0.682 -0.3023  0.6466 -0.2661
   19MOL    C82 9118   6.140   7.761   0.552 -0.8200  0.2158  0.7286
   19MOL    C83 9119   5.995   7.750   0.506 -0.8391  0.6062 -0.3023
   19MOL    C84 9120   5.968   7.629   0.417  0.0737 -0.1027 -0.2859
   19MOL    C85 9121   5.819   7.608   0.393  0.2319 -0.1047  0.8056
   19MOL    H86 9122   6.273   0.372   0.894 -0.1874 -0.8089 -0.9217
   19MOL    H87 9123   6.434   0.443   0.863 -0.1701  0.0329 -0.5163
   19MOL    H88 9124   6.470   0.208   0.747  1.9695  1.7615  1.6134
   19MOL    H89 9125   6.282   7.721   0.813  0.4674  0.4210  0.6327
   19MOL    H90 9126   6.363   0.024   0.685 -0.3739  0.2477 -0.6058
   19MOL    H91 9127   6.148   0.171   0.667  3.3477  0.3237 -4.7483
   19MOL    H92 9128   6.066   0.048   0.746  0.5348 -0.5621  0.5869
   19MOL    H93 9129   6.198   0.036   0.476 -1.8657  1.5119  0.8108
   19MOL    H94 9130   6.183   7.661   0.560 -2.1303 -0.3184  1.2531
   19MOL    H95 9131   5.927   7.736   0.590 -0.1554  3.2194  0.7463
   19MOL    H96 9132   5.959   0.068   0.469 -3.7753 -0.3134  0.0658
   19MOL    H97 9133   6.008   7.634   0.316 -0.9998 -0.9432 -0.7652
   19MOL    H98 9134   6.012   7.539   0.461 -1.0293 -1.0690 -1.1119
   19MOL    H99 9135   5.794   7.511   0.349  0.6515 -0.2447  0.8706
   19MOL   H100 9136   5.752   7.631   0.475  0.1550  0.5864  0.5478
   19MOL   H101 9137   5.792   7.678   0.315 -0.5618  0.5263  1.6475
   19MOL   C102 9138   6.497   0.203   0.959 -0.1366 -0.3324 -0.2190
   19MOL   C103 9139   6.625   0.286   0.963  0.4014 -0.2702 -0.5890
   19MOL   O104 9140   6.699   0.243   1.081 -0.3899 -0.0437  0.1233
   19MOL   C105 9141   6.651   0.268   1.209 -0.5751 -0.0813 -0.4184
   19MOL   C106 9142   6.776   0.289   1.302  0.3874 -0.6800 -0.5983
   19MOL   C107 9143   6.730   0.308   1.440  0.5456  0.0989  0.1836
   19MOL   C108 9144   6.839   0.325   1.549 -0.0377  0.1844  0.0958
   19MOL   C109 9145   6.912   0.461   1.553  0.5550 -0.1632 -0.8756
   19MOL   C110 9146   7.008   0.486   1.672 -0.2161  0.4725 -0.1599
   19MOL   H111 9147   6.434   0.223   1.046 -0.5817 -1.3020 -0.3043
   19MOL   H112 9148   6.501   0.094   0.965  0.0820 -0.3167 -0.0877
   19MOL   H113 9149   6.584   0.385   0.983  2.1738  0.0301  1.7183
   19MOL   H114 9150   6.586   0.189   1.247  0.9881 -0.5342  1.4042
   19MOL   H115 9151   6.592   0.360   1.210  0.1979  0.4466 -1.8328
   19MOL   H116 9152   6.825   0.378   1.262  2.0730 -0.9515  0.8113
   19MOL   H117 9153   6.848   0.207   1.297  1.6235  0.4604 -2.3910
   19MOL   H118 9154   6.667   0.397   1.441 -1.2093 -1.1068  0.3849
   19MOL   H119 9155   6.673   0.218   1.462  1.1397 -0.1827  0.6014
   19MOL   H120 9156   6.792   0.306   1.645 -1.7199  0.1306 -0.7274
   19MOL   H121 9157   6.908   0.242   1.556  0.2887  0.5941  2.0738
   19MOL   H122 9158   6.967   0.479   1.461  0.5273 -0.5651 -0.9719
   19MOL   H123 9159   6.828   0.530   1.558  0.9629  0.2314  0.8310
   19MOL   H124 9160   7.081   0.404   1.670 -1.6463 -0.7987 -3.2410
   19MOL   H125 9161   7.067   0.577   1.657  1.8990 -1.0636 -1.4296
   19MOL   H126 9162   6.975   0.494   1.775 -0.3377 -1.0405 -0.0726
   19MOL   C127 9163   6.724   0.286   0.847 -0.0579  0.0198 -0.4841
   19MOL   C128 9164   6.826   0.405   0.867 -1.2094 -0.1347 -0.0913
   19MOL   O129 9165   6.755   0.535   0.862 -0.1338  1.1131  0.2536
   19MOL   C130 9166   6.814   0.641   0.937 -0.1146 -0.0869  0.1524
   19MOL   C131 9167   6.761   0.652   1.082 -0.1060 -0.2710 -0.0536
   19MOL   C132 9168   6.859   0.739   1.162  0.3872 -0.4584  0.0698
   19MOL   C133 9169   6.815   0.755   1.311  0.2620  0.1347 -0.1592
   19MOL   C134 9170   6.902   0.862   1.376 -0.2829 -0.2446 -0.4009
   19MOL   C135 9171   6.869   0.898   1.527  0.3955  0.1671 -0.4610
   19MOL   H136 9172   6.770   0.187   0.843  0.4000  0.1227  1.6739
   19MOL   H137 9173   6.686   0.308   0.748  0.8504  2.3932 -0.3271
   19MOL   H138 9174   6.870   0.388   0.965  1.0390 -1.3642 -1.2727
   19MOL   H139 9175   6.778   0.729   0.884 -0.1237 -0.6545 -0.7903
   19MOL   H140 9176   6.922   0.649   0.922 -0.2305  1.2375 -0.0444
   19MOL   H141 9177   6.744   0.555   1.128 -1.3185 -1.4381 -2.8355
   19MOL   H142 9178   6.664   0.701   1.078 -0.1658 -0.3891 -0.0419
   19MOL   H143 9179   6.954   0.687   1.173 -0.4030 -2.3138 -1.5627
   19MOL   H144 9180   6.881   0.836   1.117  2.3903 -1.2401 -0.6891
   19MOL   H145 9181   6.710   0.780   1.315  0.4397  0.9058 -0.2777
   19MOL   H146 9182   6.831   0.654   1.349 -2.7309 -0.4381 -0.3438
   19MOL   H147 9183   7.009   0.847   1.361  0.3179  0.3014  2.9253
   19MOL   H148 9184   6.892   0.960   1.329 -2.4104 -0.1516  0.2209
   19MOL   H149 9185   6.793   0.976   1.526  0.0797 -0.1256  0.3113
   19MOL   H150 9186   6.816   0.811   1.564  2.4982  0.1491  2.6975
   19MOL   H151 9187   6.950   0.913   1.599  0.7043 -0.0939 -0.7492
   19MOL   C152 9188   6.941   0.402   0.766  0.2416 -0.7308  0.3827
   19MOL   C153 9189   7.064   0.313   0.800 -0.8465  0.3807  0.1586
   19MOL   O154 9190   7.029   0.173   0.795  0.4045 -0.3865 -0.5003
   19MOL   C155 9191   7.118   0.086   0.849  0.4025 -0.9866  0.1113
   19MOL   C156 9192   7.044   7.744   0.896 -0.0227 -0.5023  0.5633
   19MOL   C157 9193   6.999   7.648   0.791  0.6428  0.0859 -0.2473
   19MOL   C158 9194   6.876   7.702   0.714  0.1175 -0.1718  0.7304
   19MOL   C159 9195   6.838   7.605   0.603  0.7102 -0.2626  0.0819
   19MOL   C160 9196   6.732   7.658   0.507 -0.5934  0.5565 -0.3525
   19MOL   H161 9197   6.894   0.389   0.668 -0.5587  1.6848  0.4009
   19MOL   H162 9198   6.990   0.498   0.749 -0.2560 -0.8153 -1.6947
   19MOL   H163 9199   7.084   0.336   0.905 -0.6718  0.0062  0.2073
   19MOL   H164 9200   7.174   0.137   0.928 -0.3498 -0.2079  0.1446
   19MOL   H165 9201   7.191   0.059   0.773  1.4684 -2.0464  1.4804
   19MOL   H166 9202   6.965   0.004   0.961 -0.8723 -0.7229 -0.3396
   19MOL   H167 9203   7.115   7.684   0.952  1.0323 -0.6777 -0.9430
   19MOL   H168 9204   7.088   7.626   0.731 -0.0787 -0.4983 -1.1070
   19MOL   H169 9205   6.965   7.555   0.837  0.7567 -0.7279 -1.7909
   19MOL   H170 9206   6.801   7.705   0.793 -1.4618 -0.6583 -0.7310
   19MOL   H171 9207   6.899   0.021   0.669  0.2731 -1.1328 -1.2854
   19MOL   H172 9208   6.924   7.567   0.549 -0.5013 -2.1285 -0.5707
   19MOL   H173 9209   6.808   7.511   0.649 -1.1678  0.5086  0.5086
   19MOL   H174 9210   6.630   7.641   0.543 -0.0464  1.6860  1.7928
   19MOL   H175 9211   6.749   7.765   0.495  0.1067  0.6390  1.2483
   19MOL   H176 9212   6.741   7.606   0.412  0.8610 -0.1673  0.1696
   19MOL   C177 9213   7.192   0.348   0.705  0.1804 -0.7272 -0.4221
   19MOL   C178 9214   7.288   0.450   0.767  0.0320 -1.6607 -0.4954
   19MOL   O179 9215   7.220   0.567   0.810 -0.2549  0.2988 -0.1229
   19MOL   C180 9216   7.191   0.670   0.711 -0.7070 -0.7451  0.0008
   19MOL   C181 9217   7.271   0.799   0.746  0.4733  0.4194  0.0439
   19MOL   C182 9218   7.268   0.846   0.896  0.4176  0.4841  0.2607
   19MOL   C183 9219   7.377   0.957   0.910  0.3815  0.3608 -0.1777
   19MOL   C184 9220   7.450   0.971   1.044 -0.5360  0.1657 -1.0666
   19MOL   C185 9221   7.365   1.037   1.161  0.0455 -0.0663 -0.6957
   19MOL   H186 9222   7.244   0.254   0.687  0.3895 -1.1786  2.3445
   19MOL   H187 9223   7.153   0.382   0.609  1.7867  1.4877 -0.3322
   19MOL   H188 9224   7.363   0.476   0.692  0.0332  2.0295  0.6656
   19MOL   H189 9225   7.087   0.700   0.722 -0.6238  0.3446 -1.9102
   19MOL   H190 9226   7.199   0.636   0.607 -0.6526 -2.2302  0.4859
   19MOL   H191 9227   7.240   0.887   0.691  1.7206  0.9317  0.1667
   19MOL   H192 9228   7.373   0.774   0.717  0.1074 -1.0276 -0.0677
   19MOL   H193 9229   7.167   0.871   0.928  1.0850  0.0058  2.8858
   19MOL   H194 9230   7.293   0.767   0.968  0.6839  0.4106  0.0872
   19MOL   H195 9231   7.452   0.932   0.836  0.5602  1.3049 -0.3270
   19MOL   H196 9232   7.344   1.058   0.884  2.1245  0.5869 -1.5745
   19MOL   H197 9233   7.486   0.873   1.075 -0.6386  0.6464  0.6293
   19MOL   H198 9234   7.540   1.033   1.041  0.1499 -0.7835 -0.3597
   19MOL   H199 9235   7.342   1.143   1.146  2.3353  0.5507 -0.0066
   19MOL   H200 9236   7.271   0.982   1.171  1.4917 -2.9764 -2.6365
   19MOL   H201 9237   7.417   1.024   1.255 -1.7980  3.4498  0.8930
   19MOL   C202 9238   7.368   0.396   0.888  0.4627  0.7938  0.0838
   19MOL   C203 9239   7.490   0.309   0.872 -0.9498 -0.8621 -0.3189
   19MOL   O204 9240   7.474   0.197   0.959  0.2902  0.0430  0.0448
   19MOL   C205 9241   7.536   0.077   0.915 -0.0319  0.1649 -0.7365
   19MOL   C206 9242   7.519   7.750   1.021  0.5502 -0.0511 -0.9527
   19MOL   C207 9243   7.611   7.643   0.977  0.4298  0.2133  0.4125
   19MOL   C208 9244   7.617   7.533   1.086 -0.3279  1.1134  0.1734
   19MOL   C209 9245   7.704   7.408   1.054  0.4808 -0.2557  0.1680
   19MOL   C210 9246   7.732   7.331   1.183  0.1003 -0.3906 -0.0296
   19MOL   H211 9247   7.395   0.484   0.946 -0.1436  2.9063 -2.7090
   19MOL   H212 9248   7.300   0.342   0.954  1.1921 -1.5163 -1.0046
   19MOL   H213 9249   7.484   0.258   0.776 -0.8892 -0.9783 -0.2612
   19MOL   H214 9250   7.642   0.090   0.895  0.2678 -1.9185 -0.6228
   19MOL   H215 9251   7.485   0.035   0.828 -0.5574 -0.0426 -0.3333
   19MOL   H216 9252   7.416   7.714   1.027  0.0996  1.5426  1.2468
   19MOL   H217 9253   7.549   0.014   1.117  3.4025 -1.2838 -1.2469
   19MOL   H218 9254   7.558   7.608   0.889 -0.5673  1.8287  0.3284
   19MOL   H219 9255   7.715   7.672   0.961  0.2571 -0.1017 -1.3037
   19MOL   H220 9256   7.668   7.575   1.173 -0.4772  2.2622 -0.2863
   19MOL   H221 9257   7.517   7.502   1.116  0.9056 -2.7559  0.5322
   19MOL   H222 9258   7.662   7.344   0.976  1.0531 -0.6802  0.2002
   19MOL   H223 9259   0.021   7.446   1.015  0.7871 -0.2478  0.9044
   19MOL   H224 9260   7.763   7.231   1.151  0.1687 -0.1636 -0.6817
   19MOL   H225 9261   0.034   7.372   1.247  1.5389 -0.2054 -1.8906
   19MOL   H226 9262   7.647   7.320   1.250 -0.9591  1.4794 -1.0371
   19MOL   C227 9263   7.625   0.376   0.882  0.8773 -0.2446  0.0221
   19MOL   C228 9264   7.663   0.457   0.752 -0.3819 -0.7170  0.8185
   19MOL   O229 9265   7.761   0.548   0.789 -0.1175  0.1120 -0.8442
   19MOL   C230 9266   7.714   0.686   0.805  0.1837  0.0778 -0.5540
   19MOL   C231 9267   0.038   0.776   0.885  0.4386 -0.1113 -0.2387
   19MOL   C232 9268   0.153   0.801   0.790  0.1355  0.2751 -0.0607
   19MOL   C233 9269   0.244   0.916   0.833 -0.4884  0.1377 -0.5813
   19MOL   C234 9270   0.385   0.899   0.784  0.4114  0.4672  0.2154
   19MOL   C235 9271   0.470   1.020   0.820 -0.5478 -0.0478 -0.2988
   19MOL   H236 9272   7.623   0.426   0.979  1.3007 -2.1716  1.0740
   19MOL   H237 9273   7.698   0.296   0.900  1.5846  0.5892  0.9054
   19MOL   H238 9274   7.581   0.521   0.719  1.9988  1.3704 -1.2478
   19MOL   H239 9275   7.628   0.670   0.870  0.6350  0.6244  0.1853
   19MOL   H240 9276   7.692   0.734   0.710 -1.3830  1.6333  0.5623
   19MOL   H241 9277   0.057   0.730   0.982 -0.3273  0.8133  0.3622
   19MOL   H242 9278   7.763   0.872   0.893  0.0129 -0.1426 -2.2929
   19MOL   H243 9279   0.210   0.709   0.779 -0.8770 -0.5105  1.0770
   19MOL   H244 9280   0.116   0.823   0.690 -2.2497 -0.7480  0.5744
   19MOL   H245 9281   0.213   1.015   0.800  0.6740  0.8506  0.3920
   19MOL   H246 9282   0.245   0.919   0.942 -2.4172 -0.8521 -0.5167
   19MOL   H247 9283   0.420   0.804   0.825  1.2388  0.4088 -0.6212
   19MOL   H248 9284   0.369   0.895   0.676 -1.3881 -0.8290  0.4884
   19MOL   H249 9285   0.559   1.015   0.757 -1.0002 -1.0132 -0.8842
   19MOL   H250 9286   0.414   1.113   0.823 -1.4100 -0.6015  3.1452
   19MOL   H251 9287   0.504   1.004   0.923 -0.2791  0.1069 -0.3636
   19MOL   C252 9288   7.714   0.382   0.625  1.0144 -0.2760  0.1029
   19MOL   C253 9289   7.694   0.470   0.494 -0.5041 -0.2794 -1.0583
   19MOL   O254 9290   7.568   0.454   0.440 -0.5897  0.0481 -0.1925
   19MOL   C255 9291   7.494   0.572   0.430 -0.2258 -0.1037 -0.5650
   19MOL   C256 9292   7.347   0.538   0.373 -0.3867 -0.4662 -0.1707
   19MOL   C257 9293   7.345   0.465   0.240  0.1351 -0.1471 -0.3203
   19MOL   C258 9294   7.200   0.416   0.205  0.3551  1.0540  0.4772
   19MOL   C259 9295   7.166   0.294   0.293 -0.3667 -0.1804 -0.5409
   19MOL   C260 9296   7.024   0.287   0.314  0.6378  0.7015 -0.3482
   19MOL   H261 9297   0.036   0.339   0.637  2.4792  3.3249  1.7358
   19MOL   H262 9298   7.644   0.299   0.618  0.2705  0.3279  0.2862
   19MOL   H263 9299   7.710   0.570   0.534 -0.2070 -0.5320 -0.5406
   19MOL   H264 9300   7.543   0.631   0.353  0.6113 -0.6476 -0.4627
   19MOL   H265 9301   7.494   0.621   0.527 -1.7227  0.5061 -0.8530
   19MOL   H266 9302   7.279   0.623   0.384 -2.0708 -1.8443  0.1865
   19MOL   H267 9303   7.310   0.466   0.446 -2.1533 -0.2333 -0.8139
   19MOL   H268 9304   7.381   0.527   0.159 -0.1019  0.6955  0.2109
   19MOL   H269 9305   7.414   0.380   0.244  0.1840 -0.2065 -2.0054
   19MOL   H270 9306   7.123   0.486   0.238 -1.4446 -0.3602 -0.6683
   19MOL   H271 9307   7.199   0.399   0.098 -1.8370  1.5323  0.4115
   19MOL   H272 9308   7.195   0.196   0.255  0.0853 -0.7985  1.3094
   19MOL   H273 9309   7.208   0.298   0.394  2.6843 -1.8050 -1.6586
   19MOL   H274 9310   6.984   0.355   0.389  1.3070 -1.3245  1.8961
   19MOL   H275 9311   6.973   0.303   0.219 -0.4173  1.3374  0.3118
   19MOL   H276 9312   6.992   0.192   0.355 -3.1090  1.6211 -0.9802
   19MOL   C277 9313   0.024   0.430   0.390 -0.2395 -1.1531  0.0716
   19MOL   C278 9314   0.051   0.544   0.284 -0.1000 -0.2339 -0.0274
   19MOL   O279 9315   0.089   0.654   0.361 -0.5119 -0.3214  0.2458
   19MOL   C280 9316   0.058   0.786   0.317 -0.5874  0.1580 -0.0066
   19MOL   C281 9317   0.103   0.894   0.413  0.2269  0.8070  0.2824
   19MOL   C282 9318   0.093   1.036   0.352  0.2597  0.0875  0.4705
   19MOL   C283 9319   0.129   1.150   0.456 -0.4690 -0.2152  0.1123
   19MOL   C284 9320   0.085   1.291   0.426 -0.2315  0.2658 -0.2782
   19MOL   C285 9321   0.114   1.390   0.540 -0.0672 -0.4773  0.3456
   19MOL   H286 9322   0.119   0.394   0.429 -0.1805 -1.9499 -0.7810
   19MOL   H287 9323   7.752   0.343   0.344 -0.9744 -1.4680  1.4230
   19MOL   H288 9324   7.736   0.569   0.232 -0.2325  0.8509  0.7040
   19MOL   H289 9325   7.729   0.803   0.300 -0.4175  0.7981 -0.4174
   19MOL   H290 9326   0.111   0.796   0.223  0.2154  0.7862  0.5047
   19MOL   H291 9327   0.200   0.855   0.442 -0.6730 -0.9647  1.0076
   19MOL   H292 9328   0.052   0.886   0.510  3.0454 -1.8650  1.6191
   19MOL   H293 9329   0.156   1.038   0.264  1.1752 -1.4375  1.0725
   19MOL   H294 9330   7.771   1.043   0.307  0.5899  0.8376 -0.1558
   19MOL   H295 9331   0.079   1.126   0.549 -2.6700  0.2038 -0.9417
   19MOL   H296 9332   0.238   1.148   0.462 -0.3734  0.7276 -1.0082
   19MOL   H297 9333   0.121   1.329   0.330  0.0848 -0.0777 -0.2955
   19MOL   H298 9334   7.753   1.295   0.418 -0.3069  0.7842  0.9186
   19MOL   H299 9335   0.220   1.394   0.566  0.1447  0.1712 -0.5843
   19MOL   H300 9336   0.081   1.492   0.516 -0.5690 -0.4639  1.0801
   19MOL   H301 9337   0.060   1.342   0.622  1.5755 -1.0287  1.1245
   19MOL   C302 9338   0.168   0.514   0.201  0.3114 -0.3168  0.0604
   19MOL   C303 9339   0.143   0.400   0.100 -0.7998 -0.6240  0.6712
   19MOL   O304 9340   0.265   0.382   0.028 -0.0566  0.5674  0.0479
   19MOL   C305 9341   0.329   0.260   0.053  0.4336  0.2565  0.7610
   19MOL   C306 9342   0.467   0.246   7.767 -0.1524  0.0743  0.9351
   19MOL   C307 9343   0.558   0.367   0.015  0.4373  0.1873  0.1432
   19MOL   C308 9344   0.690   0.356   7.716 -0.4334  0.1215 -0.1096
   19MOL   C309 9345   0.791   0.469   7.747  0.0649  0.1389 -0.7000
   19MOL   C310 9346   0.744   0.602   7.688  0.2085  0.1639  0.4470
   19MOL   H311 9347   0.197   0.596   0.135  1.7519 -1.8309 -1.2531
   19MOL   H312 9348   0.256   0.498   0.264  0.8721 -0.0560 -0.6513
   19MOL   H313 9349   0.102   0.310   0.145 -2.8601 -0.8819 -1.6351
   19MOL   H314 9350   0.262   0.185   0.010 -2.0095  2.1302  1.1510
   19MOL   H315 9351   0.341   0.264   0.161 -0.2815 -0.0273  0.8546
   19MOL   H316 9352   0.450   0.223   7.662 -1.6024  3.1085  0.4501
   19MOL   H317 9353   0.517   0.154   0.021 -1.0984 -0.4364  0.9553
   19MOL   H318 9354   0.504   0.456   7.761  0.7025  0.6477  1.0110
   19MOL   H319 9355   0.585   0.375   0.120  0.6574 -4.1969  0.5129
   19MOL   H320 9356   0.738   0.262   7.742  0.9808  0.5933 -0.9337
   19MOL   H321 9357   0.669   0.348   7.609  0.8114  1.8734 -0.5160
   19MOL   H322 9358   0.804   0.484   0.076  1.0170 -2.5494 -0.4055
   19MOL   H323 9359   0.891   0.439   7.715 -0.0934 -1.4683  0.2793
   19MOL   H324 9360   0.735   0.601   7.579 -1.8661 -1.2831  0.6068
   19MOL   H325 9361   0.644   0.618   7.726  0.1922 -1.1331  0.9717
   19MOL   H326 9362   0.807   0.688   7.710  0.0509 -0.2521  2.6227
   19MOL   C327 9363   0.042   0.445   7.770  0.5000 -0.2332  0.2912
   19MOL   C328 9364   0.006   0.343   7.663  0.3087 -0.1628  0.3629
   19MOL   O329 9365   7.698   0.251   7.725  0.2897  0.0554  0.2343
   19MOL   C330 9366   7.734   0.115   7.731  0.5331  0.0360 -0.8443
   19MOL   C331 9367   7.625   0.044   0.045  0.6903 -0.2942 -0.3830
   19MOL   C332 9368   7.609   0.113   0.184 -0.2153  0.6069  0.2197
   19MOL   C333 9369   7.499   0.048   0.263 -0.2444  0.5550  0.6412
   19MOL   C334 9370   7.505   0.087   0.417 -0.3079 -0.0478  0.2953
   19MOL   C335 9371   7.400   0.011   0.503 -0.4289 -0.9218 -0.2557
   19MOL   H336 9372   0.081   0.533   7.719  0.0260  1.3851  2.6705
   19MOL   H337 9373   7.731   0.483   0.044 -0.5147 -0.6418 -1.1217
   19MOL   H338 9374   0.093   0.295   7.620  1.6024 -1.4684  4.1750
   19MOL   H339 9375   0.060   0.096   7.762 -0.1306 -0.6282  1.0163
   19MOL   H340 9376   7.722   0.061   7.637  0.3521 -0.3271 -0.6131
   19MOL   H341 9377   7.655   7.717   0.060  1.7880 -0.0968 -1.1338
   19MOL   H342 9378   7.521   0.053   0.012  0.0650 -4.2724  0.2190
   19MOL   H343 9379   7.705   0.094   0.232  0.1098  2.4210  0.3323
   19MOL   H344 9380   7.595   0.221   0.183  0.9915  0.8869  4.5054
   19MOL   H345 9381   7.399   0.079   0.233 -0.8654 -1.6482  0.3917
   19MOL   H346 9382   7.501   7.717   0.250 -0.8852  0.5799  0.3487
   19MOL   H347 9383   7.608   0.070   0.450 -0.3566 -0.9694 -0.0014
   19MOL   H348 9384   7.496   0.194   0.432 -1.3591 -0.2817  1.4348
   19MOL   H349 9385   7.429   7.684   0.518 -0.5133 -0.5279  3.0643
   19MOL   H350 9386   7.392   0.043   0.607  0.6750 -1.3293 -0.0416
   19MOL   H351 9387   7.301   0.004   0.458 -0.1992 -1.0911 -0.7349
   19MOL   C352 9388   7.708   0.417   7.542  0.1496 -0.3604 -0.2209
   19MOL   C353 9389   7.661   0.312   7.444 -0.0350 -0.1445  0.1234
   19MOL   O354 9390   0.007   0.263   7.392 -0.3160 -0.4066  0.8493
   19MOL   C355 9391   7.768   0.145   7.320  0.1967 -0.2599 -0.4170
   19MOL   C356 9392   0.129   0.079   7.300 -0.6196 -0.0096 -0.0297
   19MOL   C357 9393   0.191   0.033   7.430  0.5284  0.0603  0.0103
   19MOL   C358 9394   0.310   7.717   7.412 -0.5818  0.0797 -0.2938
   19MOL   C359 9395   0.370   7.670   7.550  0.2239  0.0326 -1.2017
   19MOL   C360 9396   0.270   7.615   7.658 -0.1760 -0.7221 -0.2985
   19MOL   H361 9397   7.629   0.475   7.590  0.2135  1.8790 -2.7460
   19MOL   H362 9398   0.004   0.487   7.501  0.1252 -0.2260 -0.0380
   19MOL   H363 9399   7.613   0.222   7.484  0.9688 -1.7175 -2.1060
   19MOL   H364 9400   7.718   0.165   7.226 -1.1895  0.0225  0.3668
   19MOL   H365 9401   7.696   0.082   7.371 -1.8459  0.4155 -2.4091
   19MOL   H366 9402   0.198   0.144   7.246 -2.6120  1.0436 -1.3267
   19MOL   H367 9403   0.125   7.768   7.237  2.0372 -0.0238 -0.2686
   19MOL   H368 9404   0.214   0.126   7.483 -0.8187  0.3054  0.1897
   19MOL   H369 9405   0.105   7.760   7.474 -1.0676  1.0610 -1.9149
   19MOL   H370 9406   0.279   7.622   7.366 -1.9161  0.6382 -0.5790
   19MOL   H371 9407   0.391   7.761   7.355 -1.8470  1.1242 -1.2959
   19MOL   H372 9408   0.446   7.594   7.539 -1.8412 -2.2314 -0.3745
   19MOL   H373 9409   0.432   7.749   7.592 -0.0890 -0.6896  0.6602
   19MOL   H374 9410   0.196   7.547   7.617 -1.2125  0.9219 -1.2293
   19MOL   H375 9411   0.320   7.558   7.736 -1.1301  1.1613  1.7391
   19MOL   H376 9412   0.211   7.688   7.714  0.1299  0.0017 -0.9084
   19MOL   C377 9413   7.561   0.374   7.343 -0.7998 -0.3968  0.3491
   19MOL   C378 9414   7.420   0.397   7.396  0.1298  0.1808 -0.0107
   19MOL   O379 9415   7.365   0.271   7.404 -0.8030 -0.3574  0.2689
   19MOL   C380 9416   7.344   0.220   7.536 -0.5713  0.5474  0.5366
   19MOL   C381 9417   7.267   0.091   7.550  0.4210  0.1681 -0.9281
   19MOL   C382 9418   7.352   7.751   7.502 -0.6063  0.0562  0.2797
   19MOL   C383 9419   7.260   7.635   7.474 -0.2272 -0.3952  0.6531
   19MOL   C384 9420   7.226   7.550   7.592 -0.0476 -0.2692 -0.7394
   19MOL   C385 9421   7.122   7.434   7.574 -0.1458 -0.2359 -0.9941
   19MOL   H386 9422   7.609   0.461   7.300  1.7903 -1.1078  1.6839
   19MOL   H387 9423   7.548   0.309   7.257  0.9296 -1.6732  1.0146
   19MOL   H388 9424   7.428   0.448   7.491  0.9505 -3.3530  1.9092
   19MOL   H389 9425   7.287   0.294   7.594 -0.4859  0.9164  0.1483
   19MOL   H390 9426   7.439   0.208   7.588  0.9940  1.8728 -1.9586
   19MOL   H391 9427   7.176   0.100   7.490  0.3571 -1.3963 -1.0748
   19MOL   H392 9428   7.236   0.072   7.652 -0.3942 -1.3474 -1.4563
   19MOL   H393 9429   7.399   7.772   7.406 -0.5598  0.4320  0.3847
   19MOL   H394 9430   7.424   7.717   7.577 -0.7605 -2.6975 -0.7699
   19MOL   H395 9431   7.174   7.681   7.426  0.5933  1.6129  1.0624
   19MOL   H396 9432   7.291   7.580   7.385  0.2257  2.8517 -1.2960
   19MOL   H397 9433   7.321   7.510   7.629  0.4356  0.3148 -1.3403
   19MOL   H398 9434   7.178   7.598   7.677 -1.3318  0.0454 -1.6418
   19MOL   H399 9435   7.024   7.476   7.550  0.4522  0.8889 -1.5651
   19MOL   H400 9436   7.159   7.379   7.488  1.9557 -0.3038 -0.0685
   19MOL   H401 9437   7.115   7.361   7.654  2.0565  1.4964  0.8539
   19MOL   C402 9438   7.332   0.481   7.299  0.5119 -0.3233 -0.6732
   19MOL   C403 9439   7.185   0.503   7.350 -0.3187 -0.6222 -0.6263
   19MOL   O404 9440   7.113   0.576   7.251  0.3371  0.1045 -0.0295
   19MOL   C405 9441   7.044   0.488   7.172  0.2305 -0.6309 -0.3577
   19MOL   C406 9442   6.942   0.548   7.072  0.8030  0.0418  0.8384
   19MOL   C407 9443   7.009   0.645   6.978 -0.4793  0.9627 -0.1097
   19MOL   C408 9444   6.922   0.699   6.861 -0.3813 -0.2571 -0.2748
   19MOL   C409 9445   6.931   0.850   6.843 -0.5952 -0.3087  0.3735
   19MOL   C410 9446   7.070   0.894   6.817  0.3948  0.2809 -0.3787
   19MOL   H411 9447   7.336   0.442   7.197  0.5501 -0.7061 -0.5249
   19MOL   H412 9448   7.384   0.576   7.285  1.4137 -0.3988  1.9149
   19MOL   H413 9449   7.157   0.398   7.355 -0.5118 -0.5568 -0.2482
   19MOL   H414 9450   6.977   0.446   7.247  0.7695  0.7345  0.9321
   19MOL   H415 9451   7.098   0.401   7.135  2.3453 -0.3149  1.8090
   19MOL   H416 9452   6.856   0.581   7.131 -0.5815 -3.0926  0.6717
   19MOL   H417 9453   6.904   0.474   7.003 -1.5129  2.4567 -0.5634
   19MOL   H418 9454   7.041   0.732   7.035 -0.7497  1.2928 -0.4618
   19MOL   H419 9455   7.106   0.603   6.950 -1.1847 -0.4394 -0.4743
   19MOL   H420 9456   6.942   0.652   6.764 -2.0044 -2.0819  0.2380
   19MOL   H421 9457   6.818   0.689   6.890 -0.4214  2.5652  0.6152
   19MOL   H422 9458   6.871   0.877   6.755 -1.2667  0.5886  1.1063
   19MOL   H423 9459   6.896   0.892   6.937  0.6482  0.0425  0.6761
   19MOL   H424 9460   7.144   0.878   6.896 -0.6697  0.8636  0.7611
   19MOL   H425 9461   7.109   0.842   6.730  1.3524  1.3871 -0.6227
   19MOL   H426 9462   7.072   0.999   6.788  1.4429  0.1316 -0.8379
   19MOL   C427 9463   7.175   0.569   7.490  0.0418  0.2472 -0.1899
   19MOL   C428 9464   7.033   0.556   7.541 -0.4869 -0.3933  0.2227
   19MOL   O429 9465   7.018   0.419   7.573 -0.2583  0.5921  0.4973
   19MOL   C430 9466   6.897   0.359   7.568  0.5576  0.6125 -0.9315
   19MOL   C431 9467   6.914   0.216   7.611 -0.0201  0.1815 -0.0834
   19MOL   C432 9468   6.771   0.152   7.641 -0.6413 -0.4348 -0.1025
   19MOL   C433 9469   6.782   0.008   7.700  0.7136 -0.5966 -0.4098
   19MOL   C434 9470   6.847   7.767   0.054  0.0493  0.3351  0.2158
   19MOL   C435 9471   6.814   7.628   0.112  0.5145 -0.3849 -0.5388
   19MOL   H436 9472   7.236   0.511   7.559 -0.3790  0.0203 -0.0034
   19MOL   H437 9473   7.221   0.667   7.493  0.0543  0.2040  1.8906
   19MOL   H438 9474   6.962   0.582   7.463  1.9622  0.6215 -1.7269
   19MOL   H439 9475   6.843   0.374   7.474 -0.8983 -1.2821 -0.4173
   19MOL   H440 9476   6.828   0.415   7.631  0.2643 -0.8800  0.0835
   19MOL   H441 9477   6.978   0.214   7.699 -0.1488  2.9706  0.1097
   19MOL   H442 9478   6.948   0.158   7.525 -3.1088 -0.2055 -1.1298
   19MOL   H443 9479   6.711   0.220   7.702 -1.4491 -1.0996 -0.1601
   19MOL   H444 9480   6.720   0.149   7.545  2.5039 -1.2515 -1.8388
   19MOL   H445 9481   6.686   7.736   7.691  0.2861  0.6752 -3.4320
   19MOL   H446 9482   6.851   7.721   7.645  0.9022 -0.9008  0.1847
   19MOL   H447 9483   6.954   7.768   0.029 -0.3891 -0.3670 -1.7999
   19MOL   H448 9484   6.829   0.065   0.131 -0.3425 -0.5814  1.0263
   19MOL   H449 9485   6.797   7.556   0.032 -1.0468 -0.0553 -0.5347
   19MOL   H450 9486   6.892   7.578   0.168  0.4907 -1.3050 -1.3223
   19MOL   H451 9487   6.725   7.631   0.175  1.1251  0.8754  0.2879
   19MOL   C452 9488   7.021   0.643   7.675  0.0785 -0.1589  0.3434
   19MOL   C453 9489   7.010   0.797   7.637 -0.5614  0.8131 -0.0683
   19MOL   O454 9490   7.022   0.861   7.763  0.3780  0.4197  0.1950
   19MOL   C455 9491   7.154   0.904   0.015 -0.2787 -0.1575  0.1592
   19MOL   C456 9492   7.157   0.999   0.138 -0.2867  0.3601 -0.2847
   19MOL   C457 9493   7.297   1.026   0.201 -0.0131  0.1064 -0.8912
   19MOL   C458 9494   7.326   0.961   0.333 -0.6318 -0.5020 -0.4364
   19MOL   C459 9495   7.465   1.007   0.380  0.3965 -0.4111  0.5962
   19MOL   C460 9496   7.518   0.924   0.497 -0.0359 -0.1029 -0.4826
   19MOL   H461 9497   6.939   0.610   7.738 -1.2620 -1.1043 -1.8448
   19MOL   H462 9498   7.103   0.619   7.742  2.2708  0.1142 -2.1468
   19MOL   H463 9499   7.089   0.828   7.569 -0.9894  1.6497 -0.1886
   19MOL   H464 9500   7.191   0.955   7.703  0.2101  0.6517  0.8158
   19MOL   H465 9501   7.221   0.821   0.038  1.1937  0.7252 -0.8780
   19MOL   H466 9502   7.071   0.980   0.202  0.0623  2.7014  0.9341
   19MOL   H467 9503   7.133   1.098   0.098 -0.2005  0.1124 -0.9580
   19MOL   H468 9504   7.372   1.023   0.122  0.9982 -1.4693  0.0925
   19MOL   H469 9505   7.293   1.132   0.226  0.3732  0.0538 -0.6026
   19MOL   H470 9506   7.256   0.976   0.415 -1.1347  1.3283 -1.1809
   19MOL   H471 9507   7.327   0.853   0.323 -0.3494 -0.8935  3.0074
   19MOL   H472 9508   7.524   0.994   0.289 -1.6959  0.3970 -0.9249
   19MOL   H473 9509   7.479   1.111   0.410  2.0401 -0.3625 -0.2740
   19MOL   H474 9510   7.439   0.921   0.572  0.3403 -1.5665 -0.1174
   19MOL   H475 9511   7.553   0.824   0.472  0.4212  0.4702 -2.1985
   19MOL   H476 9512   7.605   0.974   0.540  0.2791 -0.1516 -1.0661
   19MOL   C477 9513   6.873   0.845   7.579 -1.1309 -0.6305 -0.0907
   19MOL   C478 9514   6.888   0.979   7.507  0.5593 -0.1744 -0.8095
   19MOL   O479 9515   6.956   0.944   7.388 -0.3865  0.2000 -0.0317
   19MOL   C480 9516   7.025   1.049   7.323 -0.2200  0.2978  0.0229
   19MOL   C481 9517   7.109   0.990   7.207 -0.0096 -0.4106 -0.3995
   19MOL   C482 9518   7.228   0.914   7.270 -0.4745 -0.2779 -0.1899
   19MOL   C483 9519   7.334   0.863   7.163 -0.6164 -0.6127 -0.2966
   19MOL   C484 9520   7.431   0.971   7.121  0.0302 -0.0875 -0.3501
   19MOL   C485 9521   7.529   0.913   7.017 -0.1198  0.1371 -1.0010
   19MOL   H486 9522   6.827   0.778   7.507  0.5423  0.3194 -2.0893
   19MOL   H487 9523   6.806   0.856   7.665 -0.1949 -1.6730  0.7900
   19MOL   H488 9524   6.789   1.019   7.484 -0.2840 -0.9948  1.2697
   19MOL   H489 9525   7.093   1.106   7.385  0.5560 -1.7405  1.1047
   19MOL   H490 9526   6.967   1.126   7.272  0.8422  1.8883  1.1799
   19MOL   H491 9527   7.147   1.075   7.150 -1.3612  0.1468 -0.4709
   19MOL   H492 9528   7.048   0.928   7.142  0.4140 -1.5926  0.3052
   19MOL   H493 9529   7.277   0.974   7.346  0.6714 -0.1581 -1.0183
   19MOL   H494 9530   7.187   0.825   7.317  0.5329 -1.6341 -1.8131
   19MOL   H495 9531   7.394   0.787   7.213 -0.3707  0.0590  0.4388
   19MOL   H496 9532   7.286   0.807   7.083 -1.0864  0.2642 -0.6322
   19MOL   H497 9533   7.373   1.049   7.072 -0.5770 -1.1080 -1.2850
   19MOL   H498 9534   7.491   1.016   7.200 -0.2300 -0.1477 -0.1198
   19MOL   H499 9535   7.594   0.838   7.062  1.0422  0.3877 -2.2341
   19MOL   H500 9536   7.477   0.869   6.932 -1.5523 -3.0464  1.4058
   19MOL   H501 9537   7.603   0.984   6.980 -0.7193  0.9503 -0.6533
   19MOL   H502 9538   6.947   1.052   7.563 -1.1684  0.4814  0.2103
   20MOL     C1 9539   5.984   3.492   2.619  0.4385  0.6070  0.1381
   20MOL     C2 9540   5.934   3.633   2.668 -0.1201  1.1139 -0.1234
   20MOL     O3 9541   5.975   3.636   2.800 -0.3668  0.4771 -0.4038
   20MOL     C4 9542   5.997   3.760   2.869  0.0811 -0.1076 -0.5879
   20MOL     C5 9543   6.047   3.742   3.017 -0.2345  0.1925  1.1606
   20MOL     C6 9544   5.928   3.704   3.107 -0.3511  0.2359 -0.8169
   20MOL     C7 9545   5.956   3.702   3.253 -0.3719 -0.5143 -0.5428
   20MOL     C8 9546   6.063   3.597   3.297  0.0202 -0.1010  0.7491
   20MOL     C9 9547   6.071   3.589   3.449  0.1292 -0.4476 -0.3165
   20MOL    H10 9548   6.088   3.484   2.650  0.8963  0.0422 -1.5165
   20MOL    H11 9549   5.922   3.424   2.678 -0.3411  0.4750 -0.8167
   20MOL    H12 9550   5.987   3.714   2.618  0.6049 -0.4038 -1.8849
   20MOL    H13 9551   5.914   3.830   2.858 -1.8496 -2.2889 -0.1001
   20MOL    H14 9552   6.075   3.814   2.814 -1.1961  2.4061 -0.0006
   20MOL    H15 9553   6.093   3.833   3.054  1.8313 -1.5470  2.9865
   20MOL    H16 9554   6.128   3.669   3.025 -0.5173 -0.1403  1.0239
   20MOL    H17 9555   5.844   3.771   3.087 -2.7120 -2.5070 -0.5942
   20MOL    H18 9556   5.877   3.610   3.081 -1.0925  0.4322 -0.0810
   20MOL    H19 9557   5.976   3.805   3.283 -0.1651 -1.0178  1.1171
   20MOL    H20 9558   5.863   3.684   3.307 -0.6099  0.2292 -0.7055
   20MOL    H21 9559   6.158   3.627   3.253 -1.0806  0.3706 -1.3660
   20MOL    H22 9560   6.034   3.496   3.265  3.2284 -0.5596 -0.9338
   20MOL    H23 9561   6.106   3.680   3.496  0.1255 -1.0739  0.9261
   20MOL    H24 9562   5.969   3.576   3.486 -0.9503  0.0854 -2.9710
   20MOL    H25 9563   6.144   3.514   3.481 -0.5479 -0.0774  2.1811
   20MOL    H26 9564   5.968   3.467   2.514  0.0461  1.8883 -0.1113
   20MOL    C27 9565   5.783   3.645   2.644 -0.8468 -0.0546  0.2591
   20MOL    C28 9566   5.705   3.775   2.679 -0.3417  0.1404  0.3110
   20MOL    O29 9567   5.719   3.857   2.564  0.3139  0.3728 -0.1452
   20MOL    C30 9568   5.692   3.996   2.587 -0.2943  0.1064  0.5363
   20MOL    C31 9569   5.689   4.049   2.447 -0.7271 -0.1971 -0.3279
   20MOL    C32 9570   5.569   4.016   2.356 -0.1663  0.1680  0.3560
   20MOL    C33 9571   5.585   4.106   2.237 -0.0927 -0.1397 -0.2361
   20MOL    C34 9572   5.481   4.086   2.121 -0.6926  0.7908 -0.5327
   20MOL    C35 9573   5.532   4.143   1.992  0.1261 -0.3889 -0.5709
   20MOL    H36 9574   5.761   3.635   2.537 -1.7344  1.7930  0.2529
   20MOL    H37 9575   5.734   3.559   2.690 -1.3737 -0.5657 -1.1998
   20MOL    H38 9576   5.737   3.836   2.763  1.1163 -0.6273  0.3389
   20MOL    H39 9577   5.776   4.053   2.627  1.7226 -0.6668 -2.4507
   20MOL    H40 9578   5.593   4.004   2.632 -0.3421 -0.1593  0.4765
   20MOL    H41 9579   5.780   4.034   2.389 -0.4064  1.3820 -0.2493
   20MOL    H42 9580   5.695   4.156   2.468 -0.6887 -0.5275  1.4642
   20MOL    H43 9581   5.564   3.911   2.329  0.4707  0.7161 -2.0468
   20MOL    H44 9582   5.473   4.043   2.401 -1.4558 -2.4324 -0.7389
   20MOL    H45 9583   5.593   4.212   2.263 -1.5719  0.4418 -2.0344
   20MOL    H46 9584   5.684   4.088   2.195  0.6215  1.3402  0.7507
   20MOL    H47 9585   5.453   3.981   2.121  2.0307  0.0293 -1.2404
   20MOL    H48 9586   5.386   4.132   2.150 -0.6507 -1.0912  2.8447
   20MOL    H49 9587   5.635   4.120   1.963  0.8347  0.5199  1.1773
   20MOL    H50 9588   5.463   4.111   1.914 -0.8843  1.9504 -0.6841
   20MOL    H51 9589   5.536   4.251   2.004 -1.4500 -0.1800 -1.7665
   20MOL    C52 9590   5.559   3.737   2.695  0.0038 -0.4602 -0.5437
   20MOL    C53 9591   5.496   3.719   2.840  0.5387 -0.6887  0.1130
   20MOL    O54 9592   5.355   3.698   2.830 -0.1737  0.5792  0.5582
   20MOL    C55 9593   5.274   3.821   2.813  0.1000 -0.1348 -0.2610
   20MOL    C56 9594   5.130   3.784   2.776 -0.8663 -0.2544  0.3020
   20MOL    C57 9595   5.045   3.900   2.731  0.1524 -0.3098 -0.1764
   20MOL    C58 9596   4.896   3.867   2.726  0.8187 -0.3805  0.1855
   20MOL    C59 9597   4.801   3.989   2.705 -0.4980  0.6292 -0.4894
   20MOL    C60 9598   4.667   3.943   2.756  0.2923 -0.6324  0.7995
   20MOL    H61 9599   5.536   3.640   2.650 -3.6137 -0.1843  0.5584
   20MOL    H62 9600   5.502   3.805   2.632  1.3937  0.0670 -1.2518
   20MOL    H63 9601   5.514   3.811   2.894 -0.5015 -0.4628  0.0926
   20MOL    H64 9602   5.313   3.893   2.741  1.5698 -2.1005 -1.4975
   20MOL    H65 9603   5.275   3.879   2.905  0.8791 -0.5344 -0.0141
   20MOL    H66 9604   5.084   3.748   2.869  1.9059 -0.3422  1.6903
   20MOL    H67 9605   5.128   3.699   2.709  1.9412  1.6194 -2.3001
   20MOL    H68 9606   5.058   3.992   2.788 -0.3870  0.0888 -0.6781
   20MOL    H69 9607   5.073   3.921   2.628  1.0093 -0.8174 -0.0451
   20MOL    H70 9608   4.880   3.801   2.642  2.6436 -1.6501  0.8059
   20MOL    H71 9609   4.867   3.801   2.808 -1.6466 -1.1189 -1.2148
   20MOL    H72 9610   4.834   4.070   2.770  0.3563  0.8811 -1.2378
   20MOL    H73 9611   4.795   4.025   2.603  1.1946  0.9175 -0.4968
   20MOL    H74 9612   4.593   4.022   2.744 -0.6831 -1.9936 -2.8205
   20MOL    H75 9613   4.639   3.858   2.693 -1.7739 -0.5580  1.5984
   20MOL    H76 9614   4.656   3.903   2.856 -1.6681  0.0126  0.8662
   20MOL    C77 9615   5.562   3.601   2.922  0.2743 -0.2597  0.3465
   20MOL    C78 9616   5.494   3.570   3.050 -0.1416  1.1854 -0.2583
   20MOL    O79 9617   5.514   3.686   3.122 -0.0299  0.3546  0.1629
   20MOL    C80 9618   5.408   3.724   3.207 -0.3832  1.1644  0.0778
   20MOL    C81 9619   5.469   3.824   3.304 -0.1523  0.7206 -0.0946
   20MOL    C82 9620   5.525   3.752   3.433 -0.3194 -0.3707  0.0701
   20MOL    C83 9621   5.568   3.855   3.540  0.4584 -0.6160  0.0641
   20MOL    C84 9622   5.608   3.809   3.688  0.1503 -0.8382  0.1576
   20MOL    C85 9623   5.741   3.727   3.695 -0.5138  0.7115 -0.1313
   20MOL    H86 9624   5.665   3.631   2.944 -0.1015 -0.6846  2.8006
   20MOL    H87 9625   5.558   3.510   2.862 -0.7556 -1.1738  1.7785
   20MOL    H88 9626   5.391   3.544   3.029 -0.0461  1.7173 -1.4519
   20MOL    H89 9627   5.363   3.637   3.254  0.6301 -0.2376 -1.4572
   20MOL    H90 9628   5.323   3.767   3.155 -2.1719 -0.0655  1.9206
   20MOL    H91 9629   5.400   3.894   3.352  1.0956 -0.4091  3.5733
   20MOL    H92 9630   5.550   3.881   3.259  1.8979 -0.2030  2.2806
   20MOL    H93 9631   5.451   3.690   3.484 -0.7437  0.8009  0.8838
   20MOL    H94 9632   5.622   3.703   3.423 -0.1513 -0.0510  0.1207
   20MOL    H95 9633   5.645   3.920   3.499 -1.8493  0.9217 -1.9852
   20MOL    H96 9634   5.483   3.921   3.557 -0.5401 -1.5498 -1.2147
   20MOL    H97 9635   5.620   3.904   3.739 -0.5251 -0.4552 -0.3895
   20MOL    H98 9636   5.533   3.757   3.747 -0.5987  0.0075 -0.0470
   20MOL    H99 9637   5.817   3.797   3.660  1.8123 -1.3475  0.7097
   20MOL   H100 9638   5.765   3.683   3.791 -0.4672  0.0220 -0.4607
   20MOL   H101 9639   5.740   3.637   3.634  0.3077  2.2762 -2.5289
   20MOL   C102 9640   5.559   3.457   3.134 -0.0507 -0.4416 -0.5561
   20MOL   C103 9641   5.594   3.330   3.045 -0.3586 -0.2127 -0.1285
   20MOL   O104 9642   5.674   3.249   3.125  0.0903 -0.3495  0.0382
   20MOL   C105 9643   5.812   3.288   3.119 -0.1143 -0.5917 -0.2682
   20MOL   C106 9644   5.896   3.247   2.995  0.1110  0.3816  0.4103
   20MOL   C107 9645   6.047   3.266   3.029  0.1063  0.2319 -0.2644
   20MOL   C108 9646   6.144   3.215   2.923 -0.3303  0.1994 -0.2674
   20MOL   C109 9647   6.293   3.251   2.943 -0.1633 -0.2067  0.2693
   20MOL   C110 9648   6.378   3.176   2.848 -0.3402 -0.4395 -0.5342
   20MOL   H111 9649   5.655   3.495   3.172  0.8584  0.8322 -3.9447
   20MOL   H112 9650   5.503   3.414   3.217  2.7864 -2.3887  0.4274
   20MOL   H113 9651   5.650   3.354   2.954 -2.1538  1.3404 -0.8587
   20MOL   H114 9652   5.855   3.246   3.211 -1.1599 -1.4002 -0.1444
   20MOL   H115 9653   5.826   3.392   3.150 -0.1877 -1.1875  1.8617
   20MOL   H116 9654   5.856   3.299   2.908  1.5262  1.1886  0.2277
   20MOL   H117 9655   5.861   3.146   2.974 -2.0381  1.2705 -0.3929
   20MOL   H118 9656   6.080   3.368   3.047 -0.3780 -0.1127  2.8201
   20MOL   H119 9657   6.064   3.211   3.122 -0.0390 -0.3350 -0.5708
   20MOL   H120 9658   6.109   3.113   2.904  1.9173 -0.4764 -0.9696
   20MOL   H121 9659   6.113   3.273   2.836 -0.3684  0.6326  0.0359
   20MOL   H122 9660   6.307   3.358   2.929 -1.5944  0.2906  2.5308
   20MOL   H123 9661   6.323   3.216   3.042 -3.6311 -1.6715  0.8649
   20MOL   H124 9662   6.483   3.191   2.873 -0.7801  1.9126 -0.0173
   20MOL   H125 9663   6.383   3.069   2.869 -1.6072 -0.5220 -0.6319
   20MOL   H126 9664   6.355   3.194   2.743 -0.0102 -0.3195 -0.5846
   20MOL   C127 9665   5.475   3.245   3.012  0.2394 -0.5149  0.5609
   20MOL   C128 9666   5.519   3.131   2.926  0.0613  0.0465  0.0032
   20MOL   O129 9667   5.544   3.194   2.807  0.1685  0.3382  0.0122
   20MOL   C130 9668   5.648   3.129   2.725  0.5566 -0.0476 -0.9588
   20MOL   C131 9669   5.684   3.202   2.603 -0.5143  0.6764 -0.0353
   20MOL   C132 9670   5.584   3.187   2.492 -0.3798  0.0462 -0.6902
   20MOL   C133 9671   5.616   3.265   2.373 -0.2214 -0.4176  0.5271
   20MOL   C134 9672   5.738   3.219   2.293 -0.1963  0.1635 -0.4841
   20MOL   C135 9673   5.766   3.302   2.160 -0.0633  0.5107 -0.4232
   20MOL   H136 9674   5.434   3.208   3.106  0.4884 -1.5236  0.2694
   20MOL   H137 9675   5.401   3.303   2.955  0.0652 -1.8278 -0.5640
   20MOL   H138 9676   5.607   3.083   2.971 -0.5557  1.6893  3.1224
   20MOL   H139 9677   5.621   3.027   2.696  0.3526 -0.1341 -0.4668
   20MOL   H140 9678   5.741   3.118   2.781  0.4848 -0.6002 -0.9470
   20MOL   H141 9679   5.785   3.167   2.583 -0.4055  1.2675 -0.5392
   20MOL   H142 9680   5.690   3.309   2.625  2.1408  0.1006  2.2490
   20MOL   H143 9681   5.574   3.081   2.466 -0.3596  0.1612 -1.1740
   20MOL   H144 9682   5.484   3.209   2.529 -0.6084 -1.8725 -0.1114
   20MOL   H145 9683   5.528   3.268   2.309 -0.3350  0.5701  0.7232
   20MOL   H146 9684   5.638   3.366   2.407 -0.2680 -0.5569  0.9811
   20MOL   H147 9685   5.827   3.239   2.352  0.5506  0.5560 -1.7120
   20MOL   H148 9686   5.742   3.111   2.281 -0.0564  0.3700 -2.5247
   20MOL   H149 9687   5.758   3.409   2.178  1.2520  0.4410  0.6396
   20MOL   H150 9688   5.859   3.279   2.109 -0.4711 -0.8317 -0.5871
   20MOL   H151 9689   5.685   3.281   2.090 -0.4355  1.5246 -0.3030
   20MOL   C152 9690   5.417   3.020   2.890 -0.2920 -0.6176 -0.6278
   20MOL   C153 9691   5.394   2.923   3.009 -0.4059  0.0993 -0.6487
   20MOL   O154 9692   5.265   2.869   2.985  0.3904  0.9383  0.4236
   20MOL   C155 9693   5.190   2.833   3.100  0.0344 -0.0061 -0.1415
   20MOL   C156 9694   5.047   2.799   3.059 -0.1335  0.0435  0.0888
   20MOL   C157 9695   4.967   2.741   3.179  0.1815 -0.0313  0.2950
   20MOL   C158 9696   4.820   2.712   3.134 -0.0351  0.6268  0.0975
   20MOL   C159 9697   4.736   2.657   3.252 -0.1468 -0.4326 -0.1514
   20MOL   C160 9698   4.592   2.643   3.210  0.0974 -0.1587 -0.1357
   20MOL   H161 9699   5.327   3.076   2.865 -0.0543  0.3223  0.5850
   20MOL   H162 9700   5.442   2.952   2.809 -1.4105 -0.5079 -1.0729
   20MOL   H163 9701   5.390   2.992   3.093  0.4160 -0.7522  0.1035
   20MOL   H164 9702   5.197   2.916   3.170  1.5704 -1.1229  1.0709
   20MOL   H165 9703   5.237   2.750   3.153  0.4483  0.4554  0.2229
   20MOL   H166 9704   5.038   2.728   2.977  0.8521 -1.5289  1.3247
   20MOL   H167 9705   4.992   2.885   3.020 -1.8529 -0.9150  0.3270
   20MOL   H168 9706   5.013   2.650   3.217  0.4108  0.4144  1.0968
   20MOL   H169 9707   4.971   2.813   3.260  0.0100  1.1722 -0.7404
   20MOL   H170 9708   4.764   2.796   3.093 -1.3615 -0.1847  0.2094
   20MOL   H171 9709   4.817   2.633   3.060 -1.2015 -1.8549  2.6856
   20MOL   H172 9710   4.775   2.562   3.288 -0.3280 -0.9031 -1.1887
   20MOL   H173 9711   4.746   2.725   3.337 -0.4792 -1.5066  0.7627
   20MOL   H174 9712   4.594   2.592   3.114 -0.2572  0.5931 -0.5530
   20MOL   H175 9713   4.525   2.592   3.279 -1.6797  2.1075 -0.1134
   20MOL   H176 9714   4.547   2.740   3.189  2.2675  0.7751 -0.6545
   20MOL   C177 9715   5.499   2.810   3.024  0.1572  0.3488  0.0279
   20MOL   C178 9716   5.611   2.834   3.133  0.6286 -0.7648  0.4200
   20MOL   O179 9717   5.554   2.865   3.259 -0.8080  0.0914 -0.3283
   20MOL   C180 9718   5.631   2.938   3.360 -0.2119 -0.2171  0.3504
   20MOL   C181 9719   5.607   2.881   3.499 -0.2305 -0.5850  0.1706
   20MOL   C182 9720   5.702   2.943   3.601  0.4781  0.6574 -0.4824
   20MOL   C183 9721   5.674   2.905   3.750 -0.1042 -0.0264 -0.6211
   20MOL   C184 9722   5.778   2.972   3.840 -0.2719 -0.0369 -0.7494
   20MOL   C185 9723   5.743   2.964   3.989  0.2032 -0.0312  0.3560
   20MOL   H186 9724   5.444   2.721   3.058  0.0130 -0.3711 -2.0030
   20MOL   H187 9725   5.546   2.782   2.931 -1.2164 -0.5347 -0.4259
   20MOL   H188 9726   5.676   2.914   3.099 -2.2782  2.8883  3.0454
   20MOL   H189 9727   5.611   3.045   3.356 -1.1695 -0.4398 -1.5984
   20MOL   H190 9728   5.736   2.928   3.335 -0.4179  1.1481 -1.1259
   20MOL   H191 9729   5.620   2.773   3.499 -0.2571 -0.6014  1.9321
   20MOL   H192 9730   5.505   2.899   3.534 -1.0426 -2.9603 -0.9050
   20MOL   H193 9731   5.803   2.916   3.573  0.0478  0.8618 -2.3537
   20MOL   H194 9732   5.688   3.051   3.600 -2.8125  0.2998 -2.8714
   20MOL   H195 9733   5.578   2.945   3.782 -0.2697 -0.6911 -0.2643
   20MOL   H196 9734   5.670   2.799   3.776 -0.2257 -0.2741 -1.6275
   20MOL   H197 9735   5.879   2.941   3.815  0.5543  0.9989  1.1499
   20MOL   H198 9736   5.781   3.079   3.820 -0.8156  0.4230  1.5046
   20MOL   H199 9737   5.821   2.995   4.057 -0.6093  1.2950  0.6999
   20MOL   H200 9738   5.653   3.021   4.013 -0.1912  1.3939 -3.9178
   20MOL   H201 9739   5.730   2.861   4.022 -1.0842  0.8095  2.5386
   20MOL   C202 9740   5.700   2.709   3.153 -0.1739  0.2138 -0.2254
   20MOL   C203 9741   5.787   2.664   3.026  0.9512  0.1015 -0.0601
   20MOL   O204 9742   5.798   2.519   3.023  0.0470 -0.0708  0.6411
   20MOL   C205 9743   5.683   2.460   2.968 -0.5901  0.1985 -0.1115
   20MOL   C206 9744   5.699   2.304   2.966  0.3586 -0.0551 -0.5609
   20MOL   C207 9745   5.574   2.227   2.920  0.8695 -0.8328  0.4856
   20MOL   C208 9746   5.608   2.080   2.877 -0.5369  0.0006  0.2108
   20MOL   C209 9747   5.475   2.004   2.839 -0.8910  0.0433 -0.0115
   20MOL   C210 9748   5.499   1.859   2.806  0.6394  0.7542  0.3279
   20MOL   H211 9749   5.770   2.724   3.235 -1.9065  3.8814  0.7016
   20MOL   H212 9750   5.647   2.621   3.189  0.0860  0.2019  0.1241
   20MOL   H213 9751   5.742   2.702   2.935 -1.5865 -1.4312  0.4740
   20MOL   H214 9752   5.668   2.494   2.866  2.4209  0.3413 -0.5527
   20MOL   H215 9753   5.607   2.484   3.042  1.4108 -0.5560  2.2713
   20MOL   H216 9754   5.693   2.275   3.071 -0.9161  2.5389  0.1149
   20MOL   H217 9755   5.792   2.272   2.919  0.2871  1.0444 -1.4683
   20MOL   H218 9756   5.501   2.223   3.001 -0.4757 -0.4263 -0.6947
   20MOL   H219 9757   5.532   2.287   2.839  0.0045 -0.3189  1.3037
   20MOL   H220 9758   5.669   2.070   2.787 -1.1320 -2.3679  0.0266
   20MOL   H221 9759   5.663   2.029   2.955 -0.2593 -0.7842 -0.4833
   20MOL   H222 9760   5.396   2.004   2.914  0.3002  0.0001  1.2715
   20MOL   H223 9761   5.441   2.046   2.745 -0.3981  2.9302  1.0495
   20MOL   H224 9762   5.507   1.787   2.888 -3.8021 -0.0831  0.1418
   20MOL   H225 9763   5.408   1.805   2.780 -0.0325  1.2068  1.6972
   20MOL   H226 9764   5.579   1.851   2.732  2.1844  2.3898  1.7912
   20MOL   C227 9765   5.925   2.724   3.037  1.1000 -0.2949 -0.3303
   20MOL   C228 9766   6.014   2.720   2.914  0.0725 -0.8081 -0.7334
   20MOL   O229 9767   5.975   2.815   2.822  0.8950  0.1244 -0.5711
   20MOL   C230 9768   6.002   2.763   2.688 -0.4276  0.3261  0.4378
   20MOL   C231 9769   5.992   2.888   2.604 -0.2364  0.2483  0.3745
   20MOL   C232 9770   6.114   2.983   2.624  0.0539  0.7266  0.3496
   20MOL   C233 9771   6.111   3.116   2.539 -0.6143 -0.2186 -0.8889
   20MOL   C234 9772   6.120   3.097   2.388 -0.6863  0.6733  0.3937
   20MOL   C235 9773   6.118   3.225   2.309  0.2503  0.8191 -0.5178
   20MOL   H236 9774   5.906   2.826   3.069 -2.3030  0.3369 -3.9496
   20MOL   H237 9775   5.968   2.669   3.120  0.3813 -0.8887 -0.3492
   20MOL   H238 9776   6.016   2.619   2.872 -0.1136 -1.3955  0.6247
   20MOL   H239 9777   5.922   2.699   2.652 -0.9114  2.6784 -2.9418
   20MOL   H240 9778   6.100   2.721   2.667 -0.5340  1.2299 -2.0472
   20MOL   H241 9779   5.896   2.935   2.626 -0.5055  0.4375 -1.1682
   20MOL   H242 9780   5.981   2.858   2.500 -2.3111  0.1168  0.6028
   20MOL   H243 9781   6.105   3.008   2.730  0.5302  0.0781  0.5433
   20MOL   H244 9782   6.203   2.931   2.588 -1.7246 -1.9703 -0.2638
   20MOL   H245 9783   6.032   3.183   2.573 -0.5673 -0.2205 -0.7758
   20MOL   H246 9784   6.201   3.168   2.572 -0.4791 -1.3423  0.6023
   20MOL   H247 9785   6.212   3.044   2.364 -1.5583 -2.1249  2.8526
   20MOL   H248 9786   6.042   3.027   2.358  0.4704 -0.2738 -0.4723
   20MOL   H249 9787   6.030   3.275   2.348 -1.7537 -2.7192 -0.2630
   20MOL   H250 9788   6.205   3.287   2.327 -0.0128  0.2244  3.1340
   20MOL   H251 9789   6.095   3.209   2.203  1.0432 -1.7095 -0.3537
   20MOL   C252 9790   6.167   2.746   2.949  0.4571 -0.8230  0.4665
   20MOL   C253 9791   6.255   2.625   3.006 -0.6291 -0.1697 -0.0929
   20MOL   O254 9792   6.202   2.575   3.125  0.1520  0.5296 -0.2317
   20MOL   C255 9793   6.219   2.435   3.145  0.1568 -0.6725  0.2735
   20MOL   C256 9794   6.143   2.397   3.280  0.2597 -0.5049  1.0599
   20MOL   C257 9795   6.146   2.248   3.319 -0.5105 -0.4888 -1.1331
   20MOL   C258 9796   6.113   2.147   3.201  0.0746  0.0263  0.4594
   20MOL   C259 9797   6.104   1.997   3.254  0.3097 -1.0917 -0.1079
   20MOL   C260 9798   6.233   1.944   3.310 -0.3471  0.0659  0.1792
   20MOL   H261 9799   6.202   2.794   2.858 -0.6075 -0.6013  0.1710
   20MOL   H262 9800   6.165   2.827   3.022 -1.3011 -0.5450  0.1450
   20MOL   H263 9801   6.250   2.545   2.931  1.3571 -0.9395  0.5582
   20MOL   H264 9802   6.323   2.404   3.154  0.2646  0.0795  1.7860
   20MOL   H265 9803   6.180   2.371   3.066 -0.0927 -0.2618  0.0610
   20MOL   H266 9804   6.040   2.421   3.256  0.6519  0.4402  0.2734
   20MOL   H267 9805   6.176   2.462   3.361 -0.2983  1.1253  0.0077
   20MOL   H268 9806   6.248   2.240   3.356 -0.5501 -0.1305 -0.9326
   20MOL   H269 9807   6.084   2.239   3.409 -0.5223 -1.4009 -1.2319
   20MOL   H270 9808   6.012   2.163   3.165  0.4887 -0.9667 -1.2002
   20MOL   H271 9809   6.179   2.162   3.116  0.6738  1.9270  1.2461
   20MOL   H272 9810   6.028   1.992   3.333 -0.4367 -0.6625 -0.7890
   20MOL   H273 9811   6.065   1.932   3.175  0.5209 -0.7316 -0.5069
   20MOL   H274 9812   6.253   1.990   3.407  0.1056 -0.9238  0.5586
   20MOL   H275 9813   6.230   1.838   3.334 -0.2089 -0.2139 -0.9976
   20MOL   H276 9814   6.316   1.960   3.240 -0.1037 -0.9118  0.2415
   20MOL   C277 9815   6.397   2.668   3.028 -0.6279  0.0951  0.4409
   20MOL   C278 9816   6.481   2.700   2.914 -0.3816  0.1775 -0.1977
   20MOL   O279 9817   6.595   2.772   2.969  0.0232  0.3471 -0.3137
   20MOL   C280 9818   6.652   2.873   2.885  0.0342  0.9441 -0.4020
   20MOL   C281 9819   6.776   2.922   2.960  0.5170 -0.4897  0.4560
   20MOL   C282 9820   6.822   3.065   2.925  0.4885 -0.8884  0.0535
   20MOL   C283 9821   6.939   3.112   3.013 -0.4799 -0.5060  0.2643
   20MOL   C284 9822   6.974   3.257   3.001 -0.3204 -0.7597 -0.0722
   20MOL   C285 9823   7.100   3.288   3.084 -0.0784  0.9907 -0.5526
   20MOL   H286 9824   6.411   2.739   3.109  3.1668  0.0278 -0.0859
   20MOL   H287 9825   6.445   2.576   3.062 -1.4624 -0.6341 -0.3004
   20MOL   H288 9826   6.414   2.756   2.849 -0.5867  1.3859  1.0185
   20MOL   H289 9827   6.579   2.952   2.866 -0.3512  0.3011 -1.6120
   20MOL   H290 9828   6.686   2.831   2.791  0.4443 -2.1732  1.0996
   20MOL   H291 9829   6.861   2.854   2.959  1.4179  0.5940  1.4519
   20MOL   H292 9830   6.738   2.936   3.062  0.4320  0.0964  0.3458
   20MOL   H293 9831   6.846   3.083   2.820 -2.0376  1.8886 -0.1026
   20MOL   H294 9832   6.740   3.133   2.947  0.6536 -0.4691 -0.6204
   20MOL   H295 9833   6.920   3.096   3.119  0.0216  4.6072  1.2710
   20MOL   H296 9834   7.029   3.053   2.996 -0.6416 -0.0570 -2.4022
   20MOL   H297 9835   6.991   3.281   2.896  0.6562  0.9496  0.4603
   20MOL   H298 9836   6.887   3.313   3.033 -1.4775 -1.6246 -1.6367
   20MOL   H299 9837   7.167   3.362   3.041  1.0681  0.8436  0.9298
   20MOL   H300 9838   7.066   3.335   3.176 -0.8549 -0.5345 -0.0303
   20MOL   H301 9839   7.152   3.201   3.123  0.1894  1.1708 -0.5143
   20MOL   C302 9840   6.538   2.572   2.846  0.5004 -0.4468  0.8066
   20MOL   C303 9841   6.559   2.598   2.691  0.0080  0.5040  0.0519
   20MOL   O304 9842   6.466   2.514   2.619  0.0798 -0.3896 -0.2335
   20MOL   C305 9843   6.333   2.565   2.619 -0.0600  0.3242  0.2441
   20MOL   C306 9844   6.234   2.446   2.587 -0.3201  0.5951 -0.4973
   20MOL   C307 9845   6.191   2.365   2.707  1.1887  0.2473 -0.0662
   20MOL   C308 9846   6.107   2.241   2.670 -0.4026  0.1518  0.3437
   20MOL   C309 9847   6.069   2.153   2.788  0.1720  0.0206 -0.2303
   20MOL   C310 9848   6.166   2.040   2.830  0.2865  0.4784 -0.0428
   20MOL   H311 9849   6.631   2.541   2.892  0.1656  0.4668  2.1421
   20MOL   H312 9850   6.467   2.489   2.844  2.2051 -1.9223 -1.4408
   20MOL   H313 9851   6.532   2.699   2.661  1.8404  1.0002  0.0176
   20MOL   H314 9852   6.313   2.626   2.530  1.2873  0.9709  0.3741
   20MOL   H315 9853   6.312   2.620   2.711  2.4012  0.7654  0.5609
   20MOL   H316 9854   6.290   2.385   2.516 -0.8697 -0.8161  0.2725
   20MOL   H317 9855   6.154   2.490   2.528  0.0870 -1.0791 -2.3452
   20MOL   H318 9856   6.278   2.336   2.765  1.0899  0.8016  0.3575
   20MOL   H319 9857   6.140   2.414   2.789  1.0454  0.1919 -0.1217
   20MOL   H320 9858   6.020   2.284   2.621  0.8236  1.2669 -0.8840
   20MOL   H321 9859   6.159   2.186   2.592 -0.1588  1.1276 -0.1931
   20MOL   H322 9860   6.048   2.210   2.878 -0.4483 -0.3007 -0.1682
   20MOL   H323 9861   5.973   2.109   2.758  0.9455  0.0267 -2.8299
   20MOL   H324 9862   6.262   2.069   2.872 -0.4732  1.2367  1.1808
   20MOL   H325 9863   6.105   1.981   2.898 -0.4581  0.9485 -0.3072
   20MOL   H326 9864   6.184   1.974   2.745 -5.1480  0.4407 -1.2938
   20MOL   C327 9865   6.702   2.567   2.640  0.0223 -0.4327  0.0536
   20MOL   C328 9866   6.717   2.598   2.491  0.1661 -0.0460  1.1025
   20MOL   O329 9867   6.717   2.739   2.464 -0.1898  0.5602  0.1214
   20MOL   C330 9868   6.595   2.785   2.408  0.5473  0.6903 -0.2544
   20MOL   C331 9869   6.631   2.911   2.326 -0.2714  0.2895  0.6656
   20MOL   C332 9870   6.510   2.953   2.235  0.4882  0.7165  0.1059
   20MOL   C333 9871   6.554   3.055   2.133 -0.6385 -0.1346  0.0807
   20MOL   C334 9872   6.565   3.203   2.190  0.0850 -0.2914  0.1396
   20MOL   C335 9873   6.652   3.300   2.103 -0.5029 -0.1656 -0.5672
   20MOL   H336 9874   6.742   2.470   2.668  1.1373  0.3398  1.1964
   20MOL   H337 9875   6.775   2.636   2.683 -1.6158  1.6056 -0.3358
   20MOL   H338 9876   6.638   2.547   2.435 -0.1575  1.4989  0.1253
   20MOL   H339 9877   6.515   2.797   2.481 -0.5852 -2.9305 -0.8238
   20MOL   H340 9878   6.559   2.709   2.340 -1.1422  0.0760  1.2852
   20MOL   H341 9879   6.724   2.893   2.272 -0.9459  0.0439 -0.4238
   20MOL   H342 9880   6.650   2.983   2.406  0.3969 -0.0672  0.8320
   20MOL   H343 9881   6.480   2.865   2.178  3.9308  0.5979 -1.6335
   20MOL   H344 9882   6.425   2.982   2.298  0.5106 -1.4076  1.1442
   20MOL   H345 9883   6.646   3.013   2.091  1.3904  2.4886  1.7692
   20MOL   H346 9884   6.479   3.052   2.054 -0.2866 -3.8346 -0.2072
   20MOL   H347 9885   6.466   3.249   2.196  0.3479  0.3672 -0.5173
   20MOL   H348 9886   6.590   3.192   2.296 -0.0472 -1.0924  0.0913
   20MOL   H349 9887   6.645   3.405   2.132  1.6262 -0.4513  1.0369
   20MOL   H350 9888   6.757   3.273   2.092 -1.0379 -2.9432  0.7768
   20MOL   H351 9889   6.612   3.287   2.002 -1.0622 -0.8392 -0.2613
   20MOL   C352 9890   6.856   2.549   2.445 -0.6422 -0.2887 -0.0410
   20MOL   C353 9891   6.873   2.530   2.300  0.0685 -0.2122 -0.2115
   20MOL   O354 9892   6.960   2.414   2.281  0.5619 -0.8789  0.0278
   20MOL   C355 9893   6.910   2.292   2.234  0.0927 -0.2184  0.2453
   20MOL   C356 9894   7.030   2.184   2.222 -0.1200  0.0537  0.7270
   20MOL   C357 9895   7.070   2.173   2.078 -0.3273  0.3444  0.5827
   20MOL   C358 9896   7.163   2.049   2.040  0.0353 -0.2929 -0.6135
   20MOL   C359 9897   7.203   2.036   1.890 -0.0980 -0.4384  0.4522
   20MOL   C360 9898   7.299   1.919   1.877 -0.0512 -0.3600  0.3219
   20MOL   H361 9899   6.941   2.609   2.477 -0.1038 -0.8703 -0.3669
   20MOL   H362 9900   6.865   2.448   2.487 -2.1976  0.0221  1.1020
   20MOL   H363 9901   6.771   2.506   2.271  0.3459 -0.5485 -0.9303
   20MOL   H364 9902   6.861   2.318   2.140 -0.1176  0.2305  0.4802
   20MOL   H365 9903   6.844   2.247   2.308 -0.5081 -0.4183 -0.4074
   20MOL   H366 9904   6.990   2.094   2.269  0.3982  0.8380  2.6868
   20MOL   H367 9905   7.113   2.216   2.286  1.1825 -0.6338 -0.5664
   20MOL   H368 9906   6.975   2.148   2.030 -0.1397  0.4098  0.1681
   20MOL   H369 9907   7.114   2.269   2.048  0.7630  0.1887  1.6489
   20MOL   H370 9908   7.257   2.064   2.094 -0.4364  0.9853 -0.1266
   20MOL   H371 9909   7.110   1.964   2.083  1.9772 -1.0298  0.3700
   20MOL   H372 9910   7.114   2.011   1.831  0.1056 -0.2873  0.0788
   20MOL   H373 9911   7.237   2.135   1.862  1.4737 -0.9184  0.6467
   20MOL   H374 9912   7.253   1.839   1.934 -0.4660 -0.4138 -0.0891
   20MOL   H375 9913   7.324   1.886   1.776 -1.5109  0.9437 -0.4847
   20MOL   H376 9914   7.396   1.910   1.927  0.6806 -1.5548 -1.2669
   20MOL   C377 9915   6.936   2.655   2.236  0.4808  0.2693 -0.3089
   20MOL   C378 9916   6.923   2.663   2.080 -0.3128  0.0385  0.1312
   20MOL   O379 9917   6.982   2.782   2.023  0.2517  0.3105 -0.7044
   20MOL   C380 9918   7.121   2.812   2.038  0.2382  0.3162  0.2696
   20MOL   C381 9919   7.206   2.700   1.964  0.4702 -0.8141  0.7794
   20MOL   C382 9920   7.195   2.703   1.816 -0.3391  0.4391  0.5596
   20MOL   C383 9921   7.284   2.592   1.748 -0.0438 -0.2395 -0.1957
   20MOL   C384 9922   7.308   2.605   1.599  0.1704 -0.4250  0.5553
   20MOL   C385 9923   7.189   2.548   1.523 -0.0500  0.1505  0.5502
   20MOL   H386 9924   6.884   2.741   2.278 -0.5104  0.5781 -2.1066
   20MOL   H387 9925   7.040   2.668   2.265  1.5149 -3.0492 -2.3042
   20MOL   H388 9926   6.973   2.572   2.044 -0.0241  0.1326  0.2896
   20MOL   H389 9927   7.147   2.825   2.143 -2.2411 -1.4153  1.1408
   20MOL   H390 9928   7.158   2.906   1.999  0.9838  0.0701  0.3744
   20MOL   H391 9929   7.184   2.600   2.001  2.9522 -1.4476  0.5703
   20MOL   H392 9930   7.307   2.717   1.999  0.3998  0.5910  0.3417
   20MOL   H393 9931   7.092   2.673   1.796  0.6319 -4.4255  2.1690
   20MOL   H394 9932   7.206   2.802   1.770 -0.3159  0.3199  0.3076
   20MOL   H395 9933   7.382   2.584   1.796 -0.2181 -1.8613 -0.0934
   20MOL   H396 9934   7.230   2.501   1.772 -1.7734  0.7225 -0.3293
   20MOL   H397 9935   7.332   2.704   1.560 -0.7625 -0.9281 -1.3619
   20MOL   H398 9936   7.399   2.546   1.588  1.5397  1.7547 -0.4197
   20MOL   H399 9937   7.104   2.617   1.518 -2.0442 -2.0436  3.0744
   20MOL   H400 9938   7.228   2.533   1.422  0.5062  2.5234  0.3846
   20MOL   H401 9939   7.149   2.458   1.569  0.0511 -0.1679  0.0140
   20MOL   C402 9940   6.779   2.659   2.023 -0.3084 -0.7143  0.1003
   20MOL   C403 9941   6.773   2.605   1.874 -0.0592  0.1895  0.2146
   20MOL   O404 9942   6.637   2.627   1.830 -0.5571  0.0674  0.5554
   20MOL   C405 9943   6.582   2.758   1.826 -0.7144 -0.0727 -0.1479
   20MOL   C406 9944   6.480   2.773   1.716  0.1083 -0.0240  0.3917
   20MOL   C407 9945   6.508   2.681   1.593 -0.3010  0.3722 -0.0643
   20MOL   C408 9946   6.414   2.711   1.474  0.2351 -0.1190  0.1311
   20MOL   C409 9947   6.396   2.583   1.387 -0.4153  0.4798 -0.5003
   20MOL   C410 9948   6.267   2.589   1.307  0.7014  0.8355 -0.2535
   20MOL   H411 9949   6.726   2.753   2.041  0.3022 -0.2695 -0.3915
   20MOL   H412 9950   6.728   2.596   2.096  2.1825 -2.4952  0.3704
   20MOL   H413 9951   6.846   2.656   1.811 -0.7823 -0.1820 -0.9464
   20MOL   H414 9952   6.655   2.839   1.816 -1.0696  0.2463 -0.1668
   20MOL   H415 9953   6.528   2.768   1.920  1.4500  1.5767  0.9696
   20MOL   H416 9954   6.485   2.880   1.693 -0.0802  0.0177  0.5373
   20MOL   H417 9955   6.382   2.758   1.762 -0.9475  0.3294 -1.6564
   20MOL   H418 9956   6.611   2.703   1.567  0.2344 -0.9943  0.8997
   20MOL   H419 9957   6.495   2.575   1.612  1.1630 -0.2171 -2.2229
   20MOL   H420 9958   6.313   2.744   1.497 -0.2410 -1.8754  0.6459
   20MOL   H421 9959   6.454   2.788   1.408  0.3497  0.1275  0.4839
   20MOL   H422 9960   6.483   2.559   1.326 -1.1649 -1.1104 -0.9842
   20MOL   H423 9961   6.371   2.505   1.459  0.3844  0.9290  0.2732
   20MOL   H424 9962   6.255   2.502   1.243  3.5835 -1.1314  1.7788
   20MOL   H425 9963   6.177   2.596   1.368  0.6304  1.2023 -0.3958
   20MOL   H426 9964   6.280   2.676   1.242 -0.6469  0.5624 -0.9097
   20MOL   C427 9965   6.805   2.458   1.874  0.3610 -0.0061 -0.1321
   20MOL   C428 9966   6.757   2.370   1.749 -0.6760 -0.2389 -0.6345
   20MOL   O429 9967   6.833   2.417   1.637 -0.0033  0.0074 -0.2025
   20MOL   C430 9968   6.755   2.395   1.523 -0.9503 -0.4287 -0.1731
   20MOL   C431 9969   6.845   2.361   1.399 -0.0594 -0.1191 -0.0042
   20MOL   C432 9970   6.774   2.360   1.258 -0.2067 -0.1285  0.3054
   20MOL   C433 9971   6.871   2.328   1.135 -0.0923  0.1553 -0.0651
   20MOL   C434 9972   6.781   2.298   1.017 -1.2061  0.7343 -0.5556
   20MOL   C435 9973   6.850   2.287   0.882  0.3349  0.5181 -0.0112
   20MOL   H436 9974   6.911   2.436   1.882  1.0870  3.9817  3.1948
   20MOL   H437 9975   6.752   2.406   1.954 -0.5414 -0.4093 -0.9734
   20MOL   H438 9976   6.653   2.394   1.730 -0.9037  0.6113  1.5251
   20MOL   H439 9977   6.703   2.490   1.506  1.0528  0.7993  0.3543
   20MOL   H440 9978   6.680   2.317   1.532 -2.3554  0.7695 -1.2289
   20MOL   H441 9979   6.891   2.264   1.417 -0.6330 -0.7068 -1.6109
   20MOL   H442 9980   6.931   2.429   1.401  0.2361 -0.4419 -1.1077
   20MOL   H443 9981   6.693   2.287   1.265 -0.1557 -0.3413 -1.1927
   20MOL   H444 9982   6.743   2.462   1.236  2.4323  0.5022 -0.6859
   20MOL   H445 9983   6.932   2.418   1.124 -1.7034  1.0608 -1.8092
   20MOL   H446 9984   6.937   2.244   1.157  0.0590 -0.4879 -2.8008
   20MOL   H447 9985   6.732   2.203   1.041 -0.3814  0.6690  0.9333
   20MOL   H448 9986   6.706   2.376   1.017  0.1258  2.0500 -2.5912
   20MOL   H449 9987   6.783   2.300   0.796 -0.2741  1.0522  0.5431
   20MOL   H450 9988   6.902   2.383   0.884  0.6144  0.3799 -0.4980
   20MOL   H451 9989   6.921   2.205   0.870 -0.0138  0.0417  1.1271
   20MOL   C452 9990   6.776   2.216   1.766  0.0215 -0.5460  0.0653
   20MOL   C453 9991   6.668   2.140   1.843  0.5313  0.6365  0.6164
   20MOL   O454 9992   6.669   2.171   1.982  0.2110  0.0927 -0.0934
   20MOL   C455 9993   6.554   2.234   2.031 -0.5767 -0.4302  0.4196
   20MOL   C456 9994   6.560   2.266   2.183  0.0092  0.0259  0.0007
   20MOL   C457 9995   6.567   2.139   2.263  0.0555  0.2510 -0.1291
   20MOL   C458 9996   6.562   2.156   2.419 -0.2412 -0.4870  0.1904
   20MOL   C459 9997   6.518   2.027   2.490 -0.1222 -0.1585 -0.4193
   20MOL   C460 9998   6.480   2.060   2.632 -0.9079 -0.5601 -0.3375
   20MOL   H461 9999   6.770   2.176   1.665  0.4377  1.6329 -0.8396
   20MOL   H46210000   6.876   2.190   1.800 -0.3314  0.2825  1.8211
   20MOL   H46310001   6.570   2.172   1.807  0.6149  1.9248  1.5262
   20MOL   H46410002   6.464   2.177   2.010 -0.0650 -1.5021  1.1014
   20MOL   H46510003   6.546   2.331   1.981  1.4766 -0.4254  0.0352
   20MOL   H46610004   6.465   2.316   2.204 -0.0342 -0.5463  1.2615
   20MOL   H46710005   6.629   2.344   2.218 -0.7994  0.5647  0.4236
   20MOL   H46810006   6.482   2.074   2.241 -0.2699  0.6740 -0.1347
   20MOL   H46910007   6.662   2.091   2.240  1.5511  3.0212 -0.0628
   20MOL   H47010008   6.663   2.190   2.445 -0.3961 -1.4568  2.1296
   20MOL   H47110009   6.509   2.245   2.452  2.2753  1.0069  0.3564
   20MOL   H47210010   6.428   1.990   2.440 -0.9809 -0.1186  1.0704
   20MOL   H47310011   6.588   1.944   2.481 -0.4263 -0.3093 -1.4822
   20MOL   H47410012   6.479   1.971   2.695  1.8044  0.6080  1.4661
   20MOL   H47510013   6.547   2.127   2.688 -1.1435 -1.0102  0.4987
   20MOL   H47610014   6.380   2.104   2.630 -0.6751 -0.0881 -1.4490
   20MOL   C47710015   6.674   1.984   1.812  0.0306 -0.0429 -0.4696
   20MOL   C47810016   6.796   1.902   1.854  0.3090  0.5975  1.0586
   20MOL   O47910017   6.769   1.769   1.848  0.0531  0.4705 -0.0443
   20MOL   C48010018   6.854   1.679   1.905 -0.4341  0.3563  0.1684
   20MOL   C48110019   6.812   1.537   1.883  0.3240  0.2102  0.2682
   20MOL   C48210020   6.658   1.525   1.914  0.2561 -0.2603  0.1027
   20MOL   C48310021   6.604   1.378   1.913 -0.0207 -0.8432  0.6591
   20MOL   C48410022   6.455   1.384   1.951 -0.7153 -0.3989 -0.6661
   20MOL   C48510023   6.386   1.246   1.933 -0.0060 -0.3543  0.3478
   20MOL   H48610024   6.592   1.942   1.869  1.2097 -1.7304  0.0274
   20MOL   H48710025   6.648   1.969   1.707  0.7747  0.6603 -0.7631
   20MOL   H48810026   6.872   1.930   1.781 -0.8366 -1.3386 -0.9736
   20MOL   H48910027   6.864   1.696   2.013 -0.9070 -1.4892  0.5121
   20MOL   H49010028   6.955   1.679   1.863 -0.3940 -3.0123  0.1596
   20MOL   H49110029   6.869   1.468   1.945  0.4838 -0.3381 -0.4881
   20MOL   H49210030   6.835   1.494   1.786 -1.0879  1.5813 -0.6923
   20MOL   H49310031   6.636   1.563   2.014 -2.1345  2.9204 -1.5202
   20MOL   H49410032   6.607   1.591   1.843  0.9737 -0.6542 -0.7995
   20MOL   H49510033   6.634   1.335   1.817 -1.9966  0.0470 -0.3952
   20MOL   H49610034   6.661   1.321   1.986 -0.4807  0.6281  2.1863
   20MOL   H49710035   6.449   1.414   2.056 -1.1622  1.3553 -1.1779
   20MOL   H49810036   6.403   1.460   1.892 -0.5998 -0.2435 -0.5708
   20MOL   H49910037   6.379   1.212   1.830 -0.6237 -0.5390  0.4483
   20MOL   H50010038   6.441   1.168   1.987 -0.0127 -1.1608 -0.7750
   20MOL   H50110039   6.284   1.253   1.969 -0.3098 -0.8428 -0.4063
   20MOL   H50210040   6.815   1.933   1.956 -0.1760  4.0377  0.1456
   21MOL     C110041   7.276   3.342   2.187 -0.7683  0.1564 -0.0771
   21MOL     C210042   7.415   3.282   2.135 -0.2022  0.0100 -0.4335
   21MOL     O310043   7.393   3.194   2.029 -0.1499  0.6198  0.4299
   21MOL     C410044   7.410   3.249   1.894  0.3771  0.3902  0.1540
   21MOL     C510045   7.408   3.123   1.806 -0.3941  0.1057 -0.6649
   21MOL     C610046   7.543   3.056   1.806 -0.5456  0.2516 -0.0567
   21MOL     C710047   7.549   2.928   1.721  0.7894 -0.0499  0.0892
   21MOL     C810048   7.676   2.848   1.739  0.8371 -0.3398 -0.3890
   21MOL     C910049   7.674   2.709   1.673  0.1296  0.1579 -0.1265
   21MOL    H1010050   7.213   3.257   2.213  0.8143 -1.6554 -2.0687
   21MOL    H1110051   7.291   3.406   2.274 -0.2347 -1.1297  0.7915
   21MOL    H1210052   7.473   3.369   2.102 -2.2064  1.8950  0.8333
   21MOL    H1310053   7.508   3.297   1.886  0.4000  0.4138  0.5637
   21MOL    H1410054   7.328   3.316   1.867  1.7594  1.6230 -1.1053
   21MOL    H1510055   7.385   3.150   1.703  1.0603 -2.4392 -1.7315
   21MOL    H1610056   7.330   3.051   1.832 -0.5212 -0.1057 -1.5901
   21MOL    H1710057   7.628   3.118   1.777  1.3891 -0.4654  3.6957
   21MOL    H1810058   7.556   3.030   1.911  0.6289  1.6370  0.1610
   21MOL    H1910059   7.458   2.869   1.736 -0.0432  1.1923  0.0545
   21MOL    H2010060   7.539   2.948   1.614  1.2206  3.4551  0.6379
   21MOL    H2110061   7.694   2.830   1.845 -1.8324 -0.5684  0.0440
   21MOL    H2210062   7.762   2.901   1.699  1.2538 -1.0548 -0.4678
   21MOL    H2310063   7.773   2.665   1.662  1.4213  2.9618 -0.1569
   21MOL    H2410064   7.607   2.639   1.725  0.8009 -1.1012 -0.9433
   21MOL    H2510065   7.644   2.703   1.568  2.3609  1.3586 -0.8497
   21MOL    H2610066   7.244   3.394   2.097  1.9876 -0.9082 -1.7162
   21MOL    C2710067   7.483   3.215   2.253 -0.3921 -0.6328  0.2579
   21MOL    C2810068   7.628   3.172   2.229 -0.8224  0.3048  0.1071
   21MOL    O2910069   7.700   3.287   2.175  0.7015  0.2095  0.1276
   21MOL    C3010070   7.769   3.254   2.062  0.2727 -0.6689  0.3950
   21MOL    C3110071   0.066   3.377   2.006  0.2476 -0.3423  0.2914
   21MOL    C3210072   0.141   3.356   1.864 -0.0015  0.7370 -0.1312
   21MOL    C3310073   0.249   3.457   1.820 -0.0787  0.4525 -0.1432
   21MOL    C3410074   0.372   3.464   1.912  1.0400  0.5282  0.2597
   21MOL    C3510075   0.460   3.586   1.864  0.3428 -0.1963 -0.0620
   21MOL    H3610076   7.496   3.282   2.338  2.4105  0.8291 -1.2436
   21MOL    H3710077   7.423   3.126   2.271 -1.0648 -0.6688 -1.9640
   21MOL    H3810078   7.621   3.090   2.157 -1.8588  0.0396  0.5042
   21MOL    H3910079   7.710   3.209   1.982  1.4844 -0.0958 -0.8421
   21MOL    H4010080   0.054   3.172   2.097  1.6156 -0.7151 -1.9890
   21MOL    H4110081   0.130   3.419   2.083 -1.5056  1.6922  0.7031
   21MOL    H4210082   7.770   3.458   2.002  0.1673 -0.4060  0.4962
   21MOL    H4310083   0.192   3.260   1.873 -1.2549  0.1596  0.8903
   21MOL    H4410084   0.065   3.343   1.787 -0.7889 -3.0362  1.1861
   21MOL    H4510085   0.284   3.422   1.723 -1.0617 -0.3550 -0.2168
   21MOL    H4610086   0.199   3.552   1.800 -0.8465  0.0809 -0.0393
   21MOL    H4710087   0.333   3.493   2.009 -0.8456  1.4572 -0.7301
   21MOL    H4810088   0.433   3.374   1.917 -0.6395 -0.6598 -0.2572
   21MOL    H4910089   0.478   3.569   1.757 -1.8240  1.4758 -0.7386
   21MOL    H5010090   0.405   3.677   1.886  1.7929  0.8138 -0.5115
   21MOL    H5110091   0.557   3.596   1.912 -0.8092  2.4183  1.8059
   21MOL    C5210092   7.701   3.117   2.357  0.0114 -0.8252  0.8587
   21MOL    C5310093   7.657   2.975   2.393  0.1826  0.0949 -0.3850
   21MOL    O5410094   7.718   2.894   2.295  0.2376  0.1158 -0.0645
   21MOL    C5510095   7.633   2.805   2.235 -0.1374  0.1886  0.2888
   21MOL    C5610096   7.706   2.752   2.117  0.1424  0.1246 -0.1105
   21MOL    C5710097   0.038   2.645   2.154  0.2531  0.1066  0.0572
   21MOL    C5810098   0.099   2.582   2.030  0.5382  0.2151  0.2034
   21MOL    C5910099   0.208   2.487   2.082 -0.6177  0.0892 -0.5303
   21MOL    C6010100   0.285   2.421   1.969 -1.0335 -0.1776 -0.0227
   21MOL    H6110101   7.671   3.193   2.429  0.0604  2.0119 -1.9945
   21MOL    H6210102   0.033   3.116   2.361 -0.0057  0.1356  1.9161
   21MOL    H6310103   7.550   2.971   2.375  0.1985 -3.5264 -0.0394
   21MOL    H6410104   7.539   2.851   2.204  0.5050 -0.6548 -3.2187
   21MOL    H6510105   7.593   2.724   2.296  1.0243 -0.7564 -0.1636
   21MOL    H6610106   7.756   2.837   2.072 -0.1449 -0.0437 -0.7522
   21MOL    H6710107   7.641   2.705   2.043 -0.1118  1.0915 -0.5052
   21MOL    H6810108   0.113   2.692   2.219  0.7265 -1.0611  0.3741
   21MOL    H6910109   7.773   2.561   2.208 -0.6550 -0.9978 -2.3417
   21MOL    H7010110   0.030   2.517   1.978 -0.1558  0.9236  0.2409
   21MOL    H7110111   0.152   2.656   1.971 -2.2683  0.3822 -2.1716
   21MOL    H7210112   0.284   2.534   2.144  0.7753 -2.0229 -0.5859
   21MOL    H7310113   0.162   2.416   2.151  1.7393  0.5227  1.5219
   21MOL    H7410114   0.217   2.384   1.893 -1.5291  2.4246 -0.9223
   21MOL    H7510115   0.341   2.506   1.928  1.1589 -1.8800 -0.6721
   21MOL    H7610116   0.363   2.349   1.994 -0.9305  1.1434  3.7968
   21MOL    C7710117   7.690   2.939   2.539 -0.6183  0.7223 -0.2010
   21MOL    C7810118   7.633   3.020   2.655 -0.2822 -0.7032  0.0665
   21MOL    O7910119   7.679   2.967   2.781 -0.2074  0.0441  0.2664
   21MOL    C8010120   0.027   3.022   2.824  0.6883  0.0522 -0.8293
   21MOL    C8110121   0.092   2.939   2.932 -0.3887  0.0034 -0.5081
   21MOL    C8210122   0.227   2.994   2.980 -0.1037 -0.5843  0.6375
   21MOL    C8310123   0.343   2.958   2.883  0.3630 -0.0681 -0.5654
   21MOL    C8410124   0.472   2.997   2.950 -0.6897  0.3252 -0.1799
   21MOL    C8510125   0.604   2.931   2.887  0.5640 -0.4398  0.2077
   21MOL    H8610126   0.020   2.949   2.558 -0.2265 -0.1659 -1.8274
   21MOL    H8710127   7.677   2.832   2.556  0.0221  0.5523 -0.7584
   21MOL    H8810128   7.654   3.126   2.638 -1.0823 -0.9510 -2.7414
   21MOL    H8910129   0.007   3.119   2.869  0.7664 -0.5052  0.4514
   21MOL    H9010130   0.094   3.049   2.742 -0.2423  1.9309 -0.9835
   21MOL    H9110131   0.104   2.839   2.890  0.6551 -0.4731  0.8933
   21MOL    H9210132   0.025   2.936   3.019 -2.1615 -0.2293 -1.8511
   21MOL    H9310133   0.225   3.103   2.981 -2.4679 -0.5781 -0.0998
   21MOL    H9410134   0.238   2.953   3.080 -2.3007 -0.6790  0.8719
   21MOL    H9510135   0.341   2.851   2.863  0.9641  0.3042 -2.7557
   21MOL    H9610136   0.336   2.980   2.776  0.2443 -1.3211 -0.8182
   21MOL    H9710137   0.485   3.105   2.938  2.0174  0.0414 -0.0873
   21MOL    H9810138   0.461   2.984   3.058 -1.2063  0.6528 -0.1881
   21MOL    H9910139   0.691   2.972   2.938 -0.8620 -0.2941  2.5762
   21MOL   H10010140   0.602   2.824   2.909  1.3606 -0.4907  0.0544
   21MOL   H10110141   0.611   2.936   2.778 -1.0617  0.0670  0.1205
   21MOL   C10210142   7.478   3.001   2.653 -0.2863  0.0137  0.1371
   21MOL   C10310143   7.396   3.099   2.727 -0.1735  0.1067 -0.9380
   21MOL   O10410144   7.409   3.224   2.651 -0.8207  0.0955  0.2283
   21MOL   C10510145   7.390   3.339   2.728  0.4028  0.3497 -0.0621
   21MOL   C10610146   7.267   3.417   2.693 -0.9387  0.3937  0.4577
   21MOL   C10710147   7.257   3.543   2.777 -0.1850  0.2785  0.2869
   21MOL   C10810148   7.126   3.626   2.766  0.0314  0.1497  0.1023
   21MOL   C10910149   7.015   3.569   2.853 -0.1790 -0.2952 -0.5735
   21MOL   C11010150   6.903   3.670   2.882  0.7829  0.0756  0.2812
   21MOL   H11110151   7.444   3.004   2.549  1.8501 -0.6580 -0.6108
   21MOL   H11210152   7.459   2.901   2.691 -0.5553 -0.2156 -0.5759
   21MOL   H11310153   7.451   3.114   2.820  0.0656  0.1900 -1.0916
   21MOL   H11410154   7.478   3.403   2.723  0.2382  0.5259 -0.6563
   21MOL   H11510155   7.381   3.310   2.833  2.8765 -1.5055 -0.3195
   21MOL   H11610156   7.167   3.373   2.698 -1.1039  0.8455  1.1412
   21MOL   H11710157   7.277   3.439   2.587 -0.4958 -0.5729  0.2960
   21MOL   H11810158   7.275   3.517   2.882  0.6167  0.3776  0.1741
   21MOL   H11910159   7.336   3.608   2.740  0.1341 -1.3367 -1.9264
   21MOL   H12010160   7.156   3.724   2.802 -1.3450  1.0794 -1.2676
   21MOL   H12110161   7.089   3.643   2.665  2.8950 -0.3583 -1.0751
   21MOL   H12210162   6.980   3.487   2.791 -1.0389 -0.3340 -0.0464
   21MOL   H12310163   7.053   3.537   2.949  1.0658  1.5229 -0.4292
   21MOL   H12410164   6.818   3.619   2.927  0.7070  0.0741  0.1360
   21MOL   H12510165   6.930   3.761   2.934 -0.5665  0.8996 -0.4474
   21MOL   H12610166   6.874   3.720   2.789  1.4617  0.6481  0.3760
   21MOL   C12710167   7.250   3.062   2.745  0.0767 -0.1808  0.1912
   21MOL   C12810168   7.162   3.008   2.625  0.1215  0.0302  0.2600
   21MOL   O12910169   7.073   3.121   2.601 -0.7433  0.8860 -0.0844
   21MOL   C13010170   7.029   3.126   2.461 -0.1028 -0.1507 -0.0971
   21MOL   C13110171   6.912   3.223   2.438 -0.4927  0.2453 -0.8298
   21MOL   C13210172   6.957   3.370   2.465 -0.2216  0.3703 -0.3790
   21MOL   C13310173   6.835   3.470   2.436 -0.4119  0.2821  0.0583
   21MOL   C13410174   6.863   3.614   2.475  0.2839 -0.0944  0.0540
   21MOL   C13510175   6.985   3.677   2.413 -0.3093 -0.1274 -0.3784
   21MOL   H13610176   7.259   2.985   2.821  2.3070 -0.9321 -0.7903
   21MOL   H13710177   7.194   3.146   2.786 -0.4556 -1.1069  1.3923
   21MOL   H13810178   7.223   2.995   2.536  0.0188 -0.5460  0.2703
   21MOL   H13910179   7.012   3.030   2.412  0.9510 -0.3791 -0.0097
   21MOL   H14010180   7.117   3.161   2.407  0.5583 -2.4221 -0.5022
   21MOL   H14110181   6.828   3.190   2.499  0.3256 -1.0675 -0.4010
   21MOL   H14210182   6.876   3.223   2.335  1.8372  1.2132 -1.6704
   21MOL   H14310183   6.984   3.363   2.571 -0.0685 -1.6432 -0.5332
   21MOL   H14410184   7.047   3.395   2.410  1.2860  1.7883  2.5916
   21MOL   H14510185   6.806   3.472   2.331 -2.3631  0.5175  0.5735
   21MOL   H14610186   6.751   3.441   2.500 -0.9059 -0.2887 -0.8539
   21MOL   H14710187   6.783   3.683   2.447 -0.3664 -1.4594 -1.5546
   21MOL   H14810188   6.872   3.616   2.584 -1.2952 -0.8605  0.2198
   21MOL   H14910189   7.073   3.619   2.443  0.9423  1.4768 -0.8933
   21MOL   H15010190   6.971   3.677   2.305  1.6955  1.5739 -0.6774
   21MOL   H15110191   7.007   3.780   2.439 -3.6541  0.1588  1.5610
   21MOL   C15210192   7.081   2.889   2.659 -0.3971 -0.8605 -0.5146
   21MOL   C15310193   7.169   2.768   2.682 -0.0467  0.0965  0.2951
   21MOL   O15410194   7.071   2.680   2.742 -0.8410 -0.5569  0.4319
   21MOL   C15510195   7.090   2.651   2.878 -0.0815  0.2206  0.0472
   21MOL   C15610196   6.974   2.572   2.925 -0.6326  0.1666  0.2679
   21MOL   C15710197   6.980   2.543   3.078 -0.7459 -0.0470  0.0772
   21MOL   C15810198   6.868   2.613   3.160  0.3474 -0.8811  0.1735
   21MOL   C15910199   6.917   2.637   3.304 -0.2108  0.8006 -0.1342
   21MOL   C16010200   6.942   2.512   3.397 -0.3625 -0.9669 -0.4828
   21MOL   H16110201   7.021   2.905   2.748 -0.5522 -2.2891 -0.3527
   21MOL   H16210202   7.004   2.864   2.585 -3.2360  2.5032  1.1775
   21MOL   H16310203   7.259   2.787   2.741 -1.1862  0.0665  2.0875
   21MOL   H16410204   7.085   2.748   2.928 -2.5527  0.1941 -0.0422
   21MOL   H16510205   7.187   2.610   2.906  0.3111  0.5723 -0.7932
   21MOL   H16610206   6.979   2.478   2.870  0.3710 -0.5925  1.6251
   21MOL   H16710207   6.882   2.624   2.898 -1.2424 -1.3715 -0.7201
   21MOL   H16810208   6.983   2.436   3.094  0.1622 -0.1408 -0.7133
   21MOL   H16910209   7.078   2.576   3.112  0.4339 -0.4997 -2.7623
   21MOL   H17010210   6.847   2.708   3.112 -1.5078 -0.3434  1.9951
   21MOL   H17110211   6.773   2.559   3.162 -0.3804  0.4297  1.4448
   21MOL   H17210212   7.011   2.692   3.309 -0.2449  0.7382  1.2768
   21MOL   H17310213   6.837   2.688   3.357 -3.2608 -5.1140  1.3790
   21MOL   H17410214   7.004   2.531   3.484 -1.6621  0.8190  0.0820
   21MOL   H17510215   6.845   2.481   3.435  0.1671 -0.8444  1.0051
   21MOL   H17610216   6.974   2.426   3.338 -1.0911 -0.6775 -1.3115
   21MOL   C17710217   7.210   2.706   2.551 -0.4446 -0.0016  0.2055
   21MOL   C17810218   7.311   2.592   2.554  0.0701  1.1384 -0.2786
   21MOL   O17910219   7.365   2.572   2.425  0.3144  0.2225  0.7017
   21MOL   C18010220   7.299   2.480   2.342 -0.4746 -0.2569  1.2225
   21MOL   C18110221   7.354   2.469   2.200  0.1656 -0.0031 -0.1539
   21MOL   C18210222   7.474   2.374   2.186  0.3536  0.6176 -0.8535
   21MOL   C18310223   7.518   2.363   2.039 -0.2660  0.0341 -0.0505
   21MOL   C18410224   7.598   2.235   2.019  0.0776 -0.0272 -0.4649
   21MOL   C18510225   7.667   2.234   1.882  0.4632 -0.6880  0.2131
   21MOL   H18610226   7.132   2.677   2.481  1.3980  3.7561 -3.6725
   21MOL   H18710227   7.256   2.782   2.487 -2.3512  0.5656 -0.5132
   21MOL   H18810228   7.264   2.502   2.594  1.5618  0.5671  0.2357
   21MOL   H18910229   7.198   2.511   2.316  1.0507  2.6187 -1.5029
   21MOL   H19010230   7.289   2.380   2.384 -0.3667 -0.0051  1.8621
   21MOL   H19110231   7.375   2.572   2.172 -0.5997  0.2128  0.0543
   21MOL   H19210232   7.279   2.435   2.127  0.3824 -2.2429  0.6360
   21MOL   H19310233   7.557   2.420   2.239 -0.3074 -2.0447  2.6378
   21MOL   H19410234   7.463   2.282   2.242  0.5823  2.1688  1.8029
   21MOL   H19510235   7.425   2.354   1.984 -0.8173  0.3911  0.8007
   21MOL   H19610236   7.570   2.455   2.013 -0.4806  0.5817  1.3593
   21MOL   H19710237   7.676   2.206   2.089 -0.3833 -0.5100 -0.1428
   21MOL   H19810238   7.522   2.157   2.029 -0.4125  0.4655 -0.2948
   21MOL   H19910239   7.592   2.239   1.803  0.5909 -2.3960 -0.0440
   21MOL   H20010240   7.740   2.314   1.869 -1.0934  0.8148  0.6096
   21MOL   H20110241   7.724   2.142   1.868 -1.1535 -2.0104  2.1703
   21MOL   C20210242   7.432   2.598   2.647 -0.0603  0.2996  0.0336
   21MOL   C20310243   7.527   2.471   2.646 -0.0733 -0.1824 -1.1009
   21MOL   O20410244   7.448   2.364   2.688 -0.2724  0.2454 -0.2131
   21MOL   C20510245   7.418   2.340   2.826 -0.0518 -0.2824  0.3445
   21MOL   C20610246   7.318   2.228   2.843 -0.6123  0.4154 -0.5394
   21MOL   C20710247   7.185   2.263   2.776  0.5141  0.6229 -0.7614
   21MOL   C20810248   7.100   2.143   2.771 -0.1590  0.5419 -0.0630
   21MOL   C20910249   6.986   2.159   2.666  0.8276 -0.4462  0.3238
   21MOL   C21010250   6.883   2.047   2.676 -0.3719  0.3098  0.3973
   21MOL   H21110251   7.498   2.684   2.628  1.2151 -1.0532 -1.8004
   21MOL   H21210252   7.383   2.607   2.744  0.8119 -0.5629  0.5633
   21MOL   H21310253   7.545   2.453   2.540  0.5570 -1.5359 -0.7672
   21MOL   H21410254   7.395   2.430   2.884 -3.3555 -1.4159  0.8447
   21MOL   H21510255   7.513   2.304   2.868  0.4379  1.7306  1.0226
   21MOL   H21610256   7.302   2.214   2.950 -0.8348 -0.8870 -0.7432
   21MOL   H21710257   7.362   2.138   2.802 -1.7610  0.6421 -2.3357
   21MOL   H21810258   7.135   2.336   2.839 -1.4992 -1.8844  0.6616
   21MOL   H21910259   7.201   2.301   2.675 -0.1750 -1.5131 -1.7161
   21MOL   H22010260   7.162   2.055   2.752 -0.2115  0.2884  0.9152
   21MOL   H22110261   7.071   2.130   2.875  0.7360 -0.2240  0.1024
   21MOL   H22210262   6.939   2.257   2.672 -2.0532 -1.8820  1.9980
   21MOL   H22310263   7.042   2.148   2.573  1.2173 -0.0552  0.5063
   21MOL   H22410264   6.798   2.070   2.613 -0.2547 -0.6428 -0.1201
   21MOL   H22510265   6.912   1.949   2.639 -1.0095  0.3568 -0.2373
   21MOL   H22610266   6.837   2.032   2.774  1.3192 -0.4494  1.0940
   21MOL   C22710267   7.658   2.488   2.726 -0.3205 -0.1101  0.3669
   21MOL   C22810268   7.754   2.372   2.705 -0.0986 -0.3040  0.6231
   21MOL   O22910269   0.014   2.364   2.563  1.1749 -0.3285  0.1363
   21MOL   C23010270   0.027   2.240   2.499 -0.0257  0.5126 -0.2799
   21MOL   C23110271   0.154   2.243   2.409 -0.3939 -0.6424 -0.1912
   21MOL   C23210272   0.152   2.143   2.295  0.2723 -0.1161  0.4620
   21MOL   C23310273   0.289   2.142   2.218 -0.3930 -0.2332  0.0704
   21MOL   C23410274   0.278   2.048   2.096 -0.6083  0.4515  0.3341
   21MOL   C23510275   0.277   1.902   2.140  0.2400  0.6856 -0.2495
   21MOL   H23610276   7.698   2.578   2.681 -2.2000  0.5982  0.0583
   21MOL   H23710277   7.642   2.507   2.832  1.1920 -0.6798  0.7090
   21MOL   H23810278   7.691   2.288   2.733 -0.2256 -0.5769 -0.4443
   21MOL   H23910279   7.714   2.232   2.439  0.6838  1.8417 -1.5555
   21MOL   H24010280   0.028   2.154   2.566  0.1069  1.0140  0.3676
   21MOL   H24110281   0.247   2.227   2.464 -1.0806 -1.5280  0.7302
   21MOL   H24210282   0.174   2.344   2.371 -2.6924  0.2989  1.0326
   21MOL   H24310283   0.150   2.044   2.341  3.3207  1.0320  3.3447
   21MOL   H24410284   0.067   2.154   2.228  0.7885 -4.0735 -0.9955
   21MOL   H24510285   0.314   2.244   2.188 -0.2688 -0.1028  0.6033
   21MOL   H24610286   0.369   2.119   2.289  0.3564  2.0044 -0.0144
   21MOL   H24710287   0.183   2.071   2.048 -1.2027  2.2508  2.3013
   21MOL   H24810288   0.370   2.049   2.037 -1.3589 -1.0687 -0.8910
   21MOL   H24910289   0.191   1.877   2.202  1.3183  0.2774  1.1105
   21MOL   H25010290   0.278   1.834   2.055 -1.5168  0.9228 -0.4742
   21MOL   H25110291   0.370   1.877   2.192  1.2782  1.8972 -1.4848
   21MOL   C25210292   0.106   2.368   2.791  0.6236 -0.0506  0.6568
   21MOL   C25310293   0.088   2.379   2.944 -0.8542  0.0427 -0.0437
   21MOL   O25410294   0.223   2.417   2.980 -0.0786 -0.2866 -0.2228
   21MOL   C25510295   0.232   2.541   3.035  0.9057  0.1879  0.1587
   21MOL   C25610296   0.210   2.544   3.185 -0.1960 -0.0965  0.4054
   21MOL   C25710297   0.209   2.690   3.238  0.5519  0.4819  0.5813
   21MOL   C25810298   0.191   2.708   3.388  0.2771  0.7221  0.1865
   21MOL   C25910299   0.160   2.845   3.427 -1.0928 -0.9213  0.2400
   21MOL   C26010300   0.159   2.875   3.577  0.3512 -0.0972 -0.4892
   21MOL   H26110301   0.148   2.271   2.762 -0.3607 -0.2281 -0.2023
   21MOL   H26210302   0.149   2.456   2.745 -1.5994 -0.1200 -1.6621
   21MOL   H26310303   0.011   2.443   2.985  0.6083  0.0754  2.8502
   21MOL   H26410304   0.163   2.611   2.988 -0.9892 -2.4331 -1.0463
   21MOL   H26510305   0.327   2.589   3.013 -0.8105  2.9581 -1.5741
   21MOL   H26610306   0.299   2.493   3.221 -0.9718 -0.7807  1.3601
   21MOL   H26710307   0.121   2.487   3.210 -0.5507  1.2170  2.2343
   21MOL   H26810308   0.301   2.742   3.212  1.4208 -0.9526  0.8118
   21MOL   H26910309   0.128   2.736   3.182  0.8438  0.5019  0.1771
   21MOL   H27010310   0.117   2.633   3.417  0.8119  0.0110 -0.2625
   21MOL   H27110311   0.283   2.669   3.432 -0.8925 -0.1859  1.9012
   21MOL   H27210312   0.227   2.915   3.376  0.1729 -1.8834  0.5376
   21MOL   H27310313   0.061   2.869   3.389 -1.5422 -1.5409  1.0219
   21MOL   H27410314   0.144   2.981   3.597  0.9162 -0.3315  1.2391
   21MOL   H27510315   0.094   2.814   3.640 -0.2802  1.1717  0.0900
   21MOL   H27610316   0.257   2.850   3.616 -0.9979  0.4307  3.4572
   21MOL   C27710317   0.066   2.238   2.993 -0.0575 -0.3219 -0.1662
   21MOL   C27810318   0.025   2.218   3.139  0.3253 -0.2542  0.4188
   21MOL   O27910319   7.664   2.246   3.152  0.0331  0.4993 -0.7631
   21MOL   C28010320   7.619   2.343   3.249  0.0111  0.5392 -0.1972
   21MOL   C28110321   7.468   2.347   3.241 -0.1003  0.5048 -0.2431
   21MOL   C28210322   7.401   2.216   3.270  0.6643  0.1830  0.6203
   21MOL   C28310323   7.253   2.233   3.262  0.5898  0.4967 -0.7764
   21MOL   C28410324   7.191   2.095   3.239 -0.6207 -0.5685 -0.0759
   21MOL   C28510325   7.039   2.095   3.261  0.3252  0.1250  0.6173
   21MOL   H28610326   7.770   2.196   2.924 -0.9919  1.0568 -0.0388
   21MOL   H28710327   0.152   2.174   2.974 -0.0039 -0.7224  1.3529
   21MOL   H28810328   0.089   2.286   3.195  1.8106 -2.0246  0.9311
   21MOL   H28910329   7.651   2.445   3.231 -1.0377  0.7833 -0.7162
   21MOL   H29010330   7.648   2.314   3.350 -1.3246 -0.7475 -0.1498
   21MOL   H29110331   7.442   2.383   3.142 -1.5246  0.1534 -0.0109
   21MOL   H29210332   7.441   2.417   3.321 -2.2110 -0.6935  0.1365
   21MOL   H29310333   7.428   2.140   3.196  0.5394 -0.9776  1.7600
   21MOL   H29410334   7.426   2.169   3.365 -1.7876 -1.9397  0.2579
   21MOL   H29510335   7.217   2.277   3.355  2.2449  0.9100 -0.3131
   21MOL   H29610336   7.212   2.294   3.181  2.4124 -0.5087 -2.4982
   21MOL   H29710337   7.212   2.056   3.139 -1.2606 -2.1279  0.3762
   21MOL   H29810338   7.240   2.021   3.302  0.8972  0.2047 -0.3404
   21MOL   H29910339   7.003   1.993   3.278 -0.5825  0.2511 -0.4846
   21MOL   H30010340   7.003   2.160   3.341  1.2338 -2.6147  3.3444
   21MOL   H30110341   6.993   2.132   3.170 -0.0483  0.6643  1.0216
   21MOL   C30210342   0.051   2.066   3.176  0.9870  0.1926  0.2775
   21MOL   C30310343   0.050   2.051   3.326  0.0982  0.7412 -0.3109
   21MOL   O30410344   0.168   2.114   3.371  0.6904  0.6111 -0.1357
   21MOL   C30510345   0.140   2.213   3.470 -0.0265  0.3428 -0.1326
   21MOL   C30610346   0.267   2.243   3.552 -0.5201 -0.3579 -0.1710
   21MOL   C30710347   0.252   2.381   3.626  0.5571 -0.3370  0.3292
   21MOL   C30810348   0.162   2.379   3.749  0.1264 -0.6507 -0.4125
   21MOL   C30910349   0.179   2.507   3.817  0.8410  0.1218 -0.3782
   21MOL   C31010350   0.086   2.527   3.932 -0.8087 -0.0398 -0.1557
   21MOL   H31110351   7.761   1.992   3.132  3.9912 -0.3862 -3.5044
   21MOL   H31210352   0.151   2.040   3.141  0.2362 -0.7196 -1.2455
   21MOL   H31310353   7.735   2.085   3.373  0.1887 -1.4476  1.5503
   21MOL   H31410354   0.059   2.190   3.539 -1.6364  4.5941 -0.4715
   21MOL   H31510355   0.115   2.303   3.415  0.5802 -0.3353 -1.5348
   21MOL   H31610356   0.360   2.241   3.496  0.5099  1.9511  1.3982
   21MOL   H31710357   0.285   2.162   3.624  0.6456  0.0684  0.0324
   21MOL   H31810358   0.347   2.428   3.654  0.6891 -1.1344  1.2430
   21MOL   H31910359   0.210   2.449   3.552 -1.5769 -1.6020  0.3278
   21MOL   H32010360   0.057   2.361   3.726 -0.6236  0.6764  1.9414
   21MOL   H32110361   0.182   2.298   3.819 -1.3735 -0.3508  0.3849
   21MOL   H32210362   0.283   2.514   3.849  1.5338 -0.7662 -2.3697
   21MOL   H32310363   0.163   2.590   3.748  2.4160  0.0495 -0.8571
   21MOL   H32410364   0.121   2.583   4.019 -0.4857 -0.6269  0.0958
   21MOL   H32510365   7.777   2.589   3.907  1.0768  2.8036  0.1302
   21MOL   H32610366   0.050   2.433   3.973 -0.8475 -0.4387 -1.0941
   21MOL   C32710367   0.061   1.900   3.353 -0.4150 -0.1649 -0.0595
   21MOL   C32810368   0.020   1.869   3.502  0.6489  0.0411  0.9556
   21MOL   O32910369   7.659   1.912   3.514 -0.2683  0.7834 -0.0011
   21MOL   C33010370   7.614   1.944   3.645 -0.6547  0.2259 -0.5789
   21MOL   C33110371   7.469   1.995   3.625 -0.5863  0.0103  0.1320
   21MOL   C33210372   7.369   1.891   3.578 -0.8760  0.3529  0.1050
   21MOL   C33310373   7.219   1.933   3.599 -0.0886  0.6560 -0.0616
   21MOL   C33410374   7.112   1.829   3.553 -0.2283 -0.7618  0.2591
   21MOL   C33510375   6.970   1.873   3.595  0.5843  0.1511 -0.2438
   21MOL   H33610376   0.164   1.869   3.333 -0.0151 -0.3318  2.1621
   21MOL   H33710377   0.011   1.826   3.291  0.1281 -0.4383 -0.1823
   21MOL   H33810378   0.081   1.923   3.574  1.4577  0.0779  0.2626
   21MOL   H33910379   7.673   2.024   3.689  0.4939 -0.3755 -0.9886
   21MOL   H34010380   7.618   1.843   3.687  0.5666 -0.1838 -1.6233
   21MOL   H34110381   7.465   2.087   3.567 -2.2607  0.0837  0.3458
   21MOL   H34210382   7.438   2.017   3.727 -0.0472 -1.4014  0.6261
   21MOL   H34310383   7.389   1.885   3.471  0.9582 -1.1246  0.5073
   21MOL   H34410384   7.377   1.793   3.624 -1.3997  0.5336  0.5929
   21MOL   H34510385   7.208   1.977   3.699 -0.0237 -1.4074  0.8815
   21MOL   H34610386   7.192   2.017   3.536 -0.7600 -0.2513 -1.0067
   21MOL   H34710387   7.122   1.803   3.448 -0.9741  2.8632 -0.7582
   21MOL   H34810388   7.138   1.738   3.608 -1.0594 -1.9933 -1.3328
   21MOL   H34910389   6.894   1.803   3.561  0.5694  0.6688 -1.2934
   21MOL   H35010390   6.959   1.870   3.703  0.0372  1.3026 -0.2606
   21MOL   H35110391   6.947   1.976   3.569  0.8415  0.3165  0.1826
   21MOL   C35210392   0.024   1.712   3.523  0.7886 -0.3752 -0.3278
   21MOL   C35310393   0.094   1.668   3.650  0.0513  0.0374 -0.7743
   21MOL   O35410394   0.229   1.695   3.624 -0.8640 -0.0453  0.0709
   21MOL   C35510395   0.312   1.747   3.725  0.0712  0.8465  0.0149
   21MOL   C35610396   0.452   1.742   3.670 -0.1878  0.3562 -0.5204
   21MOL   C35710397   0.509   1.595   3.652 -0.2463 -0.8437  0.5892
   21MOL   C35810398   0.624   1.580   3.553 -0.0701  0.6360 -0.2165
   21MOL   C35910399   0.684   1.443   3.537 -0.0763 -0.6664  0.1114
   21MOL   C36010400   0.779   1.432   3.421 -0.1584  0.1457  0.3927
   21MOL   H36110401   7.698   1.684   3.541  0.7374 -0.9658 -1.5493
   21MOL   H36210402   0.054   1.658   3.434 -1.0602  1.3328 -2.0145
   21MOL   H36310403   0.054   1.731   3.729 -1.1415 -0.4113 -1.0194
   21MOL   H36410404   0.302   1.699   3.822 -2.2162 -2.1906 -1.6257
   21MOL   H36510405   0.273   1.846   3.745  1.4967  1.6584 -1.1137
   21MOL   H36610406   0.512   1.799   3.740  0.4731 -0.4633 -0.4147
   21MOL   H36710407   0.456   1.792   3.573 -0.3218 -0.6343 -1.0431
   21MOL   H36810408   0.529   1.549   3.748 -0.8858 -1.7334  0.3024
   21MOL   H36910409   0.431   1.537   3.602 -0.5129 -0.7737  0.9260
   21MOL   H37010410   0.591   1.611   3.454  1.2503  1.0127 -0.5494
   21MOL   H37110411   0.701   1.654   3.578 -0.3975  0.6428  0.7931
   21MOL   H37210412   0.732   1.413   3.630 -0.3650 -2.1096 -0.1927
   21MOL   H37310413   0.611   1.362   3.533 -2.6362  1.4707  1.9832
   21MOL   H37410414   0.806   1.334   3.381 -2.2566  0.3134 -1.5395
   21MOL   H37510415   0.731   1.463   3.328  0.5375 -0.3472 -0.1362
   21MOL   H37610416   0.861   1.504   3.422  0.6230 -0.7040 -1.0184
   21MOL   C37710417   0.072   1.523   3.696  0.4591  0.3178  0.4727
   21MOL   C37810418   7.708   1.477   3.726 -0.4801  0.2298  0.4464
   21MOL   O37910419   7.647   1.558   3.827  0.5437 -0.3878  0.4440
   21MOL   C38010420   7.505   1.579   3.817  0.0904  0.1811  0.0264
   21MOL   C38110421   7.448   1.669   3.931  0.3737  0.2086 -0.3079
   21MOL   C38210422   7.294   1.667   3.943  0.4342  0.0558 -0.2188
   21MOL   C38310423   7.231   1.748   4.052 -0.5573 -0.4238  0.9137
   21MOL   C38410424   7.202   1.686   4.185  0.1492 -0.3434  0.1888
   21MOL   C38510425   7.323   1.607   4.233  0.7009 -0.7321  0.1966
   21MOL   H38610426   0.127   1.465   3.622  1.3999  3.8349 -1.7083
   21MOL   H38710427   0.125   1.498   3.788 -2.0184  0.1885  1.9313
   21MOL   H38810428   7.650   1.487   3.634  0.3456  1.2117  0.0305
   21MOL   H38910429   7.446   1.488   3.817 -2.1376  1.5943  1.2006
   21MOL   H39010430   7.491   1.629   3.721 -1.2373  1.4066  0.8371
   21MOL   H39110431   7.492   1.769   3.924 -0.5595  0.5617 -1.2963
   21MOL   H39210432   7.496   1.626   4.019  1.1885 -1.7776 -1.6744
   21MOL   H39310433   7.255   1.675   3.841  0.4138 -1.6973 -0.3579
   21MOL   H39410434   7.266   1.563   3.959  1.5484 -0.3412 -0.8246
   21MOL   H39510435   7.294   1.837   4.055 -1.9460  0.6205 -0.0743
   21MOL   H39610436   7.131   1.775   4.017 -0.5305  2.1577  2.6768
   21MOL   H39710437   7.192   1.768   4.256 -1.9107 -1.8160  1.6535
   21MOL   H39810438   7.106   1.635   4.180 -0.4143  0.8600 -3.8774
   21MOL   H39910439   7.415   1.659   4.258  0.9768 -0.4707 -1.3027
   21MOL   H40010440   7.301   1.563   4.330 -0.6949 -2.0627 -0.7010
   21MOL   H40110441   7.342   1.518   4.172 -1.7833 -1.5213  0.5016
   21MOL   C40210442   7.698   1.335   3.771  0.2170 -0.2504 -0.2285
   21MOL   C40310443   7.755   1.222   3.678  0.7929  0.3476 -0.3739
   21MOL   O40410444   7.677   1.238   3.562 -0.3377 -0.3949 -0.2014
   21MOL   C40510445   7.740   1.249   3.440  0.0552  0.2464 -0.0083
   21MOL   C40610446   7.650   1.302   3.329  0.0397 -0.0933 -0.2051
   21MOL   C40710447   7.618   1.449   3.344  0.0125 -0.1100 -0.4539
   21MOL   C40810448   7.490   1.484   3.254 -0.2480 -0.6273  0.0389
   21MOL   C40910449   7.462   1.631   3.277 -0.1280 -0.2105 -0.3318
   21MOL   C41010450   7.323   1.674   3.236  0.5712  0.2212 -0.4721
   21MOL   H41110451   7.593   1.313   3.789  0.4508  0.2702  1.8597
   21MOL   H41210452   7.750   1.330   3.866 -3.6969 -0.6283  1.9893
   21MOL   H41310453   0.085   1.238   3.664  0.6554  0.1164 -1.7366
   21MOL   H41410454   0.004   1.153   3.408  0.1608  0.2133  0.2224
   21MOL   H41510455   0.054   1.309   3.451  0.1265  0.6153 -2.2841
   21MOL   H41610456   7.559   1.245   3.347  0.9491 -1.6902 -0.5291
   21MOL   H41710457   7.686   1.280   3.229 -1.0456  3.0081 -1.3389
   21MOL   H41810458   7.586   1.454   3.448 -0.4833  2.4898 -0.7192
   21MOL   H41910459   7.704   1.511   3.321  0.9305 -1.1124  0.1903
   21MOL   H42010460   7.505   1.461   3.149 -2.2191 -0.1286 -0.3636
   21MOL   H42110461   7.412   1.421   3.296 -1.3106 -1.4435 -3.0332
   21MOL   H42210462   7.483   1.666   3.378  0.1917 -0.2918 -0.3684
   21MOL   H42310463   7.537   1.685   3.220  1.2722 -0.5013  1.1767
   21MOL   H42410464   7.243   1.637   3.301 -0.5985  2.5291 -0.5691
   21MOL   H42510465   7.321   1.782   3.246  0.8861  0.0587  1.5860
   21MOL   H42610466   7.291   1.635   3.139  0.4008  0.8612 -0.6756
   21MOL   C42710467   7.736   1.086   3.731 -0.2706 -1.0067 -1.0156
   21MOL   C42810468   0.059   0.987   3.671  0.5512 -0.2966 -0.2108
   21MOL   O42910469   0.186   1.050   3.661  0.0056  0.6106  0.2680
   21MOL   C43010470   0.275   0.968   3.579  0.4699 -0.8108  0.2538
   21MOL   C43110471   0.404   1.052   3.563 -0.5318 -0.1534  0.6583
   21MOL   C43210472   0.511   0.986   3.471 -0.0082 -0.4076 -0.0988
   21MOL   C43310473   0.653   1.040   3.491 -0.4750  0.3395 -0.0908
   21MOL   C43410474   0.711   0.977   3.617 -0.7020 -0.2285 -0.0015
   21MOL   C43510475   0.861   0.997   3.618 -0.1241  0.2026 -0.1340
   21MOL   H43610476   7.746   1.083   3.840  0.9671  1.0999 -1.0448
   21MOL   H43710477   7.636   1.051   3.708 -0.8250 -0.8918  1.1430
   21MOL   H43810478   0.018   0.949   3.577  0.7309 -2.2685  0.4785
   21MOL   H43910479   0.240   0.941   3.480 -0.7540 -0.1912  0.5035
   21MOL   H44010480   0.304   0.875   3.628  2.8284  0.0828  0.6172
   21MOL   H44110481   0.437   1.073   3.664  1.5858  0.5452 -0.1541
   21MOL   H44210482   0.388   1.149   3.515  3.0409  0.3406  0.3765
   21MOL   H44310483   0.505   0.878   3.485 -2.6269 -0.0862  1.6715
   21MOL   H44410484   0.491   0.998   3.365  1.2583 -1.0118 -0.4103
   21MOL   H44510485   0.720   1.024   3.407  0.9479  2.8462  0.5213
   21MOL   H44610486   0.643   1.148   3.493  0.1934  0.3984  0.8430
   21MOL   H44710487   0.675   1.025   3.708 -0.6952  0.4009 -0.3231
   21MOL   H44810488   0.685   0.873   3.635 -0.5333 -0.3453 -0.4208
   21MOL   H44910489   0.912   0.916   3.565 -0.8114 -0.7898  0.7036
   21MOL   H45010490   0.875   1.093   3.569 -2.1900  0.6474  0.1183
   21MOL   H45110491   0.891   0.989   3.722 -0.0907  0.8802 -0.0944
   21MOL   C45210492   0.067   0.868   3.771  0.4090 -0.0032  0.0276
   21MOL   C45310493   7.713   0.788   3.793 -0.0511 -0.2190 -0.3434
   21MOL   O45410494   7.736   0.683   3.890 -0.2819 -0.1813 -0.1323
   21MOL   C45510495   7.732   0.723   4.021  0.1685 -0.3441 -0.0437
   21MOL   C45610496   7.721   0.600   4.100  0.0629  0.1849  0.0071
   21MOL   C45710497   7.586   0.530   4.098  0.3420  0.7887 -0.5363
   21MOL   C45810498   7.580   0.389   4.150 -0.1495 -0.1603 -0.0186
   21MOL   C45910499   7.665   0.288   4.071 -0.7747  0.2120  0.7406
   21MOL   C46010500   7.635   0.145   4.114  0.2509 -0.8008  0.1000
   21MOL   H46110501   0.147   0.800   3.739 -0.2333  0.9223 -3.8116
   21MOL   H46210502   0.099   0.910   3.866  0.7915  2.4651 -1.1657
   21MOL   H46310503   7.647   0.863   3.835  0.3717  0.7022 -1.3216
   21MOL   H46410504   7.642   0.782   4.033 -0.8190 -2.3012  2.4737
   21MOL   H46510505   0.042   0.781   4.052 -0.8831  0.5419  1.2547
   21MOL   H46610506   7.750   0.619   4.204 -0.4499  1.8146 -0.1327
   21MOL   H46710507   0.011   0.523   4.061 -3.2247 -2.5722 -0.4355
   21MOL   H46810508   7.505   0.588   4.143  0.5985  1.1236 -0.5083
   21MOL   H46910509   7.543   0.514   3.999 -0.1600  2.4099 -0.5909
   21MOL   H47010510   7.614   0.406   4.252 -0.7276  1.6362 -0.1085
   21MOL   H47110511   7.478   0.360   4.171 -0.2093  1.1878  1.6692
   21MOL   H47210512   7.644   0.290   3.964  0.1577 -3.0755  0.4625
   21MOL   H47310513   7.772   0.307   4.079 -0.5094 -1.3023  0.9419
   21MOL   H47410514   7.667   0.145   4.219  3.0308 -0.8196 -0.7138
   21MOL   H47510515   7.528   0.129   4.103  0.0465  1.3180 -1.1950
   21MOL   H47610516   7.692   0.069   4.061 -0.0245 -1.4650  0.7432
   21MOL   C47710517   7.655   0.722   3.669  0.0279  0.0846 -0.2049
   21MOL   C47810518   7.516   0.665   3.690  0.2453 -0.1221  0.6007
   21MOL   O47910519   7.464   0.613   3.562  0.0953 -0.0320 -0.2191
   21MOL   C48010520   7.323   0.605   3.569  0.6958 -0.0088 -0.1070
   21MOL   C48110521   7.253   0.573   3.438 -0.1409  0.6977  0.5069
   21MOL   C48210522   7.096   0.590   3.446 -0.1969  0.2462 -1.2428
   21MOL   C48310523   7.018   0.578   3.316 -0.5306 -0.4346  0.4085
   21MOL   C48410524   6.867   0.584   3.327  0.2642  0.4570  0.5516
   21MOL   C48510525   6.785   0.595   3.191 -1.0583 -0.8842 -0.3936
   21MOL   H48610526   7.656   0.790   3.584  1.6492  0.5055  0.1241
   21MOL   H48710527   7.727   0.648   3.633  1.4374 -0.7058  3.9569
   21MOL   H48810528   7.519   0.583   3.761 -1.1795 -0.9462 -0.2632
   21MOL   H48910529   7.298   0.706   3.603  2.0043  0.1917  0.2685
   21MOL   H49010530   7.288   0.535   3.645 -0.0258 -2.0666 -2.2765
   21MOL   H49110531   7.270   0.471   3.403  1.1397  1.5312 -1.4117
   21MOL   H49210532   7.286   0.650   3.368  1.0135 -1.4540 -1.3950
   21MOL   H49310533   7.072   0.517   3.523  1.2664  0.7008 -0.3279
   21MOL   H49410534   7.064   0.679   3.499  0.8138 -1.5305  2.4939
   21MOL   H49510535   7.054   0.649   3.242 -1.6515  0.9398  1.1777
   21MOL   H49610536   7.047   0.481   3.275 -0.2146 -0.1145 -0.1263
   21MOL   H49710537   6.820   0.504   3.385  0.1744  1.4467  1.8477
   21MOL   H49810538   6.837   0.672   3.383 -1.9065  0.3004 -0.2938
   21MOL   H49910539   6.820   0.518   3.122  1.3151 -1.3314  1.2350
   21MOL   H50010540   6.677   0.585   3.196 -1.2048 -0.6290 -2.7575
   21MOL   H50110541   6.794   0.697   3.156  0.3926 -1.3094 -1.3263
   21MOL   H50210542   7.470   0.749   3.743 -1.6439 -0.5611 -0.3013
   22MOL     C110543   5.782   7.384   6.042  0.5202  0.3450 -0.1038
   22MOL     C210544   5.688   7.504   6.033 -0.2742 -0.3828  0.4302
   22MOL     O310545   5.757   7.621   6.084 -0.3095 -0.1944  1.0762
   22MOL     C410546   5.816   7.700   5.987  0.2185  0.0548  0.0004
   22MOL     C510547   5.886   0.043   6.051  0.2239 -0.5268  0.2104
   22MOL     C610548   5.936   0.157   5.949  0.1526  0.1989 -0.2533
   22MOL     C710549   6.079   0.128   5.902  0.3826  0.4181  0.4154
   22MOL     C810550   6.133   0.250   5.831 -0.0856 -0.1160 -0.0041
   22MOL     C910551   6.278   0.248   5.787  0.0319 -0.0418 -0.1186
   22MOL    H1010552   5.738   7.288   6.017  1.3598  0.1772 -0.9799
   22MOL    H1110553   5.859   7.409   5.969  1.1199  1.9130  1.0364
   22MOL    H1210554   5.657   7.521   5.930 -0.6555 -0.0142  0.6059
   22MOL    H1310555   5.744   7.734   5.913  1.7136  0.6683 -1.2078
   22MOL    H1410556   5.896   7.645   5.936 -0.2157 -1.0412  0.4885
   22MOL    H1510557   5.973   0.013   6.110  0.6414  1.4443  0.6265
   22MOL    H1610558   5.824   0.098   6.121  0.7699  0.0490  0.2449
   22MOL    H1710559   5.861   0.171   5.872  1.7044 -1.5983 -2.1474
   22MOL    H1810560   5.931   0.253   6.001 -0.7716 -0.3514  0.6955
   22MOL    H1910561   6.136   0.111   5.993 -0.4714 -2.4110  0.4561
   22MOL    H2010562   6.089   0.034   5.846  0.6835 -0.1803  1.4645
   22MOL    H2110563   6.105   0.333   5.896 -0.1486 -1.5190  1.8072
   22MOL    H2210564   6.072   0.259   5.742  0.3688  0.6535 -0.2388
   22MOL    H2310565   6.347   0.225   5.868 -0.3938 -0.6681  0.0706
   22MOL    H2410566   6.293   0.175   5.708  1.2997  1.4877 -1.3348
   22MOL    H2510567   6.319   0.337   5.738 -1.3691  0.3142 -0.6723
   22MOL    H2610568   5.844   7.368   6.131  1.1691  1.4308 -0.3509
   22MOL    C2710569   5.555   7.491   6.104 -0.3197  0.0245 -0.4234
   22MOL    C2810570   5.462   7.613   6.087  0.2571  0.2550  0.0508
   22MOL    O2910571   5.338   7.552   6.099  0.2781 -0.2075 -0.2973
   22MOL    C3010572   5.274   7.537   5.976 -0.3649 -0.5902  0.4223
   22MOL    C3110573   5.142   7.468   5.995 -0.6547 -0.4077  0.0151
   22MOL    C3210574   5.039   7.537   6.091 -0.2168  0.0272 -0.8037
   22MOL    C3310575   4.915   7.453   6.129 -0.0735 -0.2262  0.3584
   22MOL    C3410576   4.840   7.499   6.255  0.3722  0.0122  0.2099
   22MOL    C3510577   4.742   7.393   6.301 -0.5615 -0.1292 -0.0892
   22MOL    H3610578   5.502   7.405   6.063  0.7863 -0.9671  0.1983
   22MOL    H3710579   5.574   7.482   6.211  2.6669 -0.0933 -0.9124
   22MOL    H3810580   5.486   7.662   5.993  0.0867  3.0912  1.4401
   22MOL    H3910581   5.331   7.469   5.912  0.1672  1.7927 -1.7153
   22MOL    H4010582   5.259   7.630   5.921 -2.3378 -0.1371  1.6825
   22MOL    H4110583   5.168   7.367   6.025  0.7268  0.3601  1.4605
   22MOL    H4210584   5.099   7.468   5.894 -1.4022 -1.1104  0.3262
   22MOL    H4310585   5.088   7.554   6.187 -1.1258 -0.0052 -0.3316
   22MOL    H4410586   5.015   7.639   6.059  2.6704  1.2627  0.8014
   22MOL    H4510587   4.847   7.440   6.045  1.3130 -4.2634 -0.2912
   22MOL    H4610588   4.954   7.352   6.145 -0.2198 -0.4012 -0.3607
   22MOL    H4710589   4.919   7.531   6.323  2.1383  0.2073 -1.8816
   22MOL    H4810590   4.789   7.594   6.235 -2.6220 -1.9512 -2.0129
   22MOL    H4910591   4.672   7.434   6.375  0.9854 -1.1307  1.9922
   22MOL    H5010592   4.683   7.353   6.219  0.4750  0.3880 -1.0941
   22MOL    H5110593   4.793   7.307   6.345  1.5020 -0.0081 -2.2038
   22MOL    C5210594   5.471   7.717   6.203  0.2295  0.2850 -0.3883
   22MOL    C5310595   5.390   0.071   6.192 -0.1433  0.5178 -0.1269
   22MOL    O5410596   5.448   0.155   6.097  0.6327 -0.0519 -0.4636
   22MOL    C5510597   5.539   0.244   6.154  0.3521 -0.1910  0.3499
   22MOL    C5610598   5.599   0.308   6.036 -0.1991 -0.1210 -0.3396
   22MOL    C5710599   5.681   0.434   6.074  0.4961  0.2580  0.2572
   22MOL    C5810600   5.760   0.482   5.951  0.6287  0.3955  0.1476
   22MOL    C5910601   5.876   0.580   5.973 -0.0480 -0.0980 -0.4895
   22MOL    C6010602   5.948   0.607   5.836 -0.7595  0.1983  0.4071
   22MOL    H6110603   5.571   7.754   6.223  1.0585 -1.2153 -1.6208
   22MOL    H6210604   5.449   7.656   6.291 -1.2341  0.4372 -0.6368
   22MOL    H6310605   5.386   0.100   6.297 -2.0738 -3.0087  0.8490
   22MOL    H6410606   5.614   0.197   6.217  2.5668  1.6853 -0.8305
   22MOL    H6510607   5.491   0.318   6.219  0.8816 -0.4311  1.0109
   22MOL    H6610608   5.517   0.338   5.971 -0.3722 -0.8946 -0.4785
   22MOL    H6710609   5.661   0.245   5.972  1.8674  2.7446 -1.2713
   22MOL    H6810610   5.622   0.507   6.128  0.5294 -1.4933  2.7524
   22MOL    H6910611   5.750   0.395   6.148  1.3552  1.0534 -0.1225
   22MOL    H7010612   5.799   0.401   5.888  2.2650  0.8042  0.6206
   22MOL    H7110613   5.683   0.541   5.902 -0.2592 -0.0139  1.0317
   22MOL    H7210614   5.844   0.675   6.015  2.3626  0.3624  0.3878
   22MOL    H7310615   5.953   0.539   6.038 -0.6631  2.9336  2.2583
   22MOL    H7410616   5.976   0.510   5.797  2.3288  2.1468 -2.4321
   22MOL    H7510617   5.874   0.662   5.778  0.2458  2.2737  1.0252
   22MOL    H7610618   6.036   0.670   5.848  0.6867 -1.7449  0.1142
   22MOL    C7710619   5.242   0.056   6.157 -0.5787  0.6329 -0.1419
   22MOL    C7810620   5.155   0.180   6.172 -0.7818 -0.7327 -0.2616
   22MOL    O7910621   5.134   0.199   6.313 -0.4410 -0.3866 -0.4887
   22MOL    C8010622   5.186   0.323   6.367 -0.3565 -0.2334 -0.1728
   22MOL    C8110623   5.126   0.343   6.509  0.1212 -0.5251 -0.4084
   22MOL    C8210624   5.204   0.261   6.610  0.1549  0.2394 -0.1247
   22MOL    C8310625   5.193   0.301   6.755 -0.2133 -0.6793  0.0172
   22MOL    C8410626   5.292   0.244   6.847  0.4850 -0.5515 -0.1310
   22MOL    C8510627   5.260   0.291   6.988  0.4011 -0.0460 -0.1842
   22MOL    H8610628   5.202   7.758   6.224 -0.8350  0.5763 -0.3613
   22MOL    H8710629   5.236   0.018   6.056  0.2630 -0.5809  0.2626
   22MOL    H8810630   5.200   0.262   6.117 -0.5388 -1.2308 -0.8144
   22MOL    H8910631   5.157   0.406   6.303  1.0707 -0.1498 -0.7507
   22MOL    H9010632   5.295   0.316   6.358 -0.3603 -1.4172  0.5667
   22MOL    H9110633   5.020   0.319   6.502  0.4544 -2.6439  1.2828
   22MOL    H9210634   5.147   0.447   6.531  3.3540 -1.4549  1.2182
   22MOL    H9310635   5.191   0.156   6.585 -1.6170  0.5636 -0.5986
   22MOL    H9410636   5.310   0.275   6.589  0.4123  1.5169  1.8863
   22MOL    H9510637   5.185   0.409   6.767  1.0849 -0.5001 -0.6861
   22MOL    H9610638   5.096   0.266   6.790 -0.5476  0.9930  0.8149
   22MOL    H9710639   5.303   0.136   6.850 -0.9479 -0.6724  1.8306
   22MOL    H9810640   5.380   0.293   6.805 -0.2805  0.6203 -0.3808
   22MOL    H9910641   5.171   0.238   7.022 -1.5710  2.9121 -0.5569
   22MOL   H10010642   5.338   0.283   7.064  0.7796 -0.8214 -0.6618
   22MOL   H10110643   5.208   0.387   6.987 -1.3100 -0.9700 -1.6315
   22MOL   C10210644   5.016   0.171   6.095 -0.1568 -0.0932 -0.2610
   22MOL   C10310645   4.944   0.309   6.084 -0.2341 -0.5952  0.6064
   22MOL   O10410646   4.990   0.375   5.963 -0.2165  0.1759  0.0186
   22MOL   C10510647   5.021   0.513   5.986 -0.1279 -0.0537  0.3267
   22MOL   C10610648   4.990   0.583   5.852  0.1127 -0.0608  0.7280
   22MOL   C10710649   4.846   0.562   5.805  0.5712 -0.5553 -0.1194
   22MOL   C10810650   4.733   0.641   5.875  0.3313 -0.5179 -0.5903
   22MOL   C10910651   4.593   0.603   5.826  0.5339 -0.0324 -0.8999
   22MOL   C11010652   4.474   0.673   5.908  0.0310 -0.4273  0.5261
   22MOL   H11110653   5.035   0.110   6.006 -0.0936 -0.3837 -0.0498
   22MOL   H11210654   4.953   0.108   6.158 -0.8027  0.2095 -0.5989
   22MOL   H11310655   4.960   0.367   6.174  0.0006 -1.2376  0.9796
   22MOL   H11410656   5.129   0.519   5.999  0.2044 -0.5374 -1.9066
   22MOL   H11510657   4.969   0.555   6.072 -1.2313 -0.4240 -0.1494
   22MOL   H11610658   5.060   0.554   5.774  0.8003 -0.4342  1.4725
   22MOL   H11710659   5.027   0.685   5.838  0.0359  0.2121  2.4007
   22MOL   H11810660   4.840   0.590   5.699 -0.2713 -0.1574  0.0246
   22MOL   H11910661   4.825   0.456   5.809 -0.0388 -0.4114  0.4972
   22MOL   H12010662   4.738   0.605   5.978 -0.3294  1.9312  0.3349
   22MOL   H12110663   4.762   0.746   5.882 -0.5537 -0.3446  0.5986
   22MOL   H12210664   4.583   0.629   5.721 -0.1247 -1.0274 -1.0839
   22MOL   H12310665   4.589   0.495   5.831 -0.7676 -0.0010 -1.1169
   22MOL   H12410666   4.481   0.779   5.932 -3.8743  0.6996 -2.7696
   22MOL   H12510667   4.379   0.663   5.855  1.3116  0.4317 -1.9874
   22MOL   H12610668   4.453   0.615   5.998  0.1096  0.2840  1.0036
   22MOL   C12710669   4.788   0.299   6.060  0.5426 -0.4784 -0.1781
   22MOL   C12810670   4.711   0.294   6.193 -0.2050 -0.4318  0.0351
   22MOL   O12910671   4.579   0.245   6.188  0.5021  0.3296  1.1732
   22MOL   C13010672   4.575   0.104   6.179  0.0368 -0.7235 -0.4354
   22MOL   C13110673   4.460   0.058   6.267 -0.3024  0.3399 -0.4254
   22MOL   C13210674   4.446   7.683   6.239  0.0234  0.1342  0.0391
   22MOL   C13310675   4.335   7.620   6.322  0.2752 -0.3601 -0.0555
   22MOL   C13410676   4.196   7.658   6.284  0.2158 -0.4646  0.0663
   22MOL   C13510677   4.108   7.583   6.390 -0.2690 -0.3413 -0.6282
   22MOL   H13610678   4.751   0.382   5.999  0.7299 -1.3908 -1.5475
   22MOL   H13710679   4.758   0.214   5.999 -3.2340  2.0449 -1.9818
   22MOL   H13810680   4.761   0.235   6.269 -1.7371 -0.7795  0.7872
   22MOL   H13910681   4.658   0.052   6.225 -0.3250 -1.1699 -0.2879
   22MOL   H14010682   4.559   0.064   6.079 -2.2507 -1.9991  0.4056
   22MOL   H14110683   4.364   0.106   6.246 -1.3466 -0.5037  2.1704
   22MOL   H14210684   4.494   0.078   6.368  3.0097  0.2085 -1.4666
   22MOL   H14310685   4.425   7.663   6.134  0.4591 -4.0046  0.6328
   22MOL   H14410686   4.541   7.633   6.259  0.5354  1.0936  0.0170
   22MOL   H14510687   4.339   7.512   6.310 -1.3035 -0.3787 -0.5938
   22MOL   H14610688   4.354   7.640   6.427 -1.0648  0.7822 -0.0016
   22MOL   H14710689   4.173   7.765   6.288  0.1919 -0.5246  1.4487
   22MOL   H14810690   4.179   7.619   6.183 -1.6050 -0.5501  0.3868
   22MOL   H14910691   4.107   7.475   6.375  1.8625 -0.4415 -0.1782
   22MOL   H15010692   4.145   7.609   6.489 -0.0822 -2.0518 -0.2393
   22MOL   H15110693   4.003   7.613   6.395 -1.0410 -2.6176 -2.1637
   22MOL   C15210694   4.696   0.445   6.227  0.0389  0.1364  0.7138
   22MOL   C15310695   4.615   0.476   6.354  0.3156  0.2226  0.3516
   22MOL   O15410696   4.701   0.467   6.460  0.6456  0.3257 -0.6253
   22MOL   C15510697   4.627   0.436   6.579 -0.4955  0.4241 -0.5389
   22MOL   C15610698   4.707   0.451   6.709  0.3487  0.6298  0.2000
   22MOL   C15710699   4.828   0.547   6.693 -0.1797 -0.2723  0.5935
   22MOL   C15810700   4.913   0.558   6.823 -0.7705 -0.0186  0.2360
   22MOL   C15910701   5.039   0.648   6.824  0.4695  1.0321  0.7444
   22MOL   C16010702   5.094   0.689   6.961 -0.0077 -0.0173  0.1252
   22MOL   H16110703   4.795   0.491   6.228  0.9793 -1.7839 -0.8657
   22MOL   H16210704   4.657   0.507   6.146  0.7347  0.4729  0.6307
   22MOL   H16310705   4.535   0.401   6.353  0.3467  0.1866  0.5580
   22MOL   H16410706   4.578   0.339   6.576 -0.1010  0.2384 -1.1964
   22MOL   H16510707   4.542   0.503   6.590  0.2062  0.9734  1.7852
   22MOL   H16610708   4.752   0.354   6.730  0.4091  0.8524  1.1569
   22MOL   H16710709   4.639   0.490   6.785 -1.5493 -1.3251 -0.4672
   22MOL   H16810710   4.895   0.509   6.615 -1.8655 -0.2596 -0.9050
   22MOL   H16910711   4.793   0.645   6.662 -0.6516 -0.8308 -0.6887
   22MOL   H17010712   4.845   0.601   6.897 -0.8766 -0.0724  0.1698
   22MOL   H17110713   4.941   0.456   6.850 -0.3153  0.8997  3.4113
   22MOL   H17210714   5.119   0.604   6.765 -1.7633 -0.6641 -1.1099
   22MOL   H17310715   5.012   0.744   6.780 -0.4982 -0.2653 -1.5363
   22MOL   H17410716   5.176   0.760   6.947  1.1662 -1.3944  0.0091
   22MOL   H17510717   5.016   0.737   7.021 -0.3106 -0.1896 -0.1287
   22MOL   H17610718   5.135   0.604   7.015  0.3586  0.5097  0.6854
   22MOL   C17710719   4.554   0.611   6.342 -0.4473  0.3409 -0.3898
   22MOL   C17810720   4.401   0.607   6.362 -0.0314 -0.1824 -0.4306
   22MOL   O17910721   4.363   0.717   6.445  0.2431 -0.1970  0.0968
   22MOL   C18010722   4.381   0.710   6.582  0.5229  0.5872 -0.7591
   22MOL   C18110723   4.294   0.825   6.636 -0.1499  0.0268 -0.2847
   22MOL   C18210724   4.364   0.960   6.606  0.0014 -0.1215  0.5780
   22MOL   C18310725   4.304   1.085   6.678  0.7371 -0.0812  0.0783
   22MOL   C18410726   4.153   1.103   6.654 -0.0595 -0.1442  0.3111
   22MOL   C18510727   4.100   1.225   6.728  0.6096 -0.6839  0.2233
   22MOL   H18610728   4.594   0.667   6.427  0.5536  2.1433 -2.0068
   22MOL   H18710729   4.579   0.660   6.248  2.7388  2.2227  1.3529
   22MOL   H18810730   4.376   0.513   6.411  1.5773  0.5529  1.8779
   22MOL   H18910731   4.485   0.712   6.612  0.2169  0.1389  0.3724
   22MOL   H19010732   4.340   0.619   6.627  0.1547  0.6070 -1.0473
   22MOL   H19110733   4.281   0.805   6.742  0.7867  0.5336 -0.0676
   22MOL   H19210734   4.193   0.829   6.597 -0.0518  0.7878 -0.4627
   22MOL   H19310735   4.466   0.945   6.640  0.4484 -1.0847 -1.1037
   22MOL   H19410736   4.373   0.972   6.498 -0.2796 -0.1245  0.5547
   22MOL   H19510737   4.321   1.104   6.784  2.3239 -1.9592  0.1973
   22MOL   H19610738   4.354   1.170   6.632  0.8643 -0.3229 -0.2332
   22MOL   H19710739   4.129   1.099   6.547  0.3175 -4.0086  0.2905
   22MOL   H19810740   4.086   1.028   6.695  0.9636 -2.3559 -1.9200
   22MOL   H19910741   4.152   1.319   6.709  0.7961 -0.4318  1.8685
   22MOL   H20010742   3.994   1.233   6.705  0.4211 -3.0697  0.1502
   22MOL   H20110743   4.101   1.212   6.836  0.2670  0.6437  0.3953
   22MOL   C20210744   4.327   0.617   6.225 -0.2089  0.4435  0.2334
   22MOL   C20310745   4.172   0.616   6.237  0.1510 -0.1136 -0.7751
   22MOL   O20410746   4.128   0.540   6.125  0.1528  0.4839  0.3229
   22MOL   C20510747   4.125   0.399   6.133 -0.0522 -0.1701  0.1569
   22MOL   C20610748   4.078   0.320   6.002  0.1756  0.1716 -0.3732
   22MOL   C20710749   4.164   0.338   5.869  0.5480 -0.1098 -0.1203
   22MOL   C20810750   4.299   0.268   5.878  0.3975 -0.6917 -0.5167
   22MOL   C20910751   4.382   0.297   5.755 -0.4838  0.7824  0.5552
   22MOL   C21010752   4.521   0.231   5.750 -0.4185 -0.9986  0.0071
   22MOL   H21110753   4.360   0.707   6.172 -1.9585  0.2302 -1.2636
   22MOL   H21210754   4.354   0.530   6.165 -2.0344 -1.9564  2.8337
   22MOL   H21310755   4.135   0.558   6.322 -1.8411  2.3061  0.0943
   22MOL   H21410756   4.046   0.373   6.203 -0.3612  0.9676  0.2282
   22MOL   H21510757   4.221   0.360   6.168  0.2584 -2.3664 -2.8692
   22MOL   H21610758   3.983   0.368   5.982  0.5198  1.2950  0.5942
   22MOL   H21710759   4.049   0.216   6.017  0.4326  0.2341  0.6430
   22MOL   H21810760   4.094   0.292   5.800  1.6528 -3.9385  1.1822
   22MOL   H21910761   4.166   0.444   5.846 -1.9309  0.2141  0.9826
   22MOL   H22010762   4.346   0.307   5.969 -0.1691  0.1447 -0.5802
   22MOL   H22110763   4.283   0.163   5.901 -0.9216 -0.0566  1.6776
   22MOL   H22210764   4.325   0.265   5.668 -0.0182 -0.7477  0.8001
   22MOL   H22310765   4.393   0.405   5.752 -0.3648  0.7984  1.3290
   22MOL   H22410766   4.563   0.224   5.850  0.0614  0.4161 -0.0902
   22MOL   H22510767   4.511   0.128   5.714 -0.7312 -1.0623  0.2783
   22MOL   H22610768   4.586   0.275   5.674 -1.4545 -1.6943 -1.3151
   22MOL   C22710769   4.107   0.756   6.243 -0.2978  0.7414 -0.7149
   22MOL   C22810770   3.953   0.731   6.267  0.4142 -0.5863 -0.4012
   22MOL   O22910771   3.902   0.861   6.278 -0.2031  0.0126  0.2683
   22MOL   C23010772   3.923   0.927   6.404  0.3487  0.4013 -0.0859
   22MOL   C23110773   3.858   1.071   6.407 -0.3225  0.8301 -0.1798
   22MOL   C23210774   3.705   1.054   6.439  0.0462 -0.4003  0.2810
   22MOL   C23310775   3.628   1.183   6.443 -0.6856 -0.1412 -0.2297
   22MOL   C23410776   3.482   1.174   6.510 -0.2652  0.5659 -0.2569
   22MOL   C23510777   3.385   1.102   6.434  0.1076  0.5860  0.2456
   22MOL   H23610778   4.154   0.791   6.335 -1.0009 -3.1660  1.2687
   22MOL   H23710779   4.139   0.814   6.157  0.6259  1.3460  0.0257
   22MOL   H23810780   3.917   0.685   6.359 -1.3020 -1.5957 -1.5756
   22MOL   H23910781   4.031   0.927   6.421  0.6282 -0.5390 -1.7658
   22MOL   H24010782   3.876   0.860   6.476 -2.2570  1.9843 -0.2329
   22MOL   H24110783   3.879   1.137   6.323  1.4574  0.5500  0.0333
   22MOL   H24210784   3.897   1.128   6.491  1.1310 -1.2030  0.5630
   22MOL   H24310785   3.663   0.988   6.363  0.4629 -0.6989  0.3073
   22MOL   H24410786   3.691   0.998   6.531  0.9804 -0.5774  0.3214
   22MOL   H24510787   3.693   1.258   6.488  1.6072 -2.2240  0.0708
   22MOL   H24610788   3.617   1.223   6.342  0.5287  1.3527  0.2042
   22MOL   H24710789   3.499   1.118   6.602  0.6785  0.7891 -0.2859
   22MOL   H24810790   3.448   1.275   6.532 -1.1924  0.6676 -2.0348
   22MOL   H24910791   3.383   1.130   6.328  0.2919 -2.3980 -0.5720
   22MOL   H25010792   3.389   0.993   6.439  1.0766  0.5201 -1.6384
   22MOL   H25110793   3.289   1.132   6.476 -0.0697  0.5688 -0.1449
   22MOL   C25210794   3.876   0.676   6.148  0.1300  0.6515  0.0074
   22MOL   C25310795   3.717   0.683   6.166 -0.5353 -0.2768 -0.6469
   22MOL   O25410796   3.680   0.628   6.289  0.6369  0.4636  0.1620
   22MOL   C25510797   3.554   0.685   6.342 -0.6521  0.4528  0.4339
   22MOL   C25610798   3.529   0.647   6.489  0.4571  0.0880 -0.2367
   22MOL   C25710799   3.460   0.505   6.505 -0.5877 -1.1429 -0.0024
   22MOL   C25810800   3.425   0.470   6.648 -0.1083  0.4988 -0.1941
   22MOL   C25910801   3.537   0.465   6.744  0.3620 -0.6798  0.4660
   22MOL   C26010802   3.490   0.420   6.882  0.0368  0.1619  0.0118
   22MOL   H26110803   3.909   0.744   6.069  1.0272 -0.7140 -0.8187
   22MOL   H26210804   3.907   0.576   6.117 -0.3721  0.5769 -0.2500
   22MOL   H26310805   3.702   0.791   6.159 -0.6773 -0.2146  0.5385
   22MOL   H26410806   3.469   0.648   6.284  0.6295  0.6654 -1.5995
   22MOL   H26510807   3.565   0.791   6.322  1.8664  0.4258  1.4447
   22MOL   H26610808   3.458   0.724   6.521  1.2021 -0.0048  1.7156
   22MOL   H26710809   3.627   0.663   6.533  1.0165 -0.4182 -1.3013
   22MOL   H26810810   3.368   0.510   6.448 -0.7726  0.0622  0.3814
   22MOL   H26910811   3.534   0.432   6.471  0.3515  0.9029 -2.5415
   22MOL   H27010812   3.340   0.528   6.683 -0.4264 -1.1481  1.8660
   22MOL   H27110813   3.386   0.368   6.648 -1.4977  1.0090  1.8599
   22MOL   H27210814   3.610   0.393   6.708  2.1576  1.6417 -0.7391
   22MOL   H27310815   3.598   0.555   6.746  0.9683 -1.0539 -1.0430
   22MOL   H27410816   3.574   0.381   6.939 -0.2094 -0.4309 -0.0173
   22MOL   H27510817   3.438   0.505   6.927 -1.4282  0.6209 -2.4885
   22MOL   H27610818   3.412   0.344   6.870 -0.4399  0.8761 -1.5880
   22MOL   C27710819   3.637   0.610   6.048 -0.2102 -0.3001 -0.5655
   22MOL   C27810820   3.660   0.664   5.905  0.4434  0.0361  0.5958
   22MOL   O27910821   3.754   0.590   5.832  0.2967  0.7627 -0.0530
   22MOL   C28010822   3.846   0.650   5.749  0.6032 -0.4829 -0.7844
   22MOL   C28110823   3.899   0.543   5.653  0.1702  0.5957 -0.3133
   22MOL   C28210824   4.010   0.603   5.558 -0.3899 -0.2565 -0.1290
   22MOL   C28310825   4.151   0.560   5.580  0.4367 -0.1341 -0.5831
   22MOL   C28410826   4.245   0.615   5.470  0.0944  0.4152  0.2518
   22MOL   C28510827   4.391   0.564   5.465  0.2204 -0.7714 -0.2833
   22MOL   H28610828   3.665   0.505   6.058  3.5555  0.5940 -0.9369
   22MOL   H28710829   3.535   0.612   6.086  0.7674 -0.2557  2.1120
   22MOL   H28810830   3.691   0.768   5.909  1.5351 -0.1312 -2.1005
   22MOL   H28910831   3.921   0.693   5.816 -0.4785  0.5470 -0.2119
   22MOL   H29010832   3.803   0.731   5.690  0.1656 -0.1860 -0.0704
   22MOL   H29110833   3.814   0.497   5.603 -0.2180 -1.1140  1.8737
   22MOL   H29210834   3.928   0.457   5.713 -1.3352 -0.6909 -1.4146
   22MOL   H29310835   3.963   0.593   5.460 -0.8617  3.7949 -0.4248
   22MOL   H29410836   4.010   0.712   5.561 -1.5432 -0.2759  1.1088
   22MOL   H29510837   4.192   0.590   5.676  0.3421 -3.0638  0.4149
   22MOL   H29610838   4.148   0.451   5.586 -0.9435 -0.0043  1.7123
   22MOL   H29710839   4.197   0.584   5.377  1.9548 -1.4507 -0.1435
   22MOL   H29810840   4.245   0.723   5.482  2.5809  0.4889 -0.0513
   22MOL   H29910841   4.393   0.455   5.466 -2.7575 -0.8664  2.0925
   22MOL   H30010842   4.441   0.602   5.376 -0.6850 -2.4822 -1.5432
   22MOL   H30110843   4.436   0.600   5.558 -1.4743 -0.7438  0.5384
   22MOL   C30210844   3.520   0.643   5.827 -0.5144 -0.1966 -0.2205
   22MOL   C30310845   3.415   0.762   5.839 -0.5014 -0.0284  0.1663
   22MOL   O30410846   3.348   0.757   5.969 -0.1633 -0.2731  0.6578
   22MOL   C30510847   3.283   0.883   5.996 -0.3190  0.8824  0.1158
   22MOL   C30610848   3.245   0.893   6.143  0.2502  0.0020  0.5513
   22MOL   C30710849   3.166   0.774   6.202  0.2413  0.0426 -0.5167
   22MOL   C30810850   3.138   0.780   6.353 -0.8128 -0.7867  0.7505
   22MOL   C30910851   3.056   0.657   6.415  0.5151  0.2929 -0.1137
   22MOL   C31010852   3.054   0.681   6.573  0.0260 -0.3799  0.8512
   22MOL   H31110853   3.537   0.638   5.720 -0.7862 -2.6969 -0.1877
   22MOL   H31210854   3.469   0.548   5.847  1.0320 -0.5779  2.0832
   22MOL   H31310855   3.471   0.855   5.830 -1.6617  0.5880 -0.7047
   22MOL   H31410856   3.190   0.891   5.940 -0.0379  2.4414 -0.1325
   22MOL   H31510857   3.337   0.976   5.977  0.6568  0.4879  0.9006
   22MOL   H31610858   3.182   0.980   6.164  3.8476  2.7250  0.4403
   22MOL   H31710859   3.328   0.913   6.209 -1.8591  2.3168  2.6077
   22MOL   H31810860   3.070   0.773   6.150 -0.6223 -0.0219  1.0643
   22MOL   H31910861   3.221   0.682   6.183  0.2903 -0.3321  1.3863
   22MOL   H32010862   3.238   0.774   6.397 -0.0057 -0.7627 -1.0357
   22MOL   H32110863   3.100   0.876   6.388 -1.8850 -0.8257 -0.2634
   22MOL   H32210864   2.953   0.663   6.379  1.0319  0.5128 -1.6165
   22MOL   H32310865   3.093   0.560   6.382  1.7109  0.6793  0.0438
   22MOL   H32410866   3.155   0.668   6.612  1.0945  0.2298 -1.6069
   22MOL   H32510867   3.015   0.778   6.605 -0.9388  0.4394 -2.6146
   22MOL   H32610868   2.985   0.616   6.627  0.5819 -1.5700  0.1407
   22MOL   C32710869   3.309   0.759   5.727 -0.2056 -0.2615 -0.5715
   22MOL   C32810870   3.356   0.823   5.593  0.1724  0.5390  0.0917
   22MOL   O32910871   3.270   0.765   5.489  0.2444  0.0218 -0.4181
   22MOL   C33010872   3.310   0.645   5.435  0.2927 -0.7390 -0.2994
   22MOL   C33110873   3.196   0.583   5.351  0.6661 -0.0476 -0.5240
   22MOL   C33210874   3.065   0.574   5.432 -0.4234 -0.5467 -0.7120
   22MOL   C33310875   2.950   0.523   5.350  0.0960  0.6059  0.1924
   22MOL   C33410876   2.822   0.527   5.434 -0.5548  0.3558 -0.1889
   22MOL   C33510877   2.704   0.498   5.351 -0.2712 -0.4844 -0.1406
   22MOL   H33610878   3.214   0.801   5.759 -1.1491 -1.3731 -1.8477
   22MOL   H33710879   3.281   0.655   5.709  2.0238 -1.0185  0.1454
   22MOL   H33810880   3.457   0.787   5.573 -0.1411  0.0985 -0.7260
   22MOL   H33910881   3.331   0.576   5.517 -0.6105  0.8125  1.2464
   22MOL   H34010882   3.401   0.652   5.375 -0.2562 -3.9905 -1.6570
   22MOL   H34110883   3.225   0.485   5.314  0.0744 -0.6074  0.4885
   22MOL   H34210884   3.183   0.645   5.262  1.4073  1.1999  0.2179
   22MOL   H34310885   3.084   0.519   5.525  1.4573  1.3088  0.0507
   22MOL   H34410886   3.046   0.676   5.463 -0.2354 -0.8183  0.3098
   22MOL   H34510887   2.935   0.590   5.266  2.0870  3.2693  1.8516
   22MOL   H34610888   2.970   0.426   5.306 -1.1642 -0.1618  1.2783
   22MOL   H34710889   2.839   0.472   5.527 -1.2228  0.1777 -0.1656
   22MOL   H34810890   2.808   0.628   5.473  0.4449 -0.2109  1.7262
   22MOL   H34910891   2.696   0.565   5.266 -1.4617  1.3423  1.3702
   22MOL   H35010892   2.719   0.399   5.308 -1.9511  0.1932 -2.3648
   22MOL   H35110893   2.618   0.497   5.419 -0.4201  0.9368 -0.2962
   22MOL   C35210894   3.353   0.973   5.581  0.2894  0.1864  0.1905
   22MOL   C35310895   3.489   1.027   5.524  0.3170  0.5936 -0.4181
   22MOL   O35410896   3.574   1.027   5.632 -0.5421 -0.9480  0.1290
   22MOL   C35510897   3.707   1.047   5.607 -0.3756 -0.5642  0.4508
   22MOL   C35610898   3.794   1.046   5.734  0.4945  0.3413 -0.2968
   22MOL   C35710899   3.951   1.048   5.709  0.1976  0.4733 -0.2470
   22MOL   C35810900   4.026   1.121   5.824 -0.0606 -0.4591  0.3762
   22MOL   C35910901   4.030   1.026   5.946 -0.1090 -0.4854 -0.0062
   22MOL   C36010902   4.093   1.089   6.071 -0.3691  0.1024  0.2393
   22MOL   H36110903   3.263   1.006   5.529  0.0722 -1.2035 -0.3209
   22MOL   H36210904   3.338   1.011   5.682  2.1918  1.3560  0.0654
   22MOL   H36310905   3.533   0.949   5.464  2.8366  0.6799  1.2404
   22MOL   H36410906   3.729   1.139   5.554  0.2005 -1.1750 -0.3746
   22MOL   H36510907   3.737   0.972   5.534 -1.2950 -0.9559  0.4665
   22MOL   H36610908   3.768   0.962   5.798 -0.3851  0.2308 -0.7964
   22MOL   H36710909   3.777   1.132   5.799 -0.4374  0.1442 -0.2654
   22MOL   H36810910   3.984   0.949   5.677 -1.5114 -0.6318  1.3291
   22MOL   H36910911   3.951   1.111   5.620  0.3408  1.3512  0.3698
   22MOL   H37010912   4.125   1.154   5.793  0.1944  1.7810  3.4346
   22MOL   H37110913   3.977   1.213   5.856  0.9771  0.1211  0.3207
   22MOL   H37210914   3.934   1.000   5.990 -0.8638  1.0571 -0.7077
   22MOL   H37310915   4.087   0.936   5.926  0.5903 -0.3760  1.4050
   22MOL   H37410916   4.071   1.031   6.161  0.9139  1.4376  1.4232
   22MOL   H37510917   4.201   1.103   6.065  0.2303 -3.3742  1.8084
   22MOL   H37610918   4.046   1.185   6.089 -1.6693 -0.3098 -0.8901
   22MOL   C37710919   3.476   1.167   5.454 -0.2145 -0.4837 -0.1449
   22MOL   C37810920   3.418   1.161   5.314  0.4353  0.5046  0.0870
   22MOL   O37910921   3.489   1.076   5.224  0.4540  0.0752  0.3938
   22MOL   C38010922   3.626   1.102   5.189  0.3641  0.0176  0.6880
   22MOL   C38110923   3.691   0.970   5.126  0.1776  0.0400  0.5286
   22MOL   C38210924   3.658   0.855   5.211  0.1209  0.7276  0.0307
   22MOL   C38310925   3.704   0.724   5.144  0.5752  0.5305 -0.5130
   22MOL   C38410926   3.641   0.593   5.201 -0.2610  0.2960  0.2277
   22MOL   C38510927   3.661   0.567   5.350  0.1271 -0.1197 -0.5024
   22MOL   H38610928   3.412   1.235   5.509 -0.1379  1.9166 -2.9332
   22MOL   H38710929   3.573   1.218   5.455 -0.3214 -0.2653 -0.8392
   22MOL   H38810930   3.325   1.105   5.327  0.3957  0.4256 -0.4985
   22MOL   H38910931   3.687   1.132   5.274  0.6003  0.6975  0.2816
   22MOL   H39010932   3.624   1.186   5.119  2.6041  1.3653  2.2041
   22MOL   H39110933   3.798   0.981   5.111  0.0073  1.8661  0.6104
   22MOL   H39210934   3.654   0.961   5.024  0.1490 -0.7543  0.6053
   22MOL   H39310935   3.710   0.853   5.307 -0.8471 -1.2215  0.5284
   22MOL   H39410936   3.550   0.855   5.230 -0.0054  0.8883 -0.6630
   22MOL   H39510937   3.673   0.732   5.039  0.6478  0.1461 -0.5659
   22MOL   H39610938   3.811   0.706   5.137  0.3295 -0.4763 -2.1166
   22MOL   H39710939   3.534   0.606   5.182  0.1233  0.1161 -2.1942
   22MOL   H39810940   3.667   0.506   5.141 -1.0911  1.3354 -1.7030
   22MOL   H39910941   3.631   0.652   5.411 -0.1415  0.1476 -1.0008
   22MOL   H40010942   3.612   0.475   5.382 -0.6958  0.1041 -1.0778
   22MOL   H40110943   3.767   0.559   5.374 -0.1068 -2.1799 -0.0749
   22MOL   C40210944   3.405   1.297   5.244  1.5167  0.1306 -0.3784
   22MOL   C40310945   3.305   1.280   5.118 -0.4205 -0.4616  0.2781
   22MOL   O40410946   3.271   1.407   5.063  0.1647 -0.6805 -0.3178
   22MOL   C40510947   3.376   1.479   5.000 -0.4721 -0.6698  0.6816
   22MOL   C40610948   3.410   1.433   4.852 -0.1545  0.0547 -0.3225
   22MOL   C40710949   3.495   1.540   4.784  0.0605 -0.0207 -0.0506
   22MOL   C40810950   3.518   1.513   4.635  0.5524 -0.6098  0.0399
   22MOL   C40910951   3.405   1.549   4.535 -0.6916 -0.2648 -0.2476
   22MOL   C41010952   3.439   1.496   4.396 -0.1589 -0.4669  0.3531
   22MOL   H41110953   3.500   1.334   5.205  1.3124  0.9838 -0.0685
   22MOL   H41210954   3.364   1.370   5.314  0.5349 -1.5855  0.8769
   22MOL   H41310955   3.348   1.210   5.047  1.2917 -1.8452  2.5865
   22MOL   H41410956   3.457   1.477   5.073  1.2443  1.3488 -1.0875
   22MOL   H41510957   3.348   1.584   4.993  2.3876  0.0701 -0.0741
   22MOL   H41610958   3.323   1.413   4.790  1.4565 -1.9608 -2.0270
   22MOL   H41710959   3.465   1.339   4.858 -0.9956 -0.3448  1.5287
   22MOL   H41810960   3.460   1.642   4.801 -1.2398 -0.6140  0.9344
   22MOL   H41910961   3.590   1.524   4.836  0.6794 -0.0344 -1.1853
   22MOL   H42010962   3.609   1.565   4.603 -0.1138  0.1119 -0.7011
   22MOL   H42110963   3.538   1.407   4.620  0.6709 -0.5406 -0.2975
   22MOL   H42210964   3.311   1.502   4.563 -1.3620  0.2934 -1.5275
   22MOL   H42310965   3.377   1.654   4.529 -1.3665 -0.2137  2.8784
   22MOL   H42410966   3.360   1.520   4.325 -0.5795 -0.9424  0.6486
   22MOL   H42510967   3.537   1.539   4.376 -0.0080 -0.4880  1.0174
   22MOL   H42610968   3.440   1.387   4.396  2.4294 -0.4884  2.4315
   22MOL   C42710969   3.161   1.224   5.160  0.3686 -0.1817 -0.1974
   22MOL   C42810970   3.120   1.085   5.099 -0.2353 -0.1606  0.0500
   22MOL   O42910971   3.019   1.020   5.167 -0.6005 -0.1318 -0.0219
   22MOL   C43010972   3.055   0.959   5.286  0.2243 -0.2019 -0.0663
   22MOL   C43110973   2.925   0.909   5.353 -1.0333  0.3558 -0.6400
   22MOL   C43210974   2.819   1.019   5.349  0.8861 -0.6417  0.1563
   22MOL   C43310975   2.697   0.994   5.445  0.0573  0.0260 -0.0123
   22MOL   C43410976   2.602   0.885   5.391 -0.3950  0.3971 -0.0328
   22MOL   C43510977   2.525   0.813   5.506 -0.0051 -0.2808 -0.5390
   22MOL   H43610978   3.139   1.222   5.266 -1.4011 -3.2349 -0.5685
   22MOL   H43710979   3.092   1.301   5.124 -0.4467 -1.1711 -0.7930
   22MOL   H43810980   3.215   1.031   5.106 -1.2403 -1.8457  0.9990
   22MOL   H43910981   3.097   1.026   5.361 -0.2389  0.9494 -0.8292
   22MOL   H44010982   3.126   0.878   5.273 -0.8051 -1.5178  2.1729
   22MOL   H44110983   2.946   0.893   5.459 -2.3479  0.9809 -0.2683
   22MOL   H44210984   2.889   0.816   5.310  1.4302 -1.6373  1.5025
   22MOL   H44310985   2.869   1.111   5.380  1.2755 -0.3273 -1.3560
   22MOL   H44410986   2.791   1.030   5.245  0.3564 -1.4184  0.2170
   22MOL   H44510987   2.732   0.957   5.541  0.6515  1.4258  0.3162
   22MOL   H44610988   2.633   1.081   5.461 -0.5440  0.2945 -3.5130
   22MOL   H44710989   2.554   0.917   5.299  1.0128  0.8906 -0.6057
   22MOL   H44810990   2.670   0.812   5.349  0.4317  0.1210  1.7399
   22MOL   H44910991   2.461   0.888   5.553  1.0084  0.6163 -0.5715
   22MOL   H45010992   2.458   0.741   5.459 -2.3597  0.5162  1.5176
   22MOL   H45110993   2.586   0.777   5.588 -0.1703  0.8213  0.0790
   22MOL   C45210994   3.065   1.087   4.953 -0.2412 -0.2353  0.2141
   22MOL   C45310995   3.010   0.956   4.898  0.1211 -0.1829  0.2327
   22MOL   O45410996   3.122   0.875   4.860  0.0219 -0.1906  0.1754
   22MOL   C45510997   3.158   0.778   4.956  0.3246  0.0191 -0.1330
   22MOL   C45610998   3.302   0.733   4.934 -0.0918 -0.1291  0.4044
   22MOL   C45710999   3.337   0.595   4.976  0.1669 -0.8452 -0.1103
   22MOL   C45811000   3.275   0.486   4.891  0.7830  0.8137 -0.3137
   22MOL   C45911001   3.314   0.485   4.743  0.6496 -0.0786  0.0876
   22MOL   C46011002   3.233   0.387   4.658  0.1193 -0.6161 -0.5734
   22MOL   H46111003   2.982   1.157   4.961  0.2832  0.0973  3.2349
   22MOL   H46211004   3.140   1.127   4.884 -0.4837  2.1580  1.3023
   22MOL   H46311005   2.945   0.901   4.966 -1.5852  0.6143 -0.7171
   22MOL   H46411006   3.088   0.695   4.954 -0.1878  0.4592 -1.2165
   22MOL   H46511007   3.141   0.813   5.058 -2.9600  1.2084 -1.0307
   22MOL   H46611008   3.369   0.810   4.974 -0.8617  0.0704  1.3449
   22MOL   H46711009   3.325   0.754   4.830 -0.1444  0.3441  0.4885
   22MOL   H46811010   3.444   0.591   4.960 -0.0604  0.2914 -2.0280
   22MOL   H46911011   3.300   0.578   5.077  1.2675  0.5119  0.5385
   22MOL   H47011012   3.305   0.397   4.946 -0.3752  0.5771 -0.0621
   22MOL   H47111013   3.167   0.487   4.905  1.0015  0.3614  1.5444
   22MOL   H47211014   3.308   0.584   4.698  0.7373  0.5693  1.4920
   22MOL   H47311015   3.416   0.448   4.741  0.8430  0.5193 -2.5265
   22MOL   H47411016   3.129   0.392   4.692  0.5268  1.5412  0.4905
   22MOL   H47511017   3.222   0.420   4.555 -1.4198  1.9680  0.3578
   22MOL   H47611018   3.267   0.285   4.674  0.4569 -0.3101  0.7346
   22MOL   C47711019   2.926   0.976   4.772 -0.2652  0.1076 -0.1108
   22MOL   C47811020   2.792   1.037   4.794 -0.7025  0.0332 -0.0017
   22MOL   O47911021   2.712   1.023   4.674  0.3564  0.0186  0.2449
   22MOL   C48011022   2.618   0.914   4.678  0.0662 -0.0245  0.4166
   22MOL   C48111023   2.526   0.921   4.559 -1.1023  1.0521  0.6112
   22MOL   C48211024   2.410   0.814   4.565  0.2189 -0.3297  0.3986
   22MOL   C48311025   2.342   0.784   4.424 -0.3632  0.2137 -0.1928
   22MOL   C48411026   2.278   0.648   4.411  0.7936  0.0728  0.7464
   22MOL   C48511027   2.240   0.623   4.266  0.0180  0.6495 -0.2300
   22MOL   H48611028   2.983   1.023   4.691  3.2417 -1.1398  1.5395
   22MOL   H48711029   2.901   0.875   4.741  2.3032 -0.9724  1.2758
   22MOL   H48811030   2.746   0.990   4.881 -1.4722  0.8749  0.0596
   22MOL   H48911031   2.558   0.903   4.769 -0.4491 -1.3394 -0.0701
   22MOL   H49011032   2.665   0.816   4.674 -1.1350 -0.6670  1.5304
   22MOL   H49111033   2.582   0.912   4.465 -1.6892 -4.2056  0.6044
   22MOL   H49211034   2.478   1.018   4.550 -0.7671  0.9568 -3.4763
   22MOL   H49311035   2.454   0.722   4.602  0.5534 -0.3707 -0.0987
   22MOL   H49411036   2.331   0.846   4.634 -0.9742 -1.6908 -0.3050
   22MOL   H49511037   2.273   0.864   4.394 -0.4065  0.6469  1.0377
   22MOL   H49611038   2.411   0.789   4.340 -0.9611  0.4688 -0.6836
   22MOL   H49711039   2.349   0.569   4.434  1.7752  1.6128  3.1649
   22MOL   H49811040   2.194   0.641   4.480 -0.3426 -1.7713 -0.7670
   22MOL   H49911041   2.168   0.699   4.235 -0.9042  0.0918  0.5231
   22MOL   H50011042   2.321   0.624   4.192  0.2980 -2.3064 -0.0240
   22MOL   H50111043   2.191   0.526   4.273 -2.6483  2.0724  1.2931
   22MOL   H50211044   2.817   1.143   4.805  2.1013 -0.5651 -0.1137
   23MOL     C111045   1.997   2.245   1.600 -0.0622  0.0694  0.0786
   23MOL     C211046   2.024   2.233   1.751  0.6504  0.1091  0.1398
   23MOL     O311047   2.091   2.336   1.819 -0.0089  0.1566 -0.0312
   23MOL     C411048   2.036   2.465   1.827  0.0674  0.6674 -0.0337
   23MOL     C511049   2.051   2.522   1.969 -0.1340  0.0207  0.0511
   23MOL     C611050   1.965   2.435   2.056 -0.0045  0.0586  1.2347
   23MOL     C711051   1.999   2.467   2.202 -0.4040  0.8774 -0.5711
   23MOL     C811052   1.939   2.374   2.309  0.2913 -0.2306 -0.1075
   23MOL     C911053   2.006   2.406   2.444 -0.1151 -0.3007 -0.4289
   23MOL    H1011054   2.090   2.242   1.542  0.7996  0.7985  1.3980
   23MOL    H1111055   1.936   2.171   1.550 -1.0648  1.0159 -0.1088
   23MOL    H1211056   1.927   2.232   1.799  0.8504  1.3470  0.5681
   23MOL    H1311057   1.930   2.457   1.800 -0.4252  0.8415  1.7832
   23MOL    H1411058   2.087   2.528   1.754  0.8412 -1.0034 -0.9586
   23MOL    H1511059   2.042   2.631   1.968  0.2135  0.0669  1.4249
   23MOL    H1611060   2.152   2.504   2.005  0.0268 -1.5573 -1.1596
   23MOL    H1711061   1.866   2.471   2.029 -0.4578 -2.0303  0.0060
   23MOL    H1811062   1.979   2.330   2.030  0.5035 -0.2794  2.8161
   23MOL    H1911063   2.108   2.457   2.207 -0.4373 -0.2529 -2.0024
   23MOL    H2011064   1.979   2.570   2.234  0.6249  0.0373  3.0268
   23MOL    H2111065   1.943   2.266   2.298  0.0673 -0.1690 -0.8436
   23MOL    H2211066   1.832   2.386   2.326 -0.0181 -0.3845 -1.8404
   23MOL    H2311067   1.957   2.347   2.522 -1.6417 -1.7851 -2.4643
   23MOL    H2411068   2.113   2.383   2.444 -0.5046 -2.2116 -0.1574
   23MOL    H2511069   2.012   2.511   2.473 -1.4175  0.5844 -3.2000
   23MOL    H2611070   1.949   2.341   1.579  0.1404 -0.3178 -2.2789
   23MOL    C2711071   2.087   2.088   1.770 -0.8125 -0.4046  0.8231
   23MOL    C2811072   2.066   2.022   1.918 -0.3618 -0.7977  0.4507
   23MOL    O2911073   1.928   1.997   1.953  0.2848  0.0372  0.1294
   23MOL    C3011074   1.896   1.998   2.088  0.4758 -0.7206 -0.6160
   23MOL    C3111075   1.748   1.963   2.106  0.1326 -0.2615 -0.3296
   23MOL    C3211076   1.706   1.975   2.256  0.5499 -0.2430 -0.3130
   23MOL    C3311077   1.778   1.881   2.354  0.6713 -0.5984  0.4110
   23MOL    C3411078   1.690   1.854   2.478  0.9233 -0.2733  0.3398
   23MOL    C3511079   1.766   1.769   2.577 -0.2405 -0.3141 -0.4701
   23MOL    H3611080   2.050   2.010   1.702 -0.2338 -2.6546  3.0145
   23MOL    H3711081   2.191   2.102   1.740 -0.8913  2.1318  1.6173
   23MOL    H3811082   2.113   2.091   1.988  2.0473 -1.1928 -0.7387
   23MOL    H3911083   1.928   2.095   2.124  0.4236 -0.6980 -0.6307
   23MOL    H4011084   1.960   1.929   2.142  0.0258  0.4467  1.4280
   23MOL    H4111085   1.735   1.860   2.073 -3.8492  0.8697 -2.5543
   23MOL    H4211086   1.683   2.030   2.049  3.0027  2.6527 -0.3623
   23MOL    H4311087   1.705   2.079   2.288 -1.8138  0.8045 -3.5822
   23MOL    H4411088   1.600   1.950   2.263 -0.0678  1.6943 -2.2845
   23MOL    H4511089   1.801   1.784   2.309  0.7178  0.5035 -2.0048
   23MOL    H4611090   1.872   1.923   2.387  0.4045 -1.5102  2.3883
   23MOL    H4711091   1.664   1.949   2.526 -0.4241 -0.4795  0.0375
   23MOL    H4811092   1.603   1.804   2.435  0.0843  1.9284 -0.6552
   23MOL    H4911093   1.841   1.835   2.619  0.0642 -0.7510 -0.3233
   23MOL    H5011094   1.698   1.739   2.656 -1.3661  1.4347 -0.7494
   23MOL    H5111095   1.815   1.679   2.540 -0.6165  0.0611 -1.9240
   23MOL    C5211096   2.147   1.888   1.920 -0.2285 -0.2508  0.1844
   23MOL    C5311097   2.300   1.885   1.915  0.0129 -0.1486 -0.0526
   23MOL    O5411098   2.347   1.981   2.008 -0.1219  0.3523 -0.0723
   23MOL    C5511099   2.478   2.042   1.989 -0.0638 -0.0480 -0.4143
   23MOL    C5611100   2.517   2.117   2.117  0.6566  0.0079  0.3796
   23MOL    C5711101   2.443   2.249   2.135  0.9414 -0.1162  0.0039
   23MOL    C5811102   2.489   2.317   2.262  0.4629 -0.3062 -0.1051
   23MOL    C5911103   2.453   2.240   2.388  0.1680  0.0431 -0.0153
   23MOL    C6011104   2.480   2.321   2.517  0.5081 -0.0986 -0.3561
   23MOL    H6111105   2.110   1.811   1.852 -1.4131 -1.1865  1.8332
   23MOL    H6211106   2.128   1.831   2.012 -1.7449 -0.0046  0.0294
   23MOL    H6311107   2.334   1.910   1.815 -0.1697 -0.0047 -0.0772
   23MOL    H6411108   2.480   2.112   1.906  2.1768 -1.5628 -1.6775
   23MOL    H6511109   2.547   1.965   1.955 -0.8113 -1.0769  0.3365
   23MOL    H6611110   2.625   2.133   2.118  0.5994  0.3920  1.2648
   23MOL    H6711111   2.505   2.041   2.194  1.4819  0.5076  1.0133
   23MOL    H6811112   2.468   2.320   2.057 -1.1651  1.4581  0.7158
   23MOL    H6911113   2.335   2.229   2.134  1.1700 -1.5864  1.7103
   23MOL    H7011114   2.589   2.360   2.269 -0.1011  0.8416  0.9747
   23MOL    H7111115   2.430   2.409   2.263 -0.4431 -0.8831  0.5530
   23MOL    H7211116   2.356   2.191   2.387  0.3496 -0.3673  1.4877
   23MOL    H7311117   2.529   2.162   2.376  0.1080 -0.2665  1.5452
   23MOL    H7411118   2.448   2.258   2.601  0.2724  3.5136  2.3672
   23MOL    H7511119   2.586   2.343   2.524 -0.1700  2.9793  0.9083
   23MOL    H7611120   2.420   2.412   2.524  0.9755  0.1282  0.6516
   23MOL    C7711121   2.371   1.746   1.947 -0.5671 -0.2624  0.3453
   23MOL    C7811122   2.319   1.621   1.880 -0.0682  0.1367 -0.0992
   23MOL    O7911123   2.390   1.523   1.949 -0.6585  0.1694  0.1599
   23MOL    C8011124   2.334   1.393   1.972 -0.0738  0.5820  0.9357
   23MOL    C8111125   2.390   1.322   2.100  0.5868 -1.0399  0.7891
   23MOL    C8211126   2.319   1.383   2.226  0.0645 -0.3866 -0.5230
   23MOL    C8311127   2.364   1.317   2.359 -0.5989  1.3749  0.2799
   23MOL    C8411128   2.499   1.381   2.406 -0.8396 -0.4962 -0.0166
   23MOL    C8511129   2.560   1.315   2.528 -0.0834  0.1463  0.1259
   23MOL    H8611130   2.367   1.734   2.055 -0.6015  0.0568  0.3815
   23MOL    H8711131   2.479   1.752   1.931 -0.3725 -0.0064  1.6834
   23MOL    H8811132   2.218   1.604   1.918 -0.8069  0.5146 -1.8099
   23MOL    H8911133   2.366   1.331   1.888  1.0286 -0.6028  2.1935
   23MOL    H9011134   2.225   1.399   1.973 -0.0448  1.6469 -0.6624
   23MOL    H9111135   2.497   1.342   2.095  0.8820 -2.5123  0.9905
   23MOL    H9211136   2.381   1.214   2.104  0.3486 -0.9908  1.7625
   23MOL    H9311137   2.330   1.492   2.224  1.4403 -0.4150  3.0308
   23MOL    H9411138   2.211   1.373   2.225  0.1330 -1.1414 -0.2970
   23MOL    H9511139   2.283   1.335   2.429 -2.1633  1.8134 -1.5926
   23MOL    H9611140   2.377   1.210   2.345 -2.5251  1.0106  1.1669
   23MOL    H9711141   2.575   1.383   2.328 -2.3884  0.4564 -1.5444
   23MOL    H9811142   2.481   1.484   2.436  1.0948  0.0938 -0.7969
   23MOL    H9911143   2.631   1.379   2.580 -0.2955  1.2055 -0.8737
   23MOL   H10011144   2.486   1.276   2.598 -0.9383 -0.0241 -0.8641
   23MOL   H10111145   2.628   1.237   2.492  1.0213  0.6250  1.1504
   23MOL   C10211146   2.336   1.619   1.725 -0.6965 -0.0241  0.0071
   23MOL   C10311147   2.269   1.503   1.642  0.3275 -0.3874 -0.3803
   23MOL   O10411148   2.125   1.530   1.614  0.1951  0.4188  0.0598
   23MOL   C10511149   2.034   1.506   1.707  0.1628 -0.1695  0.4994
   23MOL   C10611150   1.894   1.511   1.640 -0.3943 -0.1131  0.0645
   23MOL   C10711151   1.859   1.655   1.594  0.1329 -0.0487 -0.8860
   23MOL   C10811152   1.832   1.752   1.712  0.5664  0.3664 -0.1823
   23MOL   C10911153   1.725   1.710   1.813 -0.5298 -0.1546 -0.4969
   23MOL   C11011154   1.589   1.684   1.749 -0.6645 -0.0349 -0.3677
   23MOL   H11111155   2.313   1.718   1.687 -1.0832 -0.0905  0.0665
   23MOL   H11211156   2.444   1.619   1.716 -0.5022  0.5144  2.1140
   23MOL   H11311157   2.280   1.410   1.697 -0.2318 -1.2218 -1.6607
   23MOL   H11411158   2.041   1.579   1.788 -2.4689 -1.1446  1.6685
   23MOL   H11511159   2.046   1.403   1.740 -1.5482 -0.7428 -0.6512
   23MOL   H11611160   1.813   1.469   1.701 -0.7818 -0.7358 -0.8641
   23MOL   H11711161   1.892   1.456   1.545  1.8364  0.5821 -0.4101
   23MOL   H11811162   1.941   1.695   1.534  1.4683  0.7186  1.3893
   23MOL   H11911163   1.774   1.648   1.526  0.5803 -1.0234 -1.3600
   23MOL   H12011164   1.928   1.772   1.759  0.6756 -2.2843  0.8163
   23MOL   H12111165   1.808   1.853   1.680 -0.6260  0.5348  1.1726
   23MOL   H12211166   1.774   1.624   1.857  1.4287  1.8777  1.4350
   23MOL   H12311167   1.708   1.787   1.888 -1.0806  0.6701 -1.4396
   23MOL   H12411168   1.519   1.658   1.828 -0.1327 -2.9312 -0.8071
   23MOL   H12511169   1.553   1.774   1.699 -1.3799 -0.2717 -0.2868
   23MOL   H12611170   1.593   1.608   1.671  1.8739 -0.9684  0.6178
   23MOL   C12711171   2.340   1.495   1.501  0.0920  0.2312  0.7256
   23MOL   C12811172   2.291   1.385   1.408  0.3283 -0.0076 -0.7344
   23MOL   O12911173   2.292   1.258   1.477 -0.2137 -0.4399  0.1855
   23MOL   C13011174   2.171   1.187   1.486  0.4423 -0.0258  0.1797
   23MOL   C13111175   2.199   1.064   1.585 -0.6300 -0.3842 -0.1241
   23MOL   C13211176   2.076   0.978   1.623 -0.2401  0.5995  0.1422
   23MOL   C13311177   2.035   0.875   1.512 -0.4567 -0.2776  0.5042
   23MOL   C13411178   1.913   0.798   1.557  0.0683 -0.1391  0.0442
   23MOL   C13511179   1.887   0.687   1.460 -0.2399 -0.0283 -0.5717
   23MOL   H13611180   2.321   1.587   1.446  1.5199 -0.2348 -0.5643
   23MOL   H13711181   2.447   1.484   1.520 -0.2836 -1.2485  2.1847
   23MOL   H13811182   2.187   1.397   1.379 -0.3438  1.1073  1.9834
   23MOL   H13911183   2.143   1.164   1.384  2.0228 -1.4337  0.0278
   23MOL   H14011184   2.089   1.251   1.518 -1.6867 -2.1398 -0.8973
   23MOL   H14111185   2.231   1.111   1.678  1.1092 -2.1695  0.2142
   23MOL   H14211186   2.286   1.011   1.548 -0.5622 -1.0062  0.9137
   23MOL   H14311187   2.087   0.923   1.717 -2.4724 -0.4215 -0.1704
   23MOL   H14411188   1.991   1.046   1.635 -0.3090  0.7194 -0.9797
   23MOL   H14511189   2.029   0.919   1.412 -2.2755  1.8528  1.4929
   23MOL   H14611190   2.120   0.808   1.512  0.1863  0.5035  2.6829
   23MOL   H14711191   1.926   0.761   1.658 -2.4420 -1.0210  0.0842
   23MOL   H14811192   1.823   0.858   1.563  0.0943 -0.1500  0.5640
   23MOL   H14911193   1.874   0.721   1.357  0.3050  0.0710 -0.6103
   23MOL   H15011194   1.973   0.620   1.459 -0.1153  0.1249 -0.2290
   23MOL   H15111195   1.804   0.624   1.492 -1.0923  1.3871  0.0529
   23MOL   C15211196   2.377   1.356   1.286  0.9368  0.1074  0.4961
   23MOL   C15311197   2.360   1.447   1.164 -0.3813 -0.3408  0.8213
   23MOL   O15411198   2.445   1.562   1.185  0.0434  0.6473 -0.1402
   23MOL   C15511199   2.367   1.678   1.190 -0.3020 -0.3408 -0.5037
   23MOL   C15611200   2.462   1.790   1.200 -0.5146  0.0772  0.3777
   23MOL   C15711201   2.532   1.816   1.067 -0.8673 -1.1179 -1.0505
   23MOL   C15811202   2.640   1.931   1.075  0.2831  0.1874  0.4584
   23MOL   C15911203   2.725   1.944   0.943 -0.7285 -0.4233 -0.5457
   23MOL   C16011204   2.867   2.007   0.973 -0.0023 -0.5767 -0.5008
   23MOL   H16111205   2.478   1.340   1.323  1.1603  0.2165 -0.0676
   23MOL   H16211206   2.340   1.262   1.244 -0.8259  1.1281 -0.2973
   23MOL   H16311207   2.254   1.463   1.143  0.0353 -0.3966 -1.4306
   23MOL   H16411208   2.302   1.680   1.277  2.1575  1.8410  1.4074
   23MOL   H16511209   2.303   1.688   1.103 -1.3348 -2.1731  0.0382
   23MOL   H16611210   2.542   1.753   1.264 -0.4205  1.2272  0.9402
   23MOL   H16711211   2.420   1.884   1.234  1.1036  0.7814  0.4837
   23MOL   H16811212   2.588   1.726   1.041  0.5161 -0.3238 -0.8843
   23MOL   H16911213   2.468   1.838   0.982 -0.4650  2.4236 -0.5191
   23MOL   H17011214   2.593   2.022   1.111 -0.5879 -0.1368  0.1532
   23MOL   H17111215   2.702   1.905   1.161  1.2286  0.6620 -0.0752
   23MOL   H17211216   2.742   1.845   0.901  1.6271 -0.6550  0.8778
   23MOL   H17311217   2.680   2.009   0.868 -0.0487  2.2389  1.2858
   23MOL   H17411218   2.901   2.045   0.877  0.0267  1.2222  0.1984
   23MOL   H17511219   2.866   2.095   1.037 -0.1696  0.0883 -1.4173
   23MOL   H17611220   2.942   1.936   1.009 -1.7493 -2.6754 -0.8284
   23MOL   C17711221   2.428   1.384   1.037 -0.3768 -0.0192 -0.4056
   23MOL   C17811222   2.413   1.460   0.911 -0.3787  0.0958 -0.1171
   23MOL   O17911223   2.516   1.423   0.824  0.2654 -0.1897 -0.2056
   23MOL   C18011224   2.611   1.524   0.794 -0.6477  0.0389  0.3392
   23MOL   C18111225   2.734   1.460   0.726 -0.6999  0.3480 -0.1992
   23MOL   C18211226   2.804   1.362   0.813 -0.5231  0.1864 -0.1563
   23MOL   C18311227   2.935   1.301   0.763 -0.2842 -0.4396  0.1373
   23MOL   C18411228   3.016   1.210   0.851  0.2043  0.2442 -0.1513
   23MOL   C18511229   2.927   1.089   0.890  0.0811 -0.2538 -0.3236
   23MOL   H18611230   2.530   1.362   1.065  0.1389 -0.0947 -2.2531
   23MOL   H18711231   2.388   1.284   1.018 -1.0554  0.0099  0.8126
   23MOL   H18811232   2.423   1.567   0.932 -3.9970  0.3580  0.5165
   23MOL   H18911233   2.652   1.576   0.881 -0.6217 -0.6282  0.7386
   23MOL   H19011234   2.566   1.599   0.730  2.8425  2.4354  0.5568
   23MOL   H19111235   2.804   1.541   0.707 -0.6043 -0.0525 -1.6651
   23MOL   H19211236   2.703   1.419   0.629 -0.1686  2.4675 -1.2947
   23MOL   H19311237   2.825   1.406   0.910  3.2828 -1.0676 -0.3055
   23MOL   H19411238   2.739   1.278   0.837 -3.9672  2.7511 -0.1601
   23MOL   H19511239   2.903   1.246   0.674 -1.6893  0.9715 -0.2592
   23MOL   H19611240   3.008   1.376   0.732 -1.7687  1.2323  0.6425
   23MOL   H19711241   3.112   1.184   0.808  1.6347  0.9684  2.4706
   23MOL   H19811242   3.043   1.264   0.942  1.9065  1.1002 -1.1322
   23MOL   H19911243   2.837   1.125   0.940  0.4851 -1.4700  1.3223
   23MOL   H20011244   2.887   1.043   0.800 -1.4141 -2.3892  1.3974
   23MOL   H20111245   2.986   1.021   0.951  2.1628  1.8375  0.0729
   23MOL   C20211246   2.275   1.427   0.841 -0.7284 -0.4689  0.0331
   23MOL   C20311247   2.249   1.529   0.726  0.0979 -0.3269  0.5895
   23MOL   O20411248   2.206   1.645   0.789  0.1053 -0.4922 -0.2661
   23MOL   C20511249   2.222   1.769   0.722 -0.1310 -0.1128  0.3070
   23MOL   C20611250   2.135   1.876   0.789  0.0959 -0.7378  0.0352
   23MOL   C20711251   2.176   1.918   0.939 -0.7899 -0.3065  0.2898
   23MOL   C20811252   2.108   2.046   0.987  0.4077  0.1812  0.3225
   23MOL   C20911253   2.130   2.096   1.130 -0.3522 -0.9558  0.1611
   23MOL   C21011254   2.268   2.162   1.152 -0.2125 -0.1568  0.0077
   23MOL   H21111255   2.297   1.330   0.798  1.5147  0.2363 -0.4742
   23MOL   H21211256   2.188   1.413   0.906  0.1251  2.2050  1.8685
   23MOL   H21311257   2.349   1.545   0.686 -0.3377  0.2606 -0.2639
   23MOL   H21411258   2.194   1.752   0.618  1.2938  0.1595 -0.1288
   23MOL   H21511259   2.324   1.805   0.724 -1.4303  3.9542 -1.4272
   23MOL   H21611260   2.027   1.865   0.783  0.3411 -2.4060 -1.4917
   23MOL   H21711261   2.156   1.969   0.736  2.4760 -0.8866  0.6628
   23MOL   H21811262   2.160   1.833   1.005  0.2034  0.2010  1.2056
   23MOL   H21911263   2.281   1.946   0.944 -0.4042 -1.6892  0.0958
   23MOL   H22011264   2.139   2.128   0.923 -0.1850  0.4678  0.3932
   23MOL   H22111265   2.001   2.043   0.968  0.3927 -1.7073  0.6714
   23MOL   H22211266   2.043   2.158   1.153 -0.8296 -1.7203  0.4188
   23MOL   H22311267   2.118   2.017   1.204 -3.6666  0.5948  1.4024
   23MOL   H22411268   2.280   2.188   1.257  2.1207 -2.1432  0.2921
   23MOL   H22511269   2.335   2.078   1.133  1.3562  0.6860  1.7331
   23MOL   H22611270   2.294   2.246   1.088 -0.9612  0.6836  0.7908
   23MOL   C22711271   2.140   1.480   0.624  0.2903  0.4573  0.8961
   23MOL   C22811272   2.201   1.423   0.491  0.3758 -0.0633  0.0334
   23MOL   O22911273   2.269   1.304   0.518  0.0900 -0.2862  0.1027
   23MOL   C23011274   2.410   1.319   0.502 -0.6653  0.2599  0.8318
   23MOL   C23111275   2.487   1.189   0.520 -0.4974  0.0591  0.0024
   23MOL   C23211276   2.460   1.123   0.662  0.1553 -0.6519  0.4455
   23MOL   C23311277   2.545   0.994   0.688 -0.5678 -0.0278 -0.6840
   23MOL   C23411278   2.496   0.910   0.811  0.2711  0.9310  0.3839
   23MOL   C23511279   2.605   0.814   0.865  0.4015  0.6986  0.6106
   23MOL   H23611280   2.087   1.394   0.666 -0.3963 -0.4117 -1.6806
   23MOL   H23711281   2.063   1.552   0.595 -0.4284  0.2428  2.1840
   23MOL   H23811282   2.257   1.497   0.435 -1.5575  1.6516  0.2951
   23MOL   H23911283   2.442   1.382   0.586 -1.2646 -1.1108  2.1074
   23MOL   H24011284   2.424   1.360   0.402  0.2785  1.6442  1.5082
   23MOL   H24111285   2.595   1.201   0.516 -0.4867  0.4374  1.2545
   23MOL   H24211286   2.457   1.126   0.437  1.7520 -2.6675  1.2147
   23MOL   H24311287   2.490   1.194   0.740  1.3952 -2.0955  1.3136
   23MOL   H24411288   2.353   1.102   0.673  0.3410 -0.9005  1.9681
   23MOL   H24511289   2.544   0.927   0.602 -1.2625  1.1365 -1.6035
   23MOL   H24611290   2.648   1.024   0.706 -0.7624  0.1077  0.2419
   23MOL   H24711291   2.465   0.980   0.888  2.9825  2.3727  0.2405
   23MOL   H24811292   2.408   0.859   0.773  0.7172  0.7102 -0.3895
   23MOL   H24911293   2.579   0.784   0.967  2.7205  0.1845  1.0767
   23MOL   H25011294   2.598   0.723   0.806 -1.8373  0.4371  1.2360
   23MOL   H25111295   2.707   0.849   0.847  0.0315  2.0799  1.1120
   23MOL   C25211296   2.081   1.375   0.399  0.1261 -0.3727  0.3033
   23MOL   C25311297   2.133   1.342   0.254 -0.5445 -0.1857  0.4352
   23MOL   O25411298   2.010   1.334   0.180 -0.4328  0.2618 -0.2005
   23MOL   C25511299   1.992   1.431   0.082  0.3247 -0.3589 -0.1287
   23MOL   C25611300   1.841   1.421   0.042 -0.1872 -0.0754  0.6781
   23MOL   C25711301   1.748   1.452   0.156  0.3391 -0.3908 -0.6268
   23MOL   C25811302   1.598   1.436   0.125 -0.2670 -0.4428  0.0147
   23MOL   C25911303   1.507   1.387   0.252 -0.0197  0.2007  0.2384
   23MOL   C26011304   1.356   1.393   0.223 -0.2393 -0.8571 -0.0727
   23MOL   H26111305   2.030   1.291   0.446 -0.5562  1.2953  2.6574
   23MOL   H26211306   2.003   1.452   0.394  2.5470  2.1864  0.5225
   23MOL   H26311307   2.199   1.420   0.214  1.7921 -1.9877  0.6883
   23MOL   H26411308   2.044   1.399   7.770  1.7981  2.7155 -0.4259
   23MOL   H26511309   2.018   1.533   0.110 -2.2115  0.3685 -0.3307
   23MOL   H26611310   1.818   1.319   0.013 -0.4970 -0.7032  2.9722
   23MOL   H26711311   1.829   1.487   7.733  0.3460  0.0094  0.6706
   23MOL   H26811312   1.770   1.383   0.238  0.9409 -0.4294 -0.8203
   23MOL   H26911313   1.763   1.551   0.197  0.9073 -1.7383  2.6341
   23MOL   H27011314   1.557   1.530   0.088  1.1572  0.6482  1.1611
   23MOL   H27111315   1.595   1.367   0.041 -0.0514  1.4126 -1.5453
   23MOL   H27211316   1.536   1.285   0.280 -1.2317 -0.0310  0.6805
   23MOL   H27311317   1.522   1.460   0.332  0.1686 -0.7230  1.0588
   23MOL   H27411318   1.318   1.495   0.218 -0.4088 -0.9419 -0.5809
   23MOL   H27511319   1.327   1.343   0.130 -0.3177  0.0589 -0.5418
   23MOL   H27611320   1.306   1.346   0.308  1.9197 -1.6161  0.8169
   23MOL   C27711321   2.199   1.196   0.239 -1.1376  0.5106  1.1315
   23MOL   C27811322   2.255   1.172   0.090 -0.2779 -0.2065 -0.2848
   23MOL   O27911323   2.369   1.241   0.057 -0.0897 -0.4853  0.0824
   23MOL   C28011324   2.371   1.293   7.700  0.5931 -0.1905 -0.3497
   23MOL   C28111325   2.515   1.352   7.667 -0.7165  0.2366  0.2276
   23MOL   C28211326   2.559   1.472   7.760  0.4742  0.4368 -0.5416
   23MOL   C28311327   2.695   1.524   7.726 -0.3705 -1.1963  0.5480
   23MOL   C28411328   2.714   1.670   7.761 -0.5592 -0.3916  0.3440
   23MOL   C28511329   2.834   1.725   7.685 -0.1291 -0.3195  0.0048
   23MOL   H28611330   2.281   1.184   0.310  0.5330  0.1867 -0.8066
   23MOL   H28711331   2.124   1.123   0.267  0.5798 -2.3984 -1.5311
   23MOL   H28811332   2.187   1.207   0.012 -0.1821  2.3900  0.7589
   23MOL   H28911333   2.300   1.375   7.695 -1.1474 -1.7142 -1.0442
   23MOL   H29011334   2.341   1.215   7.630  1.6950  0.6868 -1.8389
   23MOL   H29111335   2.513   1.396   7.567  1.0835  0.6686  0.3586
   23MOL   H29211336   2.593   1.276   7.657 -0.9071 -0.0659  1.0389
   23MOL   H29311337   2.482   1.549   7.751  1.9513  2.0792  0.3839
   23MOL   H29411338   2.554   1.433   0.084  1.7356 -1.4618 -1.1807
   23MOL   H29511339   2.771   1.462   7.774 -0.9131 -3.0672 -0.9252
   23MOL   H29611340   2.703   1.514   7.617  0.1796 -0.5046  0.5252
   23MOL   H29711341   2.626   1.733   7.749  0.1951  0.9106  1.5258
   23MOL   H29811342   2.730   1.670   0.092  2.6311 -0.3348 -0.0836
   23MOL   H29911343   2.927   1.681   7.723  1.3458  2.5483 -0.2087
   23MOL   H30011344   2.824   1.710   7.577  0.5945 -4.0223  0.3635
   23MOL   H30111345   2.836   1.832   7.702 -1.4467 -0.5049  1.4617
   23MOL   C30211346   2.277   1.023   0.047  0.0638 -0.5506 -0.2294
   23MOL   C30311347   2.168   0.968   7.728  0.0248  0.9138 -0.7248
   23MOL   O30411348   2.153   1.049   7.612 -0.0322  0.3977  0.2108
   23MOL   C30511349   2.237   0.997   7.505 -0.2039 -0.2101 -0.0184
   23MOL   C30611350   2.210   0.857   7.444 -0.0909  0.2514  0.5340
   23MOL   C30711351   2.066   0.839   7.419  0.7606 -0.0944 -0.1131
   23MOL   C30811352   2.039   0.697   7.354  0.7151  0.3817 -0.8955
   23MOL   C30911353   1.883   0.656   7.330  0.0251 -0.3626  0.1812
   23MOL   C31011354   1.853   0.537   7.232  0.6642  0.5999  0.0597
   23MOL   H31111355   2.374   1.006   0.001 -1.1106 -0.9646 -2.6705
   23MOL   H31211356   2.294   0.962   0.135 -3.8535 -1.3655  0.0553
   23MOL   H31311357   2.185   0.863   7.701  3.8511  1.3107 -0.1257
   23MOL   H31411358   2.343   0.989   7.529 -0.3411 -1.3834  0.1928
   23MOL   H31511359   2.240   1.074   7.428 -0.6265  1.5741  1.6759
   23MOL   H31611360   2.241   0.774   7.506  2.3375  1.1039  0.5094
   23MOL   H31711361   2.270   0.858   7.353  2.5882  0.6078  2.2486
   23MOL   H31811362   2.021   0.841   7.518  0.2431 -1.9834 -0.2860
   23MOL   H31911363   2.021   0.915   7.354 -1.2772  0.3156  1.7260
   23MOL   H32011364   2.088   0.696   7.257  0.0772  1.5360 -1.2353
   23MOL   H32111365   2.078   0.625   7.426 -1.1664 -0.9580 -1.1734
   23MOL   H32211366   1.841   0.644   7.430  1.6301 -3.1522  0.5669
   23MOL   H32311367   1.832   0.742   7.287  0.3626 -0.9542 -1.4047
   23MOL   H32411368   1.927   0.459   7.252 -0.1131  0.2875  1.8544
   23MOL   H32511369   1.751   0.506   7.252  1.7627 -2.5083  1.1891
   23MOL   H32611370   1.850   0.572   7.129  1.5351 -1.8122 -0.8335
   23MOL   C32711371   2.025   0.964   0.020  0.3537  0.0351  0.1199
   23MOL   C32811372   2.005   0.876   0.144 -0.0292  0.1364 -0.1482
   23MOL   O32911373   1.867   0.902   0.186 -0.1928  0.1849  0.0242
   23MOL   C33011374   1.831   1.015   0.263  0.3761 -0.1098  0.0664
   23MOL   C33111375   1.886   1.000   0.405 -0.0080 -0.3327 -0.3083
   23MOL   C33211376   1.815   1.103   0.492  0.1683 -0.6598 -0.2900
   23MOL   C33311377   1.893   1.121   0.623  0.4769  0.4006 -0.7346
   23MOL   C33411378   1.856   1.246   0.710  0.7049  0.7123 -0.0317
   23MOL   C33511379   1.903   1.227   0.858 -0.5981  0.5809 -0.1208
   23MOL   H33611380   1.959   0.927   7.718  0.1161 -1.7018  1.1048
   23MOL   H33711381   1.998   1.065   0.049  0.9267  0.1490  0.2722
   23MOL   H33811382   2.076   0.891   0.226  0.1096 -1.9038  0.1211
   23MOL   H33911383   1.726   1.045   0.257  0.1048 -1.3984 -1.9672
   23MOL   H34011384   1.893   1.099   0.232 -0.5471  0.9986  1.1445
   23MOL   H34111385   1.994   1.013   0.404  0.4763 -3.7363  1.3553
   23MOL   H34211386   1.876   0.902   0.452  1.2430 -0.5704 -0.5310
   23MOL   H34311387   1.818   1.193   0.431  1.0203 -0.4839  0.0031
   23MOL   H34411388   1.708   1.082   0.502 -0.1048  2.0022  3.5009
   23MOL   H34511389   1.893   1.031   0.684  0.4118  1.4030  0.7821
   23MOL   H34611390   1.999   1.118   0.599  1.2389 -2.8480  2.5895
   23MOL   H34711391   1.894   1.340   0.670  2.7208  0.7628  1.8897
   23MOL   H34811392   1.748   1.246   0.721  0.6869 -1.4416  0.0038
   23MOL   H34911393   1.835   1.180   0.929 -0.8474  1.4891  0.2461
   23MOL   H35011394   2.001   1.182   0.878  0.5413  1.2358 -3.9459
   23MOL   H35111395   1.925   1.329   0.889  2.5217  0.2168 -0.9425
   23MOL   C35211396   2.013   0.727   0.121 -0.0889  1.0307 -0.2850
   23MOL   C35311397   1.995   0.648   0.248  0.2748  0.3280  0.4998
   23MOL   O35411398   2.116   0.649   0.322 -0.2102  0.2345 -0.1422
   23MOL   C35511399   2.117   0.637   0.462  0.1154  0.2326 -0.1405
   23MOL   C35611400   2.265   0.670   0.503  0.3394  0.4975  0.0624
   23MOL   C35711401   2.362   0.556   0.487 -0.1131  0.3856  0.4290
   23MOL   C35811402   2.503   0.594   0.494 -0.9309  0.1982 -0.4110
   23MOL   C35911403   2.590   0.464   0.498  0.8584 -0.2564  0.3241
   23MOL   C36011404   2.731   0.498   0.546 -0.0321  0.4285 -0.7138
   23MOL   H36111405   1.938   0.700   0.046 -0.4399 -2.0777  1.1168
   23MOL   H36211406   2.105   0.696   0.071 -0.2730  1.5951 -0.9791
   23MOL   H36311407   1.916   0.707   0.294 -0.2706 -1.0964  1.4223
   23MOL   H36411408   2.083   0.543   0.506  0.5971 -0.4502 -1.2132
   23MOL   H36511409   2.048   0.714   0.496  0.8563 -0.0688  2.1354
   23MOL   H36611410   2.268   0.703   0.607 -1.7210 -2.9353  1.2974
   23MOL   H36711411   2.291   0.762   0.450  1.7595  1.1742  1.8805
   23MOL   H36811412   2.335   0.480   0.560 -1.5011 -0.4691 -0.9418
   23MOL   H36911413   2.346   0.497   0.396  0.7525  0.7693  0.0271
   23MOL   H37011414   2.532   0.658   0.411 -3.3295  2.7568  0.6203
   23MOL   H37111415   2.524   0.655   0.582  1.0440 -0.2214 -0.5572
   23MOL   H37211416   2.543   0.391   0.564  0.1966  1.2318  1.5544
   23MOL   H37311417   2.596   0.414   0.402 -0.4614  2.6513 -1.3356
   23MOL   H37411418   2.801   0.415   0.532  0.7906  1.0475 -0.2907
   23MOL   H37511419   2.763   0.574   0.474 -0.1028 -0.8927 -2.1785
   23MOL   H37611420   2.726   0.529   0.650 -1.9643  0.9377 -0.9515
   23MOL   C37711421   1.949   0.501   0.228 -0.3725  0.4022 -0.2013
   23MOL   C37811422   1.802   0.499   0.192  0.3195 -0.5610  0.7508
   23MOL   O37911423   1.729   0.517   0.315  0.8952 -0.4566  0.7617
   23MOL   C38011424   1.625   0.614   0.309  0.1590  0.0074  0.6017
   23MOL   C38111425   1.581   0.645   0.455  0.4122 -0.1322  0.4741
   23MOL   C38211426   1.509   0.783   0.462  0.0058  0.2442 -0.2655
   23MOL   C38311427   1.437   0.805   0.597 -0.3274  0.9131  0.4079
   23MOL   C38411428   1.364   0.944   0.589 -0.0206 -0.2998  0.4402
   23MOL   C38511429   1.290   0.979   0.715  0.0528  0.6390 -0.7386
   23MOL   H38611430   2.017   0.459   0.154 -0.0978  0.4294  0.0355
   23MOL   H38711431   1.956   0.440   0.318 -2.3408 -0.5374 -0.6587
   23MOL   H38811432   1.779   0.584   0.128  0.9123 -0.0013  1.2823
   23MOL   H38911433   1.547   0.574   0.244 -1.1924  2.1211  0.8500
   23MOL   H39011434   1.641   0.710   0.260 -2.0321  0.2160  0.2166
   23MOL   H39111435   1.662   0.652   0.528 -0.0273  2.9661  0.7633
   23MOL   H39211436   1.519   0.561   0.485  0.4844 -0.3609 -0.0183
   23MOL   H39311437   1.571   0.873   0.450  1.4782 -0.7261 -0.1259
   23MOL   H39411438   1.439   0.790   0.379  1.1609 -0.1383 -1.3047
   23MOL   H39511439   1.364   0.724   0.608 -0.1037  0.3069 -2.1884
   23MOL   H39611440   1.504   0.790   0.681 -0.8934  1.8111  1.0243
   23MOL   H39711441   1.432   1.023   0.558 -1.3741  0.7626  0.1400
   23MOL   H39811442   1.299   0.959   0.502  2.8959  0.8486 -1.6220
   23MOL   H39911443   1.231   0.891   0.741  0.2038  0.3120 -1.5180
   23MOL   H40011444   1.347   0.994   0.807  0.0002  2.4466 -0.9906
   23MOL   H40111445   1.227   1.068   0.708  0.6777  1.3391  1.7610
   23MOL   C40211446   1.766   0.356   0.131 -0.1031  0.0042 -0.1175
   23MOL   C40311447   1.799   0.330   7.764  0.4201 -0.1940  0.0040
   23MOL   O40411448   1.934   0.357   7.732 -0.0004  0.2715  0.2533
   23MOL   C40511449   2.026   0.249   7.751  0.3977 -0.1567 -0.3382
   23MOL   C40611450   2.166   0.294   7.720  0.5275 -0.5386  0.0054
   23MOL   C40711451   2.277   0.181   7.719 -0.3387 -0.5682  0.0052
   23MOL   C40811452   2.415   0.235   7.746  0.0486 -0.1475 -0.4449
   23MOL   C40911453   2.525   0.121   7.751  0.2964 -0.3531 -0.3688
   23MOL   C41011454   2.665   0.175   7.734 -0.3995  0.6736 -0.0557
   23MOL   H41111455   1.661   0.328   0.138  0.4832 -1.5304  3.2285
   23MOL   H41211456   1.802   0.277   0.197  0.1054 -0.7266 -1.1056
   23MOL   H41311457   1.777   0.226   7.743 -0.0823 -0.3311  1.1991
   23MOL   H41411458   1.993   0.161   7.696  3.2686 -1.8150  0.4794
   23MOL   H41511459   2.022   0.232   0.081 -0.9795  0.8535 -0.2130
   23MOL   H41611460   2.200   0.379   0.001  0.5935 -0.0130 -0.8011
   23MOL   H41711461   2.173   0.338   7.621  0.2238  0.1497  0.2916
   23MOL   H41811462   2.266   0.103   0.016  2.9186 -0.4577  0.7020
   23MOL   H41911463   2.285   0.130   7.623 -1.0852  0.3123 -0.5251
   23MOL   H42011464   2.442   0.303   7.665 -0.0060  0.9952  0.4777
   23MOL   H42111465   2.422   0.296   0.060 -3.0466 -0.8186  0.3001
   23MOL   H42211466   2.516   0.066   0.067 -1.2263 -0.1079 -0.3567
   23MOL   H42311467   2.518   0.055   7.664  0.6086  0.0098 -0.6679
   23MOL   H42411468   2.672   0.237   7.645  2.5675 -0.9188 -1.0144
   23MOL   H42511469   2.704   0.227   0.045  0.4610  3.3114 -1.9290
   23MOL   H42611470   2.738   0.095   7.724  1.0063  1.8394  0.6817
   23MOL   C42711471   1.712   0.411   7.664 -0.1059 -0.2547  0.0850
   23MOL   C42811472   1.558   0.382   7.658 -0.0306  0.2641 -0.2330
   23MOL   O42911473   1.492   0.469   7.570 -0.4033 -0.4870  0.0986
   23MOL   C43011474   1.440   0.587   7.626 -0.2324  0.2454 -0.2379
   23MOL   C43111475   1.357   0.661   7.519 -0.3656 -0.2892  0.0126
   23MOL   C43211476   1.454   0.752   7.433 -0.0489  0.6641  0.4327
   23MOL   C43311477   1.379   0.844   7.334  0.0151  0.5166  0.3592
   23MOL   C43411478   1.264   0.927   7.383 -0.4526  0.0826 -0.5142
   23MOL   C43511479   1.208   1.018   7.270 -0.1571  0.1642 -0.3419
   23MOL   H43611480   1.723   0.518   7.680  1.7817 -0.4896  0.4823
   23MOL   H43711481   1.756   0.395   7.566 -1.7708  0.4674 -0.7884
   23MOL   H43811482   1.512   0.371   7.757 -0.4006 -1.5697 -0.5897
   23MOL   H43911483   1.528   0.647   7.651 -0.6894  0.2794  1.3693
   23MOL   H44011484   1.375   0.561   7.710  0.1363 -0.9217 -0.3021
   23MOL   H44111485   1.289   0.725   7.576 -0.8675  0.7563 -1.7126
   23MOL   H44211486   1.298   0.594   7.456 -2.8846 -0.5257  2.5681
   23MOL   H44311487   1.507   0.822   7.498  1.6999 -1.1037  0.9520
   23MOL   H44411488   1.524   0.691   7.376 -0.2880  0.7727  0.0154
   23MOL   H44511489   1.449   0.888   7.264 -1.7128  0.4512 -1.4590
   23MOL   H44611490   1.332   0.774   7.265  0.4524  1.4373 -0.8767
   23MOL   H44711491   1.194   0.860   7.432  0.4188  0.6052  1.5251
   23MOL   H44811492   1.290   0.989   7.469 -0.7662  0.4194 -0.6641
   23MOL   H44911493   1.194   0.951   7.184 -1.0997 -0.4988  0.3200
   23MOL   H45011494   1.112   1.063   7.294 -1.7359 -4.1964  2.0968
   23MOL   H45111495   1.271   1.105   7.253  1.7149 -0.8956  0.9136
   23MOL   C45211496   1.522   0.249   7.589  0.0975 -0.1381  0.2618
   23MOL   C45311497   1.370   0.205   7.591 -0.0667  0.2477 -0.3127
   23MOL   O45411498   1.343   0.184   7.730 -0.2915  0.4412  0.0753
   23MOL   C45511499   1.224   0.247   7.767 -0.6572  0.1467 -0.3022
   23MOL   C45611500   1.177   0.211   0.132 -0.2355 -0.2981 -0.3681
   23MOL   C45711501   1.035   0.269   0.155  0.5191  0.5507 -0.7067
   23MOL   C45811502   0.995   0.268   0.304  0.0380 -0.0745 -0.1749
   23MOL   C45911503   0.859   0.332   0.332  0.0899 -0.0032  0.1486
   23MOL   C46011504   0.817   0.314   0.478  0.3407 -0.1611 -0.1195
   23MOL   H46111505   1.547   0.271   7.485  0.3665  0.4521  0.4543
   23MOL   H46211506   1.582   0.162   7.618  0.8894 -0.8445 -3.1937
   23MOL   H46311507   1.304   0.282   7.550  2.7728  1.8711 -2.0383
   23MOL   H46411508   1.142   0.207   7.707 -0.1709 -0.6861 -0.4248
   23MOL   H46511509   1.226   0.353   7.741 -1.8108  0.5099  1.0264
   23MOL   H46611510   1.240   0.254   0.210 -1.6849  0.0554  0.6316
   23MOL   H46711511   1.174   0.105   0.158 -1.0576  0.5179  3.0784
   23MOL   H46811512   1.030   0.370   0.114  2.1675  1.2092  0.6641
   23MOL   H46911513   0.958   0.217   0.097  0.2146 -0.5760  0.6857
   23MOL   H47011514   0.986   0.166   0.342 -1.5261 -0.0740 -0.4826
   23MOL   H47111515   1.071   0.311   0.369  0.2747 -1.4637  0.4978
   23MOL   H47211516   0.861   0.439   0.309 -0.4511  0.0869  0.5042
   23MOL   H47311517   0.780   0.291   0.270  2.5385 -1.5419 -2.0275
   23MOL   H47411518   0.712   0.334   0.500  0.2688 -0.4149 -0.2296
   23MOL   H47511519   0.825   0.208   0.504 -1.8939 -0.1826  0.5631
   23MOL   H47611520   0.879   0.387   0.528  0.2927  0.5955 -1.1366
   23MOL   C47711521   1.358   0.076   7.510 -0.1688  0.3690  0.4778
   23MOL   C47811522   1.229   7.774   7.539 -0.3235 -0.1540  0.0018
   23MOL   O47911523   1.133   0.056   7.459  0.3593 -0.1434 -0.0273
   23MOL   C48011524   1.018   7.760   7.429 -0.3093  0.4258 -0.1460
   23MOL   C48111525   0.911   0.065   7.353 -0.2127 -0.2988  0.1110
   23MOL   C48211526   0.841   0.174   7.437 -1.1123  0.4338 -0.1267
   23MOL   C48311527   0.745   0.261   7.349  0.1121  0.1799  0.4157
   23MOL   C48411528   0.614   0.183   7.311 -0.1396 -0.0094  0.2004
   23MOL   C48511529   0.558   0.218   7.175  0.4303 -0.5274  0.0140
   23MOL   H48611530   1.368   0.109   7.406 -1.4521  1.8142  0.7965
   23MOL   H48711531   1.449   0.020   7.530  0.1174 -0.0025 -1.6756
   23MOL   H48811532   1.248   7.670   7.515  3.3475  0.8939 -1.9808
   23MOL   H48911533   0.974   7.723   7.522 -0.0354 -0.5513 -0.4021
   23MOL   H49011534   1.054   7.677   7.368 -0.2221  0.4782 -0.1645
   23MOL   H49111535   0.837   0.003   7.302  0.4540 -1.2869  0.3419
   23MOL   H49211536   0.969   0.118   7.277 -1.6988 -1.3151 -1.7867
   23MOL   H49311537   0.786   0.132   7.521 -0.9776  2.0362  0.7696
   23MOL   H49411538   0.911   0.245   7.479 -1.0237  0.5782 -0.5127
   23MOL   H49511539   0.722   0.352   7.404  0.4277  1.1865 -1.0759
   23MOL   H49611540   0.799   0.293   7.259 -1.1104 -0.2602 -0.4838
   23MOL   H49711541   0.635   0.077   7.299 -0.3637  0.0731 -0.9447
   23MOL   H49811542   0.549   0.184   7.399  1.2005  2.8748  1.2349
   23MOL   H49911543   0.449   0.219   7.174  0.3493 -0.2078  3.3006
   23MOL   H50011544   0.570   0.319   7.135  0.5397 -0.5435  0.0078
   23MOL   H50111545   0.584   0.151   7.094  0.0637 -1.4828  0.6807
   23MOL   H50211546   1.200   0.012   7.643  0.8434  0.7232  0.2174
   24MOL     C111547   2.271   0.326   2.443 -0.4142 -0.3270 -0.7161
   24MOL     C211548   2.142   0.257   2.396  0.1192  0.0904 -0.3404
   24MOL     O311549   2.170   0.186   2.270  0.2229 -0.5715 -0.0855
   24MOL     C411550   2.253   0.071   2.270 -0.0831  0.8487 -0.0831
   24MOL     C511551   2.192   7.725   2.340 -0.0678  0.9357 -0.0839
   24MOL     C611552   2.298   7.612   2.354  0.3625 -0.5549  0.7747
   24MOL     C711553   2.227   7.478   2.371  0.0222 -1.4321 -0.6735
   24MOL     C811554   2.327   7.367   2.371  0.1257  0.3955  0.3787
   24MOL     C911555   2.264   7.256   2.447  0.1010 -0.0675  0.8221
   24MOL    H1011556   2.298   0.404   2.372 -2.1459  0.5284 -0.4675
   24MOL    H1111557   2.250   0.378   2.536 -0.4533 -1.3134 -0.1585
   24MOL    H1211558   2.101   0.186   2.468 -0.7803 -0.3225 -1.2655
   24MOL    H1311559   2.347   0.093   2.320 -0.8521 -1.7858  2.6204
   24MOL    H1411560   2.279   0.053   2.165  1.2439  0.0389  0.3683
   24MOL    H1511561   2.110   7.682   2.283  0.2485  1.5673 -1.0240
   24MOL    H1611562   2.156   7.748   2.441 -1.7228  1.4327 -0.7739
   24MOL    H1711563   2.342   7.608   2.254 -1.8205 -0.4820 -0.2205
   24MOL    H1811564   2.371   7.638   2.430  1.2016  1.6561 -0.7110
   24MOL    H1911565   2.163   7.482   2.458  2.1087 -1.0981  0.8929
   24MOL    H2011566   2.156   7.446   2.294 -2.2942 -1.2829  1.3637
   24MOL    H2111567   2.420   7.391   2.423  0.4312  0.3912 -0.1650
   24MOL    H2211568   2.355   7.329   2.273  1.4449  0.3032  0.7734
   24MOL    H2311569   2.216   7.286   2.541 -0.6654  2.9445 -0.4755
   24MOL    H2411570   2.188   7.221   2.377 -1.2542  1.3135  1.5598
   24MOL    H2511571   2.335   7.175   2.465 -0.5808 -0.5356  1.4418
   24MOL    H2611572   2.350   0.256   2.468 -0.3097  0.2973  0.7711
   24MOL    C2711573   2.027   0.350   2.358  0.7318 -0.4186  0.2842
   24MOL    C2811574   1.944   0.401   2.469  0.1875  0.1849  0.1297
   24MOL    O2911575   1.850   0.484   2.415  0.2834  0.4030 -0.1896
   24MOL    C3011576   1.860   0.624   2.430 -0.4578 -0.3733  0.3463
   24MOL    C3111577   1.726   0.700   2.388  0.0257  0.0962 -0.6668
   24MOL    C3211578   1.742   0.847   2.394 -0.6050 -0.1582 -1.0798
   24MOL    C3311579   1.621   0.922   2.341 -0.3296 -0.1758  0.5309
   24MOL    C3411580   1.629   1.075   2.327 -0.2120  0.0011 -0.0602
   24MOL    C3511581   1.615   1.146   2.455 -0.3234 -0.1901  0.1427
   24MOL    H3611582   2.069   0.434   2.303  0.9255  0.5178  1.8339
   24MOL    H3711583   1.971   0.291   2.286  0.1238  2.5619 -1.7697
   24MOL    H3811584   2.005   0.453   2.543  0.0880  1.1077 -0.4295
   24MOL    H3911585   1.945   0.671   2.380 -0.5013 -1.0542 -0.3711
   24MOL    H4011586   1.868   0.655   2.534 -0.4228 -0.4200  0.3577
   24MOL    H4111587   1.637   0.668   2.441 -0.4053  1.1354 -0.7678
   24MOL    H4211588   1.707   0.672   2.284  1.2757 -1.8922 -0.3899
   24MOL    H4311589   1.762   0.881   2.495 -2.8795 -0.0332 -0.6427
   24MOL    H4411590   1.829   0.872   2.334 -0.6631  1.3445 -0.5700
   24MOL    H4511591   1.596   0.877   2.244  0.7062  0.2447  0.0632
   24MOL    H4611592   1.538   0.898   2.407 -0.5902 -1.5492 -0.2685
   24MOL    H4711593   1.720   1.101   2.273 -0.3389  0.2729 -0.1411
   24MOL    H4811594   1.551   1.096   2.254 -2.4605  1.7104  2.7707
   24MOL    H4911595   1.682   1.102   2.529  0.9484  0.3245 -0.6882
   24MOL    H5011596   1.627   1.255   2.456 -0.2976 -0.1605 -2.3867
   24MOL    H5111597   1.526   1.123   2.513 -0.3088 -1.2730 -0.2601
   24MOL    C5211598   1.849   0.297   2.546 -0.6486 -0.0752  0.3181
   24MOL    C5311599   1.792   0.379   2.666 -0.5501  0.2636  0.1813
   24MOL    O5411600   1.665   0.309   2.706  0.3114 -0.2631  0.4119
   24MOL    C5511601   1.554   0.352   2.630  0.3470 -0.0034 -0.1375
   24MOL    C5611602   1.448   0.235   2.625  0.3469 -0.0760  0.1633
   24MOL    C5711603   1.501   0.116   2.551  0.1223  0.4326  0.1097
   24MOL    C5811604   1.420   7.767   2.561 -0.0496  0.3574  0.6296
   24MOL    C5911605   1.411   7.706   2.700 -0.1639  1.1085 -0.2629
   24MOL    C6011606   1.325   7.579   2.696 -0.1523  0.3979  0.6968
   24MOL    H6111607   1.906   0.214   2.588  1.5989  2.2082  1.9814
   24MOL    H6211608   1.778   0.247   2.480 -0.3697  0.9347 -0.7604
   24MOL    H6311609   1.790   0.487   2.650  3.8747  0.4983  0.5968
   24MOL    H6411610   1.589   0.369   2.528  1.6544  0.7581  0.4165
   24MOL    H6511611   1.513   0.449   2.657  2.0933  1.8008 -3.6523
   24MOL    H6611612   1.358   0.262   2.569  1.5016  0.4610 -1.4504
   24MOL    H6711613   1.418   0.208   2.726 -2.3163  1.4884 -0.1397
   24MOL    H6811614   1.524   0.129   2.445 -0.1042 -1.1352 -0.1499
   24MOL    H6911615   1.598   0.095   2.595  1.0828 -0.9621 -2.5477
   24MOL    H7011616   1.321   0.021   2.528 -0.5119 -1.3702  0.3430
   24MOL    H7111617   1.452   7.693   2.488  0.8284 -0.7366  2.1014
   24MOL    H7211618   1.511   7.706   2.745 -0.2559 -1.1352  0.0355
   24MOL    H7311619   1.353   7.774   2.761 -0.2728 -1.7513  3.0033
   24MOL    H7411620   1.375   7.520   2.620  0.9166 -0.2156  1.8623
   24MOL    H7511621   1.312   7.513   2.782  1.6375 -1.1776 -0.1979
   24MOL    H7611622   1.222   7.606   2.672  0.5661  1.3873 -1.3623
   24MOL    C7711623   1.879   0.365   2.788 -0.3201 -0.4871  0.1372
   24MOL    C7811624   1.825   0.428   2.922 -0.2687  0.2835  0.0436
   24MOL    O7911625   1.833   0.566   2.905  0.1397  0.1645  0.6265
   24MOL    C8011626   1.800   0.650   3.016  0.5337 -0.2786  0.2112
   24MOL    C8111627   1.790   0.797   2.969  0.3312 -0.3692 -0.2874
   24MOL    C8211628   1.699   0.815   2.852 -0.1506  0.3598  0.6033
   24MOL    C8311629   1.551   0.792   2.890  0.0662 -0.4601 -0.1817
   24MOL    C8411630   1.435   0.835   2.793  0.7187 -0.3170  0.1170
   24MOL    C8511631   1.407   0.749   2.675  0.2375 -0.0276 -0.4036
   24MOL    H8611632   1.980   0.399   2.763 -0.4225  0.5995  1.1816
   24MOL    H8711633   1.890   0.257   2.803 -0.3678 -0.5381 -0.1872
   24MOL    H8811634   1.720   0.402   2.936 -0.6264  1.8989  0.4371
   24MOL    H8911635   1.870   0.642   3.099 -0.2035 -0.7478  0.7854
   24MOL    H9011636   1.713   0.626   3.077 -0.2662  2.1233  0.0988
   24MOL    H9111637   1.895   0.819   2.948  0.5260  0.5833  1.5132
   24MOL    H9211638   1.780   0.866   3.054  1.4132  0.7618 -1.0562
   24MOL    H9311639   1.710   0.917   2.814 -2.0200  0.6545  0.7877
   24MOL    H9411640   1.729   0.752   2.768 -4.4241  1.1936 -1.6683
   24MOL    H9511641   1.535   0.686   2.908  1.2668 -0.3297  1.7983
   24MOL    H9611642   1.535   0.839   2.988  4.1436 -1.2947  0.9821
   24MOL    H9711643   1.335   0.854   2.832  0.8888  1.7716 -0.4292
   24MOL    H9811644   1.463   0.927   2.742  0.3493 -0.2186  0.0923
   24MOL    H9911645   1.482   0.775   2.601  2.6625  0.7897  2.2662
   24MOL   H10011646   1.415   0.640   2.677  1.2638  0.0475 -0.3225
   24MOL   H10111647   1.308   0.772   2.636 -1.0194 -1.0129  2.0427
   24MOL   C10211648   1.910   0.385   3.046 -0.3062 -0.2421  0.3103
   24MOL   C10311649   1.917   0.240   3.069 -0.2706 -0.1989 -0.4996
   24MOL   O10411650   2.021   0.214   3.162 -0.7012 -0.3745 -0.4798
   24MOL   C10511651   2.146   0.174   3.108  0.5416  0.0066  0.9125
   24MOL   C10611652   2.241   0.149   3.226 -0.3064 -0.3854  0.6696
   24MOL   C10711653   2.313   0.273   3.284 -0.3560  0.7809  0.5805
   24MOL   C10811654   2.389   0.251   3.412 -0.1248 -0.1975  0.6913
   24MOL   C10911655   2.524   0.181   3.398  0.2341 -0.7271  0.0056
   24MOL   C11011656   2.600   0.181   3.528  0.2002  0.1918 -0.8345
   24MOL   H11111657   2.008   0.434   3.040 -1.3653  1.7474 -1.5653
   24MOL   H11211658   1.888   0.434   3.140 -1.1939 -0.7498  0.3675
   24MOL   H11311659   1.937   0.181   2.980 -0.7884 -0.1960 -0.6166
   24MOL   H11411660   2.191   0.249   3.043 -2.9119  1.1675 -0.2492
   24MOL   H11511661   2.139   0.079   3.054 -0.9109  1.0948 -0.8700
   24MOL   H11611662   2.319   0.077   3.203  2.0367  2.3868 -0.2701
   24MOL   H11711663   2.178   0.107   3.305 -0.0430 -2.1745 -0.0392
   24MOL   H11811664   2.384   0.309   3.209  1.4300 -1.3996  1.1448
   24MOL   H11911665   2.243   0.349   3.318 -1.8297  0.2281 -1.1867
   24MOL   H12011666   2.410   0.350   3.452  2.7506 -0.8850  0.9861
   24MOL   H12111667   2.318   0.212   3.485 -3.4283 -2.2858 -3.3937
   24MOL   H12211668   2.504   0.083   3.355  1.3022 -0.0171 -2.1989
   24MOL   H12311669   2.586   0.227   3.321 -0.5332 -0.2188 -0.3146
   24MOL   H12411670   2.698   0.136   3.509 -0.1643 -0.4144 -1.3004
   24MOL   H12511671   2.629   0.280   3.563  0.0609 -0.7496  2.0976
   24MOL   H12611672   2.548   0.131   3.610  1.6663 -0.1981 -0.1182
   24MOL   C12711673   1.793   0.185   3.146 -0.2685 -0.5249  0.0007
   24MOL   C12811674   1.790   0.033   3.153  0.5655 -0.0253 -0.1574
   24MOL   O12911675   1.771   7.771   3.021 -0.4511 -0.1665  0.6072
   24MOL   C13011676   1.868   7.663   2.982  0.1232 -0.2234  0.2498
   24MOL   C13111677   1.835   7.604   2.843  0.2450 -0.8268 -0.5773
   24MOL   C13211678   1.862   7.712   2.734 -0.7760 -0.0979 -0.6066
   24MOL   C13311679   1.879   7.647   2.596  0.2159 -0.2151 -0.0084
   24MOL   C13411680   1.760   7.586   2.523  0.1910 -0.0954  0.1022
   24MOL   C13511681   1.822   7.489   2.421 -0.1165  0.2973 -0.9081
   24MOL   H13611682   1.801   0.229   3.246 -1.8501  1.9177 -0.9008
   24MOL   H13711683   1.703   0.217   3.094 -1.6688 -0.3619  2.4166
   24MOL   H13811684   1.880   7.773   3.201  1.3148  0.9576 -0.7799
   24MOL   H13911685   1.875   7.585   3.058  0.3475  0.5585  1.0439
   24MOL   H14011686   1.972   7.695   2.991 -0.1359  0.3824  1.1795
   24MOL   H14111687   1.738   7.560   2.825 -1.2714  2.3017 -0.4106
   24MOL   H14211688   1.908   7.525   2.825  1.8261  0.4328  0.1880
   24MOL   H14311689   1.769   7.768   2.721 -2.4187 -2.2281  1.4039
   24MOL   H14411690   1.942   0.002   2.763 -0.1306 -1.5872  1.1971
   24MOL   H14511691   1.925   7.720   2.530  1.7294 -2.8053 -1.9187
   24MOL   H14611692   1.968   7.583   2.598  0.5885  0.2787 -0.7712
   24MOL   H14711693   1.682   7.549   2.590 -0.0097  1.1217  0.5352
   24MOL   H14811694   1.703   7.666   2.476 -1.4679 -0.6674  1.1188
   24MOL   H14911695   1.870   7.397   2.454  0.7734  0.8284 -0.7238
   24MOL   H15011696   1.749   7.450   2.349  0.1549  0.5085 -1.3009
   24MOL   H15111697   1.912   7.535   2.379  0.7953 -0.6085  0.0420
   24MOL   C15211698   1.675   7.753   3.238 -0.3173  0.4438 -0.0658
   24MOL   C15311699   1.684   7.603   3.261 -0.1207  0.3768  0.4078
   24MOL   O15411700   1.800   7.579   3.340  0.3181  0.5020 -0.1145
   24MOL   C15511701   1.857   7.444   3.337 -0.5380  0.8695  0.3047
   24MOL   C15611702   1.986   7.443   3.419  0.2448  0.0919  0.5994
   24MOL   C15711703   2.094   7.534   3.347  0.3479 -1.1667 -0.2700
   24MOL   C15811704   2.232   7.549   3.418  0.0975  0.4707  0.3872
   24MOL   C15911705   2.229   7.631   3.549 -0.1604  0.1754  0.3948
   24MOL   C16011706   2.371   7.648   3.619  0.4845  0.3478 -0.4626
   24MOL   H16111707   1.668   0.010   3.342 -1.8931 -0.3854  0.1145
   24MOL   H16211708   1.585   0.010   3.188  1.6659  3.7460 -1.5088
   24MOL   H16311709   1.688   7.544   3.169 -2.1075  0.8941 -0.0325
   24MOL   H16411710   1.872   7.410   3.235  0.2730 -1.0998  1.0423
   24MOL   H16511711   1.786   7.376   3.386 -1.7585  1.7381 -0.2287
   24MOL   H16611712   2.018   7.340   3.436 -2.3533 -0.9017 -0.2804
   24MOL   H16711713   1.974   7.481   3.520  0.2636  1.2674  0.1623
   24MOL   H16811714   2.103   7.516   3.240 -1.3978 -1.4068 -0.3970
   24MOL   H16911715   2.051   7.634   3.351 -2.2426 -2.1486 -1.8612
   24MOL   H17011716   2.275   7.450   3.436  1.5926  1.2457  1.1372
   24MOL   H17111717   2.296   7.611   3.355  0.0720  1.1713  1.0522
   24MOL   H17211718   2.197   7.733   3.529 -1.0145 -0.4050 -1.2653
   24MOL   H17311719   2.154   7.586   3.614 -0.4728  0.5864  0.3217
   24MOL   H17411720   2.352   7.682   3.721 -0.6960 -0.7473 -0.2975
   24MOL   H17511721   2.421   7.551   3.619 -1.3209 -0.6083 -0.9480
   24MOL   H17611722   2.423   7.727   3.564  2.1735 -0.2348  0.3017
   24MOL   C17711723   1.561   7.538   3.336  0.5000  0.1327 -0.1164
   24MOL   C17811724   1.473   7.443   3.252 -0.3352 -0.0999  0.5655
   24MOL   O17911725   1.543   7.322   3.241  0.7608  0.1035  0.5144
   24MOL   C18011726   1.517   7.257   3.118 -0.0524 -0.1817  0.0535
   24MOL   C18111727   1.567   7.326   2.984 -0.1380  0.0626  0.7546
   24MOL   C18211728   1.535   7.242   2.859  0.4738  0.5510 -0.3040
   24MOL   C18311729   1.570   7.280   2.720  0.6619 -0.1034  0.2424
   24MOL   C18411730   1.526   7.182   2.609  0.3832  0.6369  0.5985
   24MOL   C18511731   1.540   7.248   2.468 -0.7191  0.3960  0.1623
   24MOL   H18611732   1.593   7.481   3.423  0.0994  1.9005  1.2083
   24MOL   H18711733   1.494   7.620   3.364  0.6704  0.5024 -0.7920
   24MOL   H18811734   1.447   7.499   3.161  0.1147 -0.4437  0.2239
   24MOL   H18911735   1.409   7.254   3.102 -0.0502  3.1716 -0.8458
   24MOL   H19011736   1.561   7.157   3.122  1.0486  0.1923 -2.0095
   24MOL   H19111737   1.674   7.349   2.987  0.0072 -0.4702 -0.1378
   24MOL   H19211738   1.523   7.424   2.964  0.0514  0.2151  1.0844
   24MOL   H19311739   1.588   7.147   2.870 -0.3023  0.2314  0.7224
   24MOL   H19411740   1.432   7.208   2.870  0.7350  0.2024  1.2664
   24MOL   H19511741   1.534   7.379   2.692 -0.1142 -0.0347  1.4674
   24MOL   H19611742   1.679   7.287   2.714  0.7067 -0.9831 -0.0886
   24MOL   H19711743   1.580   7.088   2.606  0.6292  0.7579  1.2126
   24MOL   H19811744   1.421   7.157   2.619  1.0127 -4.4021 -3.3916
   24MOL   H19911745   1.501   7.349   2.477 -1.2952  0.0475  1.7753
   24MOL   H20011746   1.646   7.254   2.446 -1.0922  1.2070 -1.5484
   24MOL   H20111747   1.490   7.194   2.387  1.3055 -2.5901  0.8132
   24MOL   C20211748   1.346   7.397   3.329  0.1855  0.0046  0.4411
   24MOL   C20311749   1.223   7.467   3.268  0.0712  0.2006 -0.2324
   24MOL   O20411750   1.220   7.438   3.128 -0.2286 -0.5765  0.4940
   24MOL   C20511751   1.105   7.371   3.077 -0.5554 -0.1242 -0.1800
   24MOL   C20611752   1.110   7.375   2.923  0.1564  0.2978 -0.6656
   24MOL   C20711753   0.997   7.297   2.855  0.1209 -0.7521 -0.1523
   24MOL   C20811754   1.044   7.246   2.718 -0.5388 -0.1297 -0.2644
   24MOL   C20911755   1.119   7.109   2.730 -0.6848  0.4475 -0.8785
   24MOL   C21011756   1.137   7.042   2.592  0.3076  0.1586  0.0918
   24MOL   H21111757   1.339   7.290   3.344 -1.3567 -0.1591 -1.2597
   24MOL   H21211758   1.363   7.437   3.429 -0.1588  2.6254 -0.4935
   24MOL   H21311759   1.143   7.405   3.309  1.5106 -1.4512  0.1829
   24MOL   H21411760   1.014   7.427   3.101  1.1766  2.1631  1.2411
   24MOL   H21511761   1.094   7.271   3.120 -1.0636 -0.1449 -0.3505
   24MOL   H21611762   1.208   7.337   2.895  0.0115  1.0549 -2.2439
   24MOL   H21711763   1.098   7.481   2.903 -2.6577  0.1975  0.2953
   24MOL   H21811764   0.970   7.213   2.918  0.1874 -0.4374  0.2926
   24MOL   H21911765   0.906   7.356   2.850  0.5362 -0.0390  0.5895
   24MOL   H22011766   0.952   7.228   2.662  0.2110 -0.7974 -1.3059
   24MOL   H22111767   1.112   7.319   2.673 -0.1509  0.4689  1.2554
   24MOL   H22211768   1.214   7.121   2.782  0.3220 -2.0796 -2.0727
   24MOL   H22311769   1.056   7.040   2.787  1.0005 -0.7992 -0.4754
   24MOL   H22411770   1.189   6.946   2.594  1.8843  0.9635 -1.0644
   24MOL   H22511771   1.043   7.021   2.541  0.7602  0.9173 -1.0736
   24MOL   H22611772   1.198   7.103   2.526  0.0453 -0.1187 -0.4170
   24MOL   C22711773   1.197   7.622   3.287  0.8233  0.4242  0.0744
   24MOL   C22811774   1.160   7.665   3.432 -0.1780 -0.3700 -0.1238
   24MOL   O22911775   1.284   7.660   3.501 -0.1493  0.1687 -0.1475
   24MOL   C23011776   1.285   7.602   3.634 -0.1582  0.3438 -0.3672
   24MOL   C23111777   1.428   7.622   3.690 -0.7454  0.0298 -0.0085
   24MOL   C23211778   1.444   7.563   3.831  0.4305 -0.0376 -0.1971
   24MOL   C23311779   1.439   7.410   3.849 -0.5975 -0.1539  0.0236
   24MOL   C23411780   1.522   7.325   3.753  0.3558 -0.4650 -0.1989
   24MOL   C23511781   1.673   7.350   3.746 -0.1643  0.2913 -0.3622
   24MOL   H23611782   1.284   7.681   3.255  1.4919 -1.0202 -0.8037
   24MOL   H23711783   1.120   7.647   3.215  1.4119 -0.4057 -0.8552
   24MOL   H23811784   1.088   7.597   3.476 -1.4047  1.2301  0.3880
   24MOL   H23911785   1.248   7.500   3.622  1.1249 -0.0095 -1.5093
   24MOL   H24011786   1.214   7.658   3.694  0.6405  1.5935 -0.5587
   24MOL   H24111787   1.452   7.728   3.693  0.0750 -0.1037 -1.2653
   24MOL   H24211788   1.486   7.567   3.615 -3.8417 -1.2997 -1.5716
   24MOL   H24311789   1.547   7.589   3.857 -0.0359  0.7909  0.8376
   24MOL   H24411790   1.381   7.622   3.897  0.3540  0.6749 -0.9039
   24MOL   H24511791   1.484   7.401   3.948  2.2477 -1.4661 -1.3309
   24MOL   H24611792   1.331   7.391   3.847 -0.6461  0.2266 -2.8749
   24MOL   H24711793   1.509   7.217   3.759 -3.1770 -0.0910 -0.1926
   24MOL   H24811794   1.480   7.346   3.654 -2.2483 -0.4910  0.8620
   24MOL   H24911795   1.702   7.449   3.710  1.4775 -0.5800 -1.5203
   24MOL   H25011796   1.709   7.351   3.849  1.9349 -0.2114 -1.0576
   24MOL   H25111797   1.715   7.271   3.683 -2.3627 -1.4372  0.2867
   24MOL   C25211798   1.108   0.035   3.452  0.1910 -0.4220 -0.1168
   24MOL   C25311799   0.977   0.063   3.385  0.5203 -0.4070  0.0616
   24MOL   O25411800   0.943   0.203   3.398 -0.8926  0.3793  0.0771
   24MOL   C25511801   0.992   0.291   3.291  0.6935  0.1248 -1.2433
   24MOL   C25611802   0.913   0.280   3.164  0.6400 -0.7229  0.0325
   24MOL   C25711803   0.788   0.370   3.173  0.0943 -0.4795 -0.3167
   24MOL   C25811804   0.702   0.364   3.047 -0.3586 -0.0498 -0.0292
   24MOL   C25911805   0.601   0.479   3.054 -0.0150  0.1916 -0.1040
   24MOL   C26011806   0.660   0.624   3.055 -0.1645  0.3662  0.1177
   24MOL   H26111807   1.092   0.063   3.556 -0.2380 -2.0414  0.2650
   24MOL   H26211808   1.181   0.097   3.400  0.6921 -0.6296  0.3320
   24MOL   H26311809   0.993   0.029   3.283  2.1307  1.6244 -0.3986
   24MOL   H26411810   1.097   0.265   3.273  0.7363 -1.0926  0.6292
   24MOL   H26511811   0.995   0.393   3.328  0.6050 -0.6806  1.0204
   24MOL   H26611812   0.896   0.175   3.137  0.2910 -0.7357  0.2949
   24MOL   H26711813   0.977   0.309   3.081  1.4320 -0.9353  0.5671
   24MOL   H26811814   0.725   0.351   3.260  0.2482 -2.1000 -0.5362
   24MOL   H26911815   0.810   0.475   3.191  1.8467 -0.9085  0.1793
   24MOL   H27011816   0.772   0.367   2.963  0.1993  1.9736  0.4844
   24MOL   H27111817   0.663   0.262   3.052 -0.1909 -0.1820 -1.1620
   24MOL   H27211818   0.528   0.466   2.974  0.2106 -1.7236 -0.0255
   24MOL   H27311819   0.545   0.462   3.146  0.9022 -0.9287  0.2616
   24MOL   H27411820   0.591   0.700   3.017 -0.7438  0.4337  1.2714
   24MOL   H27511821   0.696   0.668   3.148 -0.3765  0.1734  0.2920
   24MOL   H27611822   0.742   0.631   2.984 -0.7830 -2.0670 -0.8751
   24MOL   C27711823   0.858   7.761   3.444  0.4819  0.5250  0.0716
   24MOL   C27811824   0.729   7.757   3.351 -0.9289  0.1716 -0.2549
   24MOL   O27911825   0.763   7.662   3.248  0.4804 -0.1486  0.1440
   24MOL   C28011826   0.700   7.681   3.118  0.0241 -0.4601  0.1714
   24MOL   C28111827   0.760   7.601   3.005  0.0028 -0.1368 -0.8282
   24MOL   C28211828   0.876   7.654   2.917 -0.1910  0.4784 -0.1743
   24MOL   C28311829   0.846   0.024   2.878  0.6499 -0.2426 -0.6282
   24MOL   C28411830   0.959   0.090   2.796 -0.6198 -0.5247  0.5950
   24MOL   C28511831   1.096   0.072   2.863  0.8369 -0.6898 -0.0601
   24MOL   H28611832   0.880   7.656   3.459  1.7829  0.9823  1.4868
   24MOL   H28711833   0.833   0.031   3.539  1.3766 -2.0748  1.6388
   24MOL   H28811834   0.700   0.078   3.314  1.8414  1.3477  0.5388
   24MOL   H28911835   0.689   0.010   3.098 -1.6155 -0.6844 -0.1930
   24MOL   H29011836   0.598   7.649   3.142 -0.3318  1.7463  1.6717
   24MOL   H29111837   0.680   7.596   2.931  0.4264 -0.5114 -1.2591
   24MOL   H29211838   0.779   7.498   3.036  1.2966  0.8186  1.7245
   24MOL   H29311839   0.972   7.651   2.968  0.2569 -0.4104 -1.0551
   24MOL   H29411840   0.884   7.602   2.822 -0.4096  0.4608 -0.1834
   24MOL   H29511841   0.756   0.045   2.820  1.8320  0.2682 -2.3421
   24MOL   H29611842   0.841   0.078   2.972  0.3955  0.2082 -0.8983
   24MOL   H29711843   0.967   0.041   2.699 -0.9304 -1.9848  1.2955
   24MOL   H29811844   0.932   0.195   2.786  2.3587  0.2620  0.5687
   24MOL   H29911845   1.110   0.116   2.962 -1.2210 -1.1073  0.4475
   24MOL   H30011846   1.134   7.747   2.870  0.4156 -0.7851  0.9932
   24MOL   H30111847   1.180   0.111   2.805  1.1827 -0.1669  0.7868
   24MOL   C30211848   0.601   7.707   3.421  0.2444  0.3385  0.4052
   24MOL   C30311849   0.540   0.028   3.527  0.4001  0.2356  0.2417
   24MOL   O30411850   0.598   0.016   3.655  0.1326  0.4617 -0.9012
   24MOL   C30511851   0.578   0.127   3.750 -0.9368  0.0023 -0.0805
   24MOL   C30611852   0.687   0.103   3.861 -0.1492  0.5830 -0.1875
   24MOL   C30711853   0.653   0.195   3.972 -0.4071  0.3783  0.3413
   24MOL   C30811854   0.761   0.211   4.078  0.6992  0.4190 -0.0400
   24MOL   C30911855   0.709   0.304   4.192  0.4864  0.4718  0.0924
   24MOL   C31011856   0.795   0.292   4.312  0.8705 -0.4174  0.5285
   24MOL   H31111857   0.527   7.721   3.342  0.9398  0.7178 -0.1812
   24MOL   H31211858   0.614   7.603   3.451 -3.7460 -0.5502 -0.7393
   24MOL   H31311859   0.546   0.130   3.488  1.0156  0.2190  0.2907
   24MOL   H31411860   0.475   0.120   3.785 -0.0141  0.1532  2.8089
   24MOL   H31511861   0.579   0.220   3.694 -0.7915  0.2130  0.2712
   24MOL   H31611862   0.783   0.121   3.813 -0.5427 -1.1142 -1.6625
   24MOL   H31711863   0.677   0.000   3.896  1.3461  0.8329  0.9967
   24MOL   H31811864   0.639   0.287   3.917  1.7870 -0.0355 -0.9921
   24MOL   H31911865   0.558   0.173   4.020 -0.1849  0.4435  0.8125
   24MOL   H32011866   0.783   0.112   4.116  0.4288 -0.5297 -2.2594
   24MOL   H32111867   0.848   0.259   4.033 -0.8812  2.0356 -1.4865
   24MOL   H32211868   0.711   0.412   4.173 -0.7938  1.1103  3.2273
   24MOL   H32311869   0.606   0.274   4.210 -0.4404  3.0483 -0.5528
   24MOL   H32411870   0.752   0.349   4.394  3.5197 -0.7653  2.2292
   24MOL   H32511871   0.798   0.188   4.344  0.6823 -1.7903 -3.5596
   24MOL   H32611872   0.901   0.309   4.295  1.2149 -1.3122  1.7026
   24MOL   C32711873   0.389   7.753   3.558 -0.7583 -0.3749  0.2493
   24MOL   C32811874   0.277   7.774   3.450 -0.5912 -0.7999 -0.2697
   24MOL   O32911875   0.147   7.737   3.494 -0.4073  0.4851 -0.3388
   24MOL   C33011876   0.109   7.601   3.505 -0.3489 -0.2277  0.6526
   24MOL   C33111877   7.739   7.604   3.554  0.0951 -0.2762 -0.8002
   24MOL   C33211878   7.716   7.704   3.671  0.1669 -0.3379  0.5443
   24MOL   C33311879   7.587   7.679   3.746 -0.1197  0.0038  0.3896
   24MOL   C33411880   7.555   7.544   3.805 -0.8122 -0.8417  0.1853
   24MOL   C33511881   7.410   7.500   3.797 -0.2347 -0.5156  0.5464
   24MOL   H33611882   0.355   0.018   3.653 -1.5643 -0.2142 -0.1067
   24MOL   H33711883   0.411   7.648   3.580  0.5359 -0.5652 -1.8460
   24MOL   H33811884   0.298   7.714   3.361 -1.5572 -0.3264 -0.8251
   24MOL   H33911885   0.173   7.548   3.575  0.5012 -0.3668 -0.2289
   24MOL   H34011886   0.109   7.553   3.408 -2.1209 -0.4971  0.7768
   24MOL   H34111887   7.709   7.500   3.561  1.4920 -0.5740  1.2500
   24MOL   H34211888   7.686   7.646   3.469 -1.2418 -0.2344  0.0347
   24MOL   H34311889   0.019   7.680   3.740  1.3762 -0.7144 -0.9667
   24MOL   H34411890   7.717   0.030   3.637  1.7701 -1.0207 -1.5748
   24MOL   H34511891   7.563   7.750   3.826  1.5004 -0.5079  1.3513
   24MOL   H34611892   7.510   7.690   3.670  1.3496  1.5794 -0.9206
   24MOL   H34711893   7.627   7.472   3.767 -1.8650 -0.6891 -2.1549
   24MOL   H34811894   7.582   7.546   3.911  0.4057 -1.6834 -0.1064
   24MOL   H34911895   7.376   7.496   3.694 -1.8326 -0.2857  1.0487
   24MOL   H35011896   7.387   7.398   3.826  0.4877 -0.5165  1.1617
   24MOL   H35111897   7.338   7.561   3.852  0.9122 -0.1449  1.6794
   24MOL   C35211898   0.251   0.149   3.418  0.2545 -0.0447 -0.2251
   24MOL   C35311899   0.179   0.160   3.282 -0.0509 -0.2859 -0.1949
   24MOL   O35411900   0.260   0.108   3.180 -0.2324  0.0251  0.2301
   24MOL   C35511901   0.196   0.021   3.084 -0.5610 -0.3683 -0.3502
   24MOL   C35611902   0.295   7.776   2.961 -0.5221 -0.0553 -0.6538
   24MOL   C35711903   0.327   0.138   2.906 -0.2196  0.4120  0.2909
   24MOL   C35811904   0.420   0.129   2.786  0.5497 -0.1203  0.5771
   24MOL   C35911905   0.445   0.269   2.728  0.8646  0.2749  0.0070
   24MOL   C36011906   0.585   0.278   2.658 -0.2891  0.1394  0.0174
   24MOL   H36111907   0.193   0.201   3.495  1.5097  1.0437  0.0125
   24MOL   H36211908   0.343   0.207   3.427 -0.2086  0.5692  0.6928
   24MOL   H36311909   0.099   0.089   3.303 -1.5872  1.6541  0.5494
   24MOL   H36411910   0.103   0.057   3.042 -1.4940  0.6033  2.4436
   24MOL   H36511911   0.170   7.704   3.133 -0.1802 -0.5078 -0.4105
   24MOL   H36611912   0.240   7.721   2.885  2.3647 -1.3744 -1.8735
   24MOL   H36711913   0.392   7.734   2.988 -0.7037 -0.8985 -1.3035
   24MOL   H36811914   0.233   0.174   2.863  2.5482  5.6336 -1.7459
   24MOL   H36911915   0.358   0.206   2.985 -0.0115 -1.0348  1.4894
   24MOL   H37011916   0.514   0.090   2.826  1.6473  2.0789  0.2247
   24MOL   H37111917   0.374   0.057   2.718 -0.1102  1.8607 -1.1419
   24MOL   H37211918   0.361   0.291   2.662  1.1248 -1.2514 -0.8712
   24MOL   H37311919   0.448   0.348   2.803  1.2085  0.8552 -0.6159
   24MOL   H37411920   0.586   0.210   2.573 -1.2577  1.1816 -0.8338
   24MOL   H37511921   0.617   0.377   2.627  3.7193 -1.7590 -2.3232
   24MOL   H37611922   0.667   0.255   2.727 -0.1346 -3.3624 -1.2204
   24MOL   C37711923   0.143   0.309   3.239 -0.4092  0.0960 -0.6069
   24MOL   C37811924   0.057   0.375   3.334  0.0327  0.8334 -0.1767
   24MOL   O37911925   7.714   0.305   3.341 -0.3072  0.1549 -0.6788
   24MOL   C38011926   7.674   0.277   3.469  0.4991  0.1338  0.5499
   24MOL   C38111927   7.520   0.269   3.476 -0.0747  1.0972 -0.2877
   24MOL   C38211928   7.482   0.257   3.627 -0.1217 -0.9774 -0.2827
   24MOL   C38311929   7.331   0.230   3.655  0.1017  0.1463  0.3286
   24MOL   C38411930   7.318   0.189   3.806  0.6359  0.0287 -0.3223
   24MOL   C38511931   7.329   0.311   3.893  0.0275  0.3963  0.2160
   24MOL   H38611932   0.237   0.365   3.231  0.5020 -1.3904 -0.5386
   24MOL   H38711933   0.084   0.322   3.148 -2.1310  1.2206  0.6472
   24MOL   H38811934   0.115   0.391   3.424 -0.2846 -0.3248  0.2472
   24MOL   H38911935   7.702   0.355   3.540 -1.4909 -1.0179  2.6556
   24MOL   H39011936   7.713   0.177   3.488  0.8037 -0.1490 -1.4349
   24MOL   H39111937   7.479   0.186   3.419 -1.6808  0.6303  1.5046
   24MOL   H39211938   7.470   0.354   3.430 -2.5064  0.4849  1.1484
   24MOL   H39311939   7.544   0.172   3.658  3.4489  1.6075 -0.0178
   24MOL   H39411940   7.533   0.338   3.678  0.3118  0.2069 -2.5401
   24MOL   H39511941   7.273   0.319   3.631 -0.6304  0.3218  2.6074
   24MOL   H39611942   7.298   0.147   3.594 -1.5715  2.4087 -1.9654
   24MOL   H39711943   7.216   0.155   3.818  0.2938  0.8576 -0.8250
   24MOL   H39811944   7.394   0.116   3.834  0.6917  0.2333  0.0621
   24MOL   H39911945   7.315   0.293   3.999  1.0331  2.2936  0.7015
   24MOL   H40011946   7.426   0.359   3.881  1.2254 -1.8896  0.4974
   24MOL   H40111947   7.250   0.381   3.864 -2.6453 -2.6444 -0.0468
   24MOL   C40211948   0.019   0.521   3.281 -0.0084  0.3971 -0.4296
   24MOL   C40311949   0.127   0.629   3.282  0.3188 -0.1997  0.0356
   24MOL   O40411950   0.198   0.605   3.407  0.1131  0.3348  0.3206
   24MOL   C40511951   0.340   0.625   3.390 -0.1684 -0.0138 -0.7862
   24MOL   C40611952   0.423   0.584   3.513 -0.1504 -0.8774 -0.4822
   24MOL   C40711953   0.572   0.567   3.493  0.3995  1.0990  0.7300
   24MOL   C40811954   0.653   0.549   3.623 -0.0710  0.2865  0.6736
   24MOL   C40911955   0.804   0.519   3.590 -0.1268 -0.3386  0.5303
   24MOL   C41011956   0.890   0.644   3.562  0.5982  0.1623 -0.4489
   24MOL   H41111957   7.727   0.555   3.358  2.0178  1.6231  0.8981
   24MOL   H41211958   7.737   0.521   3.189  3.1911 -0.8518 -2.6046
   24MOL   H41311959   0.191   0.619   3.194 -1.3941  0.2303 -1.2825
   24MOL   H41411960   0.352   0.730   3.366  2.0787  0.5975  2.6429
   24MOL   H41511961   0.368   0.565   3.303 -1.9570  2.5040 -3.1615
   24MOL   H41611962   0.385   0.491   3.556 -1.5520 -0.5048 -0.8869
   24MOL   H41711963   0.402   0.647   3.599  1.4168  0.8695 -1.3415
   24MOL   H41811964   0.581   0.484   3.423 -0.5896  1.0808  0.6135
   24MOL   H41911965   0.618   0.641   3.427 -1.6992  0.7256 -1.1904
   24MOL   H42011966   0.643   0.639   3.684 -1.0779  1.3870 -1.0490
   24MOL   H42111967   0.612   0.466   3.681 -0.4132 -0.5420 -0.7107
   24MOL   H42211968   0.849   0.473   3.678  0.4892 -0.6215  0.0730
   24MOL   H42311969   0.817   0.439   3.516 -0.2692 -1.4838  1.7289
   24MOL   H42411970   0.896   0.713   3.646  0.2162 -1.3430  0.8286
   24MOL   H42511971   0.992   0.617   3.534  0.6950 -0.2676  0.3129
   24MOL   H42611972   0.847   0.688   3.472  0.5887  1.3758  0.1477
   24MOL   C42711973   0.074   0.772   3.280  0.6405  0.3987  0.5634
   24MOL   C42811974   7.760   0.801   3.158  0.1750  0.5498 -0.1526
   24MOL   O42911975   7.695   0.923   3.185  0.1293 -0.0031  0.3242
   24MOL   C43011976   7.572   0.937   3.113  0.2171 -0.4165  1.0617
   24MOL   C43111977   7.527   1.084   3.108 -0.0619  0.6501 -0.3078
   24MOL   C43211978   7.431   1.119   2.997  0.1796  0.7522 -0.2923
   24MOL   C43311979   7.349   1.236   3.020 -0.0705  0.0941  0.3363
   24MOL   C43411980   7.212   1.236   2.944 -0.0712 -0.8836 -0.4583
   24MOL   C43511981   7.120   1.352   2.975 -0.0306  0.0587  0.1291
   24MOL   H43611982   0.018   0.793   3.372 -1.5984  0.9931 -0.9044
   24MOL   H43711983   0.158   0.842   3.275 -1.4016  2.7615 -2.3657
   24MOL   H43811984   7.683   0.724   3.171  1.8759 -0.9731  1.2009
   24MOL   H43911985   7.503   0.874   3.168  2.2197 -2.3755  1.4199
   24MOL   H44011986   7.586   0.901   3.012 -0.4984 -1.8855  1.4835
   24MOL   H44111987   7.619   1.139   3.089  0.5430  0.5298  2.1541
   24MOL   H44211988   7.488   1.111   3.206 -0.2454 -1.8456  0.3397
   24MOL   H44311989   7.475   1.114   2.897  0.3335 -0.5787 -0.1667
   24MOL   H44411990   7.357   1.040   2.993  0.4125  0.5840 -1.6616
   24MOL   H44511991   7.315   1.248   3.122  0.6692 -0.1984  0.6197
   24MOL   H44611992   7.411   1.326   3.013  1.4203 -1.0368 -1.3069
   24MOL   H44711993   7.240   1.233   2.839  0.9519  0.8102 -0.2352
   24MOL   H44811994   7.169   1.138   2.968  0.0137 -1.4772 -2.5748
   24MOL   H44911995   7.040   1.378   2.906 -0.2447  0.4189  0.5173
   24MOL   H45011996   7.064   1.330   3.065  1.0485 -4.0738 -0.0895
   24MOL   H45111997   7.187   1.435   3.000 -0.5583  0.2059  1.0655
   24MOL   C45211998   0.055   0.799   3.025 -0.5023  0.9238  0.6364
   24MOL   C45311999   0.074   0.663   2.950 -0.1440 -0.2270  0.4614
   24MOL   O45412000   0.168   0.657   2.848  0.3581 -0.0980  0.1999
   24MOL   C45512001   0.307   0.630   2.894  0.7352 -0.0437  0.3514
   24MOL   C45612002   0.400   0.661   2.776  0.3485 -0.5439 -0.5068
   24MOL   C45712003   0.410   0.811   2.745 -0.6050 -0.4321  0.1616
   24MOL   C45812004   0.495   0.835   2.617 -0.2693 -0.5055 -0.0330
   24MOL   C45912005   0.530   0.981   2.588 -0.3772 -0.3196 -0.5889
   24MOL   C46012006   0.410   1.075   2.549 -0.6996  0.1974 -0.0370
   24MOL   H46112007   0.022   0.877   2.955  0.6429  0.9602  0.1235
   24MOL   H46212008   0.155   0.836   3.047 -0.6923  2.1856 -0.5300
   24MOL   H46312009   0.085   0.582   3.022 -1.3922 -1.8901 -1.1706
   24MOL   H46412010   0.315   0.527   2.931  0.5469 -0.1136  0.1990
   24MOL   H46512011   0.330   0.694   2.979  1.4780 -1.8896  1.5647
   24MOL   H46612012   0.370   0.604   2.687 -0.6575 -0.4792 -0.2208
   24MOL   H46712013   0.501   0.621   2.786 -0.0282 -0.8736  2.5432
   24MOL   H46812014   0.311   0.856   2.749 -0.7419 -0.8776  2.1821
   24MOL   H46912015   0.460   0.863   2.827  0.0404 -0.9967  0.1320
   24MOL   H47012016   0.576   0.762   2.624 -0.6616 -0.9537 -0.1735
   24MOL   H47112017   0.436   0.813   2.528 -1.2265  1.1042  0.1938
   24MOL   H47212018   0.570   1.035   2.674 -3.5789  0.0294  0.7274
   24MOL   H47312019   0.602   0.985   2.506 -0.8192 -3.1241 -1.1570
   24MOL   H47412020   0.337   1.071   2.629 -0.2249 -0.5098  0.3681
   24MOL   H47512021   0.457   1.172   2.530 -0.9161  0.4937  0.9180
   24MOL   H47612022   0.366   1.034   2.458  1.2596 -0.8688 -0.5356
   24MOL   C47712023   7.723   0.621   2.877  0.7355  0.1932  0.2301
   24MOL   C47812024   7.711   0.470   2.851 -0.0916  0.0050 -0.7032
   24MOL   O47912025   7.668   0.399   2.971 -0.0101 -0.2149 -0.2458
   24MOL   C48012026   7.596   0.283   2.929  0.1214  0.5294  0.8737
   24MOL   C48112027   7.566   0.193   3.054 -0.2317 -0.1921 -0.6172
   24MOL   C48212028   7.496   0.067   3.000 -0.4719  0.7369  0.0361
   24MOL   C48312029   7.462   7.753   3.112  0.2796 -0.6197  0.5419
   24MOL   C48412030   7.370   7.635   3.064  0.3626 -0.1801  0.2783
   24MOL   C48512031   7.437   7.527   2.968 -0.1924  0.0393 -0.2017
   24MOL   H48612032   7.625   0.641   2.920  0.3396 -0.2633 -0.4403
   24MOL   H48712033   7.712   0.675   2.783  1.0538 -0.6991 -0.3292
   24MOL   H48812034   7.651   0.443   2.764  1.3355  0.4358 -1.8375
   24MOL   H48912035   7.665   0.226   2.867  0.6369  2.4518 -0.3531
   24MOL   H49012036   7.507   0.299   2.869  2.5432  1.3526 -2.6964
   24MOL   H49112037   7.501   0.248   3.123  0.9191  0.3966  0.0113
   24MOL   H49212038   7.655   0.162   3.109 -1.0954 -1.1668  0.2522
   24MOL   H49312039   7.406   0.097   2.947 -0.3825  0.6780 -0.1494
   24MOL   H49412040   7.551   0.015   2.922 -1.2191 -0.2299  0.1442
   24MOL   H49512041   7.551   7.721   3.166  1.3781  0.8456 -0.3502
   24MOL   H49612042   7.404   0.027   3.189 -0.7687  0.7305 -1.1160
   24MOL   H49712043   7.351   7.586   3.160 -1.0916  2.1611  1.2253
   24MOL   H49812044   7.276   7.670   3.022  0.2881  0.4468  0.9626
   24MOL   H49912045   7.365   7.454   2.932  0.0038  0.7723 -2.1749
   24MOL   H50012046   7.486   7.566   2.878 -0.2121 -0.1060 -0.2756
   24MOL   H50112047   7.503   7.463   3.026 -0.6878  1.4502  1.9892
   24MOL   H50212048   0.033   0.434   2.823 -0.7876 -1.1150 -1.7891
   25MOL     C112049   3.621   3.338   2.634 -0.6921 -0.5775 -0.6454
   25MOL     C212050   3.548   3.283   2.755 -0.0855  0.1612  0.9840
   25MOL     O312051   3.596   3.162   2.816 -0.3863  0.3216  0.1429
   25MOL     C412052   3.717   3.172   2.888 -0.5797  0.6526 -0.5037
   25MOL     C512053   3.738   3.039   2.955 -0.3697 -0.2073  0.2788
   25MOL     C612054   3.801   2.938   2.855 -0.1634  0.4681  0.5170
   25MOL     C712055   3.809   2.795   2.914  0.2682  0.0900  0.6808
   25MOL     C812056   3.912   2.700   2.835  1.1167 -0.6695 -0.0873
   25MOL     C912057   3.958   2.581   2.928  0.3927 -0.1152 -0.4609
   25MOL    H1012058   3.609   3.270   2.549  2.2164 -0.2566 -1.3892
   25MOL    H1112059   3.573   3.427   2.595  0.8080  1.2875  1.6386
   25MOL    H1212060   3.548   3.352   2.840  1.2848  0.6016  0.6398
   25MOL    H1312061   3.713   3.262   2.949 -0.0264  0.7993 -0.6794
   25MOL    H1412062   3.804   3.189   2.824  0.8605 -3.3209  0.2649
   25MOL    H1512063   3.637   3.015   2.988 -0.8616 -0.7387 -1.5160
   25MOL    H1612064   3.810   3.060   3.034  0.7205  0.4235 -0.8551
   25MOL    H1712065   3.734   2.950   2.770  1.8659 -2.4163 -1.5734
   25MOL    H1812066   3.903   2.964   2.829 -0.0966  0.4848  0.7886
   25MOL    H1912067   3.847   2.804   3.016  1.7231 -1.7870  0.3247
   25MOL    H2012068   3.707   2.758   2.925  0.2165  0.4229  1.4276
   25MOL    H2112069   3.994   2.763   2.802  1.4677 -0.1702  1.6900
   25MOL    H2212070   3.863   2.654   2.749 -1.1384  1.8020 -0.1836
   25MOL    H2312071   3.878   2.535   2.985 -0.9727  1.6394 -0.9331
   25MOL    H2412072   3.985   2.501   2.859 -0.1729 -1.9875  1.4414
   25MOL    H2512073   4.039   2.607   2.996 -0.7328  2.2624 -0.0016
   25MOL    H2612074   3.729   3.345   2.647 -0.5970 -1.5801 -0.8346
   25MOL    C2712075   3.403   3.249   2.721  0.0954 -0.2324  0.7776
   25MOL    C2812076   3.317   3.243   2.845  0.0637 -0.1307 -0.0686
   25MOL    O2912077   3.321   3.372   2.907 -0.2220 -0.3432 -0.3125
   25MOL    C3012078   3.361   3.376   3.042  0.1456 -0.0466 -0.4586
   25MOL    C3112079   3.385   3.519   3.078 -0.5237  0.0377  0.6528
   25MOL    C3212080   3.422   3.534   3.224  0.3685 -0.4404 -0.3906
   25MOL    C3312081   3.457   3.683   3.253 -0.1578 -0.5055  0.4514
   25MOL    C3412082   3.339   3.781   3.264  0.1725  0.2688  0.2567
   25MOL    C3512083   3.251   3.782   3.390  0.3937  0.6137  0.0130
   25MOL    H3612084   3.354   3.332   2.672  1.1761  0.3096  0.5995
   25MOL    H3712085   3.400   3.154   2.668 -1.4538 -0.7080  1.6840
   25MOL    H3812086   3.373   3.171   2.906  1.9090 -0.2244 -1.8481
   25MOL    H3912087   3.443   3.308   3.064 -0.4321 -1.2973 -2.0706
   25MOL    H4012088   3.275   3.346   3.103 -0.7290  2.2649 -0.5162
   25MOL    H4112089   3.294   3.577   3.057 -1.4574 -1.6179  0.0174
   25MOL    H4212090   3.469   3.555   3.018 -0.1101  1.4870  2.0881
   25MOL    H4312091   3.341   3.489   3.281  0.2974 -0.7562 -0.7405
   25MOL    H4412092   3.512   3.476   3.243  1.4962  1.3509 -0.0819
   25MOL    H4512093   3.512   3.686   3.347  4.0555 -0.2200 -1.9048
   25MOL    H4612094   3.523   3.735   3.184  0.5510 -1.9044  0.0651
   25MOL    H4712095   3.376   3.882   3.253  1.6199 -0.3484 -0.6631
   25MOL    H4812096   3.281   3.767   3.172  0.3005  2.1440 -0.1319
   25MOL    H4912097   3.198   3.688   3.403 -0.3979  0.9600 -0.6687
   25MOL    H5012098   3.310   3.813   3.476  0.4728 -1.4496  0.7297
   25MOL    H5112099   3.176   3.859   3.373  0.8909  1.1417  0.2071
   25MOL    C5212100   3.164   3.209   2.832 -0.0418  0.0875  0.1008
   25MOL    C5312101   3.126   3.064   2.779  0.4306  0.5598 -0.1136
   25MOL    O5412102   3.199   2.973   2.870  0.5173 -0.1986 -0.0940
   25MOL    C5512103   3.321   2.919   2.824 -0.3273 -0.3200  0.0219
   25MOL    C5612104   3.311   2.762   2.822  0.3432  0.0687  0.5452
   25MOL    C5712105   3.450   2.699   2.826 -0.8072  0.2469 -0.2603
   25MOL    C5812106   3.447   2.549   2.796 -0.4688 -0.1489  0.5869
   25MOL    C5912107   3.585   2.479   2.826  0.2893 -0.2357 -0.3481
   25MOL    C6012108   3.590   2.335   2.769 -0.1912  0.0681  0.6633
   25MOL    H6112109   3.114   3.284   2.770 -1.8032 -0.6047  0.6724
   25MOL    H6212110   3.127   3.218   2.934  0.2335 -0.5739  0.2633
   25MOL    H6312111   3.155   3.054   2.674  1.3005  0.5835  0.1221
   25MOL    H6412112   3.390   2.945   2.904  0.7978  1.3516 -1.4386
   25MOL    H6512113   3.353   2.962   2.729 -0.6721 -2.6187 -1.1683
   25MOL    H6612114   3.253   2.727   2.738  1.7074  0.4025 -0.5570
   25MOL    H6712115   3.254   2.730   2.909 -1.3126  2.5838  0.4102
   25MOL    H6812116   3.514   2.747   2.752  0.2156  1.4466  1.3854
   25MOL    H6912117   3.494   2.719   2.924  2.4281 -2.1966 -1.1181
   25MOL    H7012118   3.378   2.496   2.863 -0.8331  1.1343  1.2407
   25MOL    H7112119   3.419   2.543   2.691  1.3296  0.7777  0.0465
   25MOL    H7212120   3.662   2.544   2.786  2.0628 -2.1015 -0.0350
   25MOL    H7312121   3.608   2.486   2.933  0.4692 -0.2542 -0.3865
   25MOL    H7412122   3.573   2.331   2.661  0.4057 -0.2141  0.5802
   25MOL    H7512123   3.690   2.296   2.788 -0.8178 -1.7452  0.3417
   25MOL    H7612124   3.520   2.263   2.811  1.3301 -2.5468 -1.1325
   25MOL    C7712125   2.980   3.037   2.783 -0.7058  0.3872  0.0586
   25MOL    C7812126   2.947   2.891   2.750  0.8918  0.0837  0.4377
   25MOL    O7912127   2.839   2.907   2.655 -0.0314 -0.0122  0.1645
   25MOL    C8012128   2.855   2.832   2.535 -0.3559 -1.4933  0.3986
   25MOL    C8112129   2.734   2.843   2.448  0.0903  0.2536 -1.0293
   25MOL    C8212130   2.734   2.814   2.297 -0.2417 -0.3696  0.8491
   25MOL    C8312131   2.726   2.664   2.272  0.6322  1.0644 -0.8746
   25MOL    C8412132   2.761   2.599   2.131 -0.3253  0.5900 -0.2876
   25MOL    C8512133   2.657   2.614   2.024  0.6602 -0.0982 -0.5676
   25MOL    H8612134   2.916   3.097   2.718 -1.0332 -0.4612 -0.4102
   25MOL    H8712135   2.948   3.067   2.883  1.8504  1.5528  0.5708
   25MOL    H8812136   3.038   2.849   2.708  1.1235  0.3668  0.6505
   25MOL    H8912137   2.888   2.728   2.542 -0.4141 -1.5559 -0.2142
   25MOL    H9012138   2.933   2.890   2.484 -0.5045 -0.6517  1.1354
   25MOL    H9112139   2.684   2.940   2.452  0.5447  0.4843 -0.9020
   25MOL    H9212140   2.649   2.795   2.497  0.7767  2.1370  2.1838
   25MOL    H9312141   2.651   2.862   2.246 -0.0337 -2.7609 -1.8673
   25MOL    H9412142   2.822   2.851   2.245 -1.4761  1.1091 -0.2170
   25MOL    H9512143   2.802   2.631   2.343 -0.4271  0.3918 -0.0405
   25MOL    H9612144   2.640   2.621   2.322  0.8790  1.1623 -0.3612
   25MOL    H9712145   2.853   2.645   2.095  0.5413  0.2070  1.4028
   25MOL    H9812146   2.794   2.496   2.142  0.0115  0.7133 -0.1253
   25MOL    H9912147   2.644   2.720   2.005 -0.6233  0.1083  1.2866
   25MOL   H10012148   2.680   2.559   1.932 -2.7663  0.2654 -1.7262
   25MOL   H10112149   2.564   2.573   2.066  0.9556  0.8334  1.0290
   25MOL   C10212150   2.914   2.811   2.873 -0.9804  0.6193 -0.0836
   25MOL   C10312151   2.896   2.658   2.862  0.6580 -0.2186  0.1142
   25MOL   O10412152   3.005   2.592   2.797  0.4692 -0.5135 -0.1076
   25MOL   C10512153   2.976   2.466   2.748  0.5883  0.2956 -0.7204
   25MOL   C10612154   3.103   2.425   2.663 -0.3506 -0.4775  0.4014
   25MOL   C10712155   3.092   2.300   2.579  0.1990 -0.3784  0.0919
   25MOL   C10812156   2.979   2.306   2.483 -0.2278  0.1204 -0.2986
   25MOL   C10912157   2.965   2.184   2.396  0.1187 -0.1772  0.3270
   25MOL   C11012158   2.868   2.206   2.282  0.1635  0.7001  0.9057
   25MOL   H11112159   2.993   2.832   2.945 -2.7305  0.6773  1.8912
   25MOL   H11212160   2.832   2.857   2.929  1.0651  1.4271  2.3479
   25MOL   H11312161   2.808   2.637   2.802 -1.2602 -0.3162  2.8661
   25MOL   H11412162   2.887   2.478   2.685  1.7489 -1.7998 -2.8433
   25MOL   H11512163   2.962   2.388   2.823 -0.2891 -0.4739 -1.6468
   25MOL   H11612164   3.191   2.426   2.728 -0.0564  0.7909 -0.0049
   25MOL   H11712165   3.115   2.506   2.592 -1.4115 -1.3715 -0.8301
   25MOL   H11812166   3.186   2.298   2.523  0.1687  2.0467 -0.1001
   25MOL   H11912167   3.102   2.207   2.635  0.8842 -2.0762 -2.7291
   25MOL   H12012168   2.888   2.320   2.542 -0.0870  1.1544 -0.3300
   25MOL   H12112169   2.998   2.395   2.423 -0.5379 -0.8836 -1.9177
   25MOL   H12212170   3.064   2.141   2.376  1.5104  1.8953  2.4279
   25MOL   H12312171   2.933   2.107   2.465  1.3479  0.2240  1.3557
   25MOL   H12412172   2.895   2.267   2.196 -0.2318  1.7880  1.5472
   25MOL   H12512173   2.833   2.115   2.232  0.5315  1.1291 -0.1358
   25MOL   H12612174   2.777   2.250   2.323 -0.4643  0.8207 -0.5946
   25MOL   C12712175   2.881   2.590   3.001 -0.1784 -0.1937  0.2907
   25MOL   C12812176   2.756   2.631   3.075 -0.2631  0.0572  0.0613
   25MOL   O12912177   2.799   2.722   3.172 -0.2941  0.6240  0.3841
   25MOL   C13012178   2.715   2.818   3.226  0.7013  0.1492 -0.6633
   25MOL   C13112179   2.809   2.908   3.310 -0.2288 -0.1842 -0.1891
   25MOL   C13212180   2.886   3.006   3.220 -0.4155 -0.6041 -0.1668
   25MOL   C13312181   2.950   3.125   3.301  0.0487  0.8943 -0.4037
   25MOL   C13412182   3.039   3.222   3.228 -0.6623 -0.5684 -0.0634
   25MOL   C13512183   3.057   3.361   3.289  0.2807  0.4200 -0.5041
   25MOL   H13612184   2.879   2.481   2.994  0.5088 -0.1142 -1.3299
   25MOL   H13712185   2.972   2.603   3.060  1.4944 -3.2266 -1.4602
   25MOL   H13812186   2.685   2.670   3.002  0.3894  0.7309 -0.2091
   25MOL   H13912187   2.643   2.766   3.289  0.7778  1.2407  0.3600
   25MOL   H14012188   2.662   2.870   3.146 -0.5921  0.9586  0.6876
   25MOL   H14112189   2.873   2.848   3.375  0.5414 -0.4585 -1.2002
   25MOL   H14212190   2.744   2.965   3.377 -1.2613 -2.6505  0.9868
   25MOL   H14312191   2.969   2.956   3.170  1.2652  1.6097  0.3692
   25MOL   H14412192   2.821   3.042   3.141  0.0932 -1.4746 -0.9961
   25MOL   H14512193   2.861   3.173   3.341 -1.9461 -1.5296 -1.8229
   25MOL   H14612194   3.014   3.090   3.382 -0.3619  2.1224  0.4673
   25MOL   H14712195   3.138   3.179   3.219 -0.1819  0.6224 -0.6350
   25MOL   H14812196   3.002   3.227   3.125  0.2614 -1.7431 -0.4616
   25MOL   H14912197   3.118   3.366   3.379  1.1249  0.4931 -1.0743
   25MOL   H15012198   3.101   3.425   3.212  0.4494 -0.2514 -0.9810
   25MOL   H15112199   2.965   3.411   3.317 -0.4073 -1.0311 -0.1060
   25MOL   C15212200   2.685   2.521   3.144  0.1089 -0.1408 -0.8570
   25MOL   C15312201   2.578   2.444   3.059  0.0699 -0.6469  0.0464
   25MOL   O15412202   2.654   2.336   3.007  0.1772 -0.0812 -0.7705
   25MOL   C15512203   2.600   2.294   2.883 -0.3185  0.3621  0.2548
   25MOL   C15612204   2.699   2.185   2.828  0.2261 -0.1550  0.1343
   25MOL   C15712205   2.662   2.047   2.876  0.2073  0.7562 -0.0038
   25MOL   C15812206   2.739   1.936   2.800 -0.2866  0.0295 -0.5581
   25MOL   C15912207   2.699   1.927   2.654  0.4342  0.5051 -0.0374
   25MOL   C16012208   2.729   1.802   2.571 -0.4405  0.1563 -0.5445
   25MOL   H16112209   2.760   2.458   3.191 -0.8390  0.4790  1.5523
   25MOL   H16212210   2.628   2.562   3.227  1.1929  0.5685 -0.4561
   25MOL   H16312211   2.536   2.507   2.981  1.4097 -1.7856 -1.6276
   25MOL   H16412212   2.610   2.373   2.808  0.9297  0.9385  1.0139
   25MOL   H16512213   2.494   2.270   2.888 -0.2027  0.1254  2.0528
   25MOL   H16612214   2.801   2.208   2.861  0.2433 -0.7810  0.5220
   25MOL   H16712215   2.704   2.176   2.719  1.8656 -1.5544  0.2984
   25MOL   H16812216   2.670   2.046   2.985 -1.9147 -0.9296  0.1798
   25MOL   H16912217   2.555   2.032   2.859  0.2180  0.3692  0.2472
   25MOL   H17012218   2.846   1.953   2.802 -0.3412  0.2899  1.2573
   25MOL   H17112219   2.721   1.842   2.854 -1.1175 -1.0372 -2.6173
   25MOL   H17212220   2.592   1.947   2.660  0.4909  0.0234  3.6196
   25MOL   H17312221   2.729   2.016   2.599  0.4568  1.5321  1.5901
   25MOL   H17412222   2.831   1.766   2.584 -0.6898  0.7957  3.9686
   25MOL   H17512223   2.667   1.717   2.600  2.9669 -1.4198  2.4780
   25MOL   H17612224   2.714   1.838   2.469  2.5701  0.2501 -1.0033
   25MOL   C17712225   2.460   2.374   3.137 -0.1492 -0.3924 -0.9525
   25MOL   C17812226   2.359   2.477   3.207 -0.0819  0.6634 -0.6759
   25MOL   O17912227   2.411   2.569   3.299 -0.0803 -0.1679  0.5767
   25MOL   C18012228   2.436   2.513   3.430  0.1453 -0.4621 -0.1626
   25MOL   C18112229   2.498   2.624   3.521 -0.1685  0.2741  0.1103
   25MOL   C18212230   2.507   2.587   3.665  0.2112  0.4513  0.4783
   25MOL   C18312231   2.562   2.694   3.756  0.0551  0.2906 -0.5934
   25MOL   C18412232   2.597   2.630   3.891 -0.3826  0.4217  0.2756
   25MOL   C18512233   2.725   2.554   3.890  0.3939  0.1047 -0.5370
   25MOL   H18612234   2.405   2.305   3.073  0.8039 -1.0937 -1.0402
   25MOL   H18712235   2.506   2.312   3.215 -0.4740  0.7723  0.1888
   25MOL   H18812236   2.275   2.424   3.250  1.3580  0.9705  2.6314
   25MOL   H18912237   2.511   2.434   3.420 -0.1917 -0.7974 -0.0947
   25MOL   H19012238   2.346   2.474   3.478  0.5127  0.6809  1.4514
   25MOL   H19112239   2.435   2.712   3.512 -0.8049 -0.2042 -0.0938
   25MOL   H19212240   2.594   2.654   3.477  0.2563 -1.4791 -0.1913
   25MOL   H19312241   2.413   2.553   3.708 -1.7229  2.9157 -1.6733
   25MOL   H19412242   2.574   2.501   3.665  1.0005  1.0149  4.0327
   25MOL   H19512243   2.655   2.726   3.709  1.0919 -0.0311  1.1950
   25MOL   H19612244   2.500   2.784   3.751 -2.6115 -1.5344 -0.9976
   25MOL   H19712245   2.613   2.714   3.959  0.8454  0.3660  0.0659
   25MOL   H19812246   2.511   2.571   3.924  0.1728 -0.6348 -0.1285
   25MOL   H19912247   2.747   2.519   3.991  2.8075  1.2948 -0.6234
   25MOL   H20012248   2.722   2.472   3.818  0.5843  0.9372 -1.4934
   25MOL   H20112249   2.802   2.624   3.859  0.8478 -0.7065 -1.2792
   25MOL   C20212250   2.287   2.573   3.113  0.2322 -0.3599  0.3695
   25MOL   C20312251   2.202   2.513   3.004 -0.4713 -0.4125  0.1763
   25MOL   O20412252   2.165   2.613   2.918 -0.4731 -0.2072 -0.2822
   25MOL   C20512253   2.237   2.616   2.799 -0.0763  0.0323 -0.6066
   25MOL   C20612254   2.191   2.733   2.712  0.2127  0.2451  0.0282
   25MOL   C20712255   2.287   2.775   2.601 -0.6788 -0.2750 -0.6378
   25MOL   C20812256   2.226   2.853   2.487  0.1111  0.6735  0.0498
   25MOL   C20912257   2.313   2.889   2.367 -0.5418 -0.3101  0.4177
   25MOL   C21012258   2.371   2.763   2.305 -0.7435 -0.0329 -0.6436
   25MOL   H21112259   2.210   2.638   3.155  0.8900  1.8342 -1.7509
   25MOL   H21212260   2.357   2.647   3.075 -0.7776  0.3746 -0.0471
   25MOL   H21312261   2.260   2.433   2.956 -1.6875 -0.5871 -1.0315
   25MOL   H21412262   2.222   2.520   2.751 -1.0231 -1.9170  3.3639
   25MOL   H21512263   2.338   2.638   2.833 -0.6671 -0.2391  1.4130
   25MOL   H21612264   2.176   2.817   2.780 -0.1709  0.3057 -0.1289
   25MOL   H21712265   2.090   2.720   2.672  0.4510 -0.2919 -0.3967
   25MOL   H21812266   2.369   2.840   2.633 -2.5997  2.0849 -0.3001
   25MOL   H21912267   2.330   2.682   2.565 -0.1738  0.1076 -1.0453
   25MOL   H22012268   2.139   2.802   2.445  1.1725 -0.2683 -1.0216
   25MOL   H22112269   2.177   2.942   2.527 -3.8750 -1.0171 -0.7830
   25MOL   H22212270   2.250   2.935   2.292 -0.7037 -3.2273 -1.3163
   25MOL   H22312271   2.393   2.960   2.389  0.5322 -1.3715 -0.0113
   25MOL   H22412272   2.442   2.724   2.378 -1.3484 -0.2418 -0.1637
   25MOL   H22512273   2.289   2.702   2.265 -0.8516  0.5612 -1.3334
   25MOL   H22612274   2.421   2.803   2.217 -0.4715 -0.1840 -0.5591
   25MOL   C22712275   2.079   2.436   3.062 -0.0167 -0.2363  0.0877
   25MOL   C22812276   1.993   2.363   2.953  0.3083  0.3440  0.0503
   25MOL   O22912277   2.082   2.263   2.907  0.3793  0.2062  0.3751
   25MOL   C23012278   2.046   2.226   2.776 -0.4334  0.0556  0.1148
   25MOL   C23112279   2.136   2.109   2.736  0.2593  0.2789 -0.1262
   25MOL   C23212280   2.101   2.042   2.600 -0.5372  0.9334  0.8548
   25MOL   C23312281   2.178   1.914   2.566 -0.7157  0.2602 -0.7274
   25MOL   C23412282   2.185   1.882   2.416 -0.2994  0.3469 -0.7322
   25MOL   C23512283   2.308   1.811   2.364 -0.3853  0.2133  0.9514
   25MOL   H23612284   2.102   2.370   3.145  1.0553 -0.1857 -0.1643
   25MOL   H23712285   2.022   2.514   3.112 -0.3201 -1.6486  1.9650
   25MOL   H23812286   1.971   2.439   2.878  1.8151  0.7957  0.0593
   25MOL   H23912287   2.069   2.312   2.714 -1.4514 -0.8132 -1.5270
   25MOL   H24012288   1.941   2.199   2.767 -0.6056  0.4851  0.8412
   25MOL   H24112289   2.142   2.045   2.823  1.5591  2.3285  1.3302
   25MOL   H24212290   2.237   2.150   2.742  0.1519  0.9728 -2.3535
   25MOL   H24312291   1.994   2.019   2.598 -0.2825 -0.2429 -1.8478
   25MOL   H24412292   2.103   2.121   2.524  2.1001  2.2144  2.2139
   25MOL   H24512293   2.276   1.911   2.614 -0.4251 -1.1177 -1.3847
   25MOL   H24612294   2.137   1.832   2.625  0.8515  0.6421  0.9277
   25MOL   H24712295   2.099   1.823   2.383  0.1372 -0.2809 -0.7555
   25MOL   H24812296   2.171   1.980   2.370  1.3429  0.6247 -0.6630
   25MOL   H24912297   2.395   1.866   2.400  0.0307  0.7415 -0.7978
   25MOL   H25012298   2.322   1.707   2.395  1.3058  0.1895  0.1981
   25MOL   H25112299   2.317   1.809   2.255  0.1045  1.9229  0.9519
   25MOL   C25212300   1.861   2.298   3.017 -0.2209 -0.8329  1.3085
   25MOL   C25312301   1.744   2.396   3.037 -0.1545 -0.3739 -0.3925
   25MOL   O25412302   1.801   2.516   3.096  0.2132 -0.0820  0.4023
   25MOL   C25512303   1.752   2.640   3.043  0.8466 -0.0243  0.4328
   25MOL   C25612304   1.795   2.765   3.130  0.3609  0.0205 -0.4227
   25MOL   C25712305   1.756   2.900   3.079 -0.5327  0.4921 -0.3065
   25MOL   C25812306   1.794   2.929   2.934 -0.1742 -0.3853  0.0567
   25MOL   C25912307   1.753   3.073   2.908  0.1082 -0.3749  0.7393
   25MOL   C26012308   1.782   3.142   2.772  0.7214 -0.0495 -0.3322
   25MOL   H26112309   1.824   2.226   2.944 -1.6923  2.9213 -1.8913
   25MOL   H26212310   1.894   2.242   3.104 -2.2009 -1.8921  1.4002
   25MOL   H26312311   1.683   2.422   2.950 -2.1038  1.8693  1.5559
   25MOL   H26412312   1.645   2.635   3.025  1.1120 -2.5040 -0.6804
   25MOL   H26512313   1.787   2.645   2.939  0.9070  1.3253  0.5150
   25MOL   H26612314   1.904   2.757   3.133  0.3676  0.3700  0.3545
   25MOL   H26712315   1.757   2.745   3.231 -1.3487 -0.6745 -1.1851
   25MOL   H26812316   1.648   2.904   3.093 -0.3842 -1.1858  1.5711
   25MOL   H26912317   1.786   2.972   3.155  0.3019 -0.3652  0.1768
   25MOL   H27012318   1.902   2.918   2.922 -0.0543 -1.3850  1.9290
   25MOL   H27112319   1.741   2.857   2.871 -0.5929 -1.1450  1.2627
   25MOL   H27212320   1.650   3.085   2.943 -0.6393  0.6732 -1.7157
   25MOL   H27312321   1.815   3.129   2.978  0.8792 -0.7776  0.3847
   25MOL   H27412322   1.797   3.247   2.795  0.5104  0.0546 -0.6599
   25MOL   H27512323   1.879   3.113   2.732  2.3079 -1.7907  4.5118
   25MOL   H27612324   1.705   3.131   2.694  0.0797  0.8187  0.1689
   25MOL   C27712325   1.637   2.326   3.126  0.0724 -0.3035  0.4772
   25MOL   C27812326   1.550   2.223   3.056  0.3022 -0.6412  0.1943
   25MOL   O27912327   1.622   2.095   3.056 -0.0821 -0.5288  0.4342
   25MOL   C28012328   1.599   2.020   2.936  0.0924 -0.1532 -0.1903
   25MOL   C28112329   1.679   1.890   2.951 -0.6958 -0.1148 -0.6624
   25MOL   C28212330   1.828   1.903   2.953  0.0915 -0.0946  0.1967
   25MOL   C28312331   1.897   1.762   2.941  0.3288  0.1892 -0.3182
   25MOL   C28412332   1.900   1.671   3.066 -0.0778  0.4536  0.8773
   25MOL   C28512333   1.986   1.732   3.177 -0.0354 -0.0620 -0.3280
   25MOL   H28612334   1.691   2.271   3.203 -0.5653 -0.8973  0.5017
   25MOL   H28712335   1.580   2.404   3.178  0.6400  0.5452 -0.1600
   25MOL   H28812336   1.526   2.255   2.955  2.3164  1.5880  0.3689
   25MOL   H28912337   1.632   2.081   2.852 -0.9060  2.1473  1.0637
   25MOL   H29012338   1.495   1.994   2.913 -0.8147  3.3392 -0.3606
   25MOL   H29112339   1.645   1.827   2.869 -1.4507  1.1354 -1.3239
   25MOL   H29212340   1.638   1.831   3.034  1.5206 -0.6121  0.1043
   25MOL   H29312341   1.850   1.943   2.854 -2.5687  1.6578  0.2482
   25MOL   H29412342   1.847   1.971   3.036  1.3661  0.7726 -0.7909
   25MOL   H29512343   1.849   1.703   2.862 -0.1743  0.2064 -0.0229
   25MOL   H29612344   2.001   1.781   2.914  0.5909 -0.8678 -0.1098
   25MOL   H29712345   1.801   1.653   3.108 -1.4134 -0.6909 -2.6174
   25MOL   H29812346   1.942   1.575   3.037 -0.6480  1.1878 -2.5385
   25MOL   H29912347   1.990   1.664   3.262 -0.1842 -0.2614 -0.4813
   25MOL   H30012348   2.091   1.741   3.147 -0.1555  2.3133 -0.1186
   25MOL   H30112349   1.944   1.826   3.213  1.0663 -0.5934  2.4751
   25MOL   C30212350   1.416   2.191   3.127  0.3161 -0.6707 -0.0337
   25MOL   C30312351   1.306   2.294   3.093 -0.2955  0.0891 -0.5587
   25MOL   O30412352   1.187   2.258   3.172 -0.5344 -0.2668  0.6675
   25MOL   C30512353   1.165   2.335   3.283  0.6577 -0.1500 -0.1930
   25MOL   C30612354   1.039   2.300   3.357  0.4849  0.3624  0.2985
   25MOL   C30712355   0.901   2.311   3.292  0.4456 -0.1757  0.1367
   25MOL   C30812356   0.859   2.451   3.244  0.2354  0.0288  0.2805
   25MOL   C30912357   0.724   2.464   3.171  0.2663  0.5697 -0.4638
   25MOL   C31012358   0.672   2.610   3.130  0.0469 -0.3989  0.6536
   25MOL   H31112359   1.378   2.096   3.089 -0.2507  0.1856 -1.6861
   25MOL   H31212360   1.440   2.188   3.233  0.5556 -0.8391 -0.0927
   25MOL   H31312361   1.333   2.397   3.112 -0.1950 -0.2066  1.0158
   25MOL   H31412362   1.156   2.438   3.249  1.4221 -0.9001 -2.8048
   25MOL   H31512363   1.252   2.323   3.348  0.6032 -1.3879 -0.3400
   25MOL   H31612364   1.029   2.354   3.451  0.3313 -0.0185  0.5004
   25MOL   H31712365   1.037   2.195   3.384 -0.0146 -0.2664 -2.0406
   25MOL   H31812366   0.903   2.241   3.209  3.0432  0.4841 -0.3952
   25MOL   H31912367   0.827   2.280   3.367  0.7905  1.4614  1.1828
   25MOL   H32012368   0.846   2.514   3.332 -1.2331 -0.6165  0.5355
   25MOL   H32112369   0.938   2.498   3.185  1.1026 -2.7068 -0.8129
   25MOL   H32212370   0.735   2.426   3.070 -1.4875 -2.6562  0.4690
   25MOL   H32312371   0.650   2.405   3.226  1.2797  1.1253  1.5139
   25MOL   H32412372   0.603   2.602   3.046 -0.2589 -0.4334  0.9060
   25MOL   H32512373   0.604   2.664   3.196 -0.0650 -1.8731  1.7554
   25MOL   H32612374   0.756   2.674   3.102 -1.5479  1.7273  0.6137
   25MOL   C32712375   1.256   2.298   2.948 -0.3448 -0.1736 -0.1163
   25MOL   C32812376   1.155   2.418   2.924  0.6667  0.1461  0.5734
   25MOL   O32912377   1.249   2.522   2.944 -0.9600 -0.0135  0.3424
   25MOL   C33012378   1.194   2.646   2.973  0.0894  0.2386 -0.6297
   25MOL   C33112379   1.295   2.756   2.943 -0.0131  1.3309  0.3733
   25MOL   C33212380   1.305   2.766   2.791 -0.9123 -0.0722 -0.8999
   25MOL   C33312381   1.397   2.881   2.763  0.0251  0.2399 -0.4171
   25MOL   C33412382   1.414   2.888   2.607  0.0095  0.2261 -0.5413
   25MOL   C33512383   1.532   2.978   2.570  0.1714 -0.4159 -0.8621
   25MOL   H33612384   1.212   2.199   2.931  2.2612 -1.2299 -0.9857
   25MOL   H33712385   1.334   2.296   2.873 -2.0107  0.0689 -1.9002
   25MOL   H33812386   1.074   2.432   2.995  0.7071  0.6983  0.5156
   25MOL   H33912387   1.176   2.655   3.080  1.5803 -0.5000 -0.3053
   25MOL   H34012388   1.100   2.661   2.919 -0.1761 -1.2081 -0.5995
   25MOL   H34112389   1.389   2.731   2.992 -0.7958 -0.2978  1.0509
   25MOL   H34212390   1.268   2.852   2.988  0.4571  1.2668  0.7931
   25MOL   H34312391   1.333   2.682   2.727 -0.6096 -0.5019 -0.2036
   25MOL   H34412392   1.203   2.786   2.760 -0.7970  0.1741 -1.1246
   25MOL   H34512393   1.354   2.975   2.798  1.1042 -0.8757  4.3658
   25MOL   H34612394   1.495   2.871   2.811 -0.8506 -2.5320  0.8970
   25MOL   H34712395   1.422   2.788   2.564 -0.7039  0.4411 -1.1882
   25MOL   H34812396   1.316   2.923   2.574 -0.2978 -0.3301 -0.2096
   25MOL   H34912397   1.541   2.976   2.462 -1.8355 -1.0410 -1.0327
   25MOL   H35012398   1.524   3.083   2.602 -0.4516 -0.5340 -0.6239
   25MOL   H35112399   1.627   2.942   2.611  0.3008 -0.2063 -0.9766
   25MOL   C35212400   1.100   2.407   2.772 -0.0600  0.2887 -0.0548
   25MOL   C35312401   1.002   2.289   2.742 -0.3557  0.5057  0.3545
   25MOL   O35412402   0.944   2.305   2.617  0.7755 -1.0651 -0.1593
   25MOL   C35512403   1.030   2.275   2.508  0.7977  0.6674  0.4314
   25MOL   C35612404   0.965   2.260   2.367 -0.4800  0.0452  0.6956
   25MOL   C35712405   1.053   2.200   2.248 -0.1713  0.3463 -0.5782
   25MOL   C35812406   1.097   2.309   2.147 -0.0436 -0.3136  0.3794
   25MOL   C35912407   1.185   2.421   2.212 -0.0775 -0.2026  0.1885
   25MOL   C36012408   1.204   2.541   2.118 -0.4096  0.3681 -0.5140
   25MOL   H36112409   1.057   2.504   2.749 -0.5504 -0.7736 -4.0027
   25MOL   H36212410   1.184   2.412   2.702  0.0732 -0.1908  0.0681
   25MOL   H36312411   1.058   2.197   2.761 -1.3821 -0.5510 -1.5927
   25MOL   H36412412   1.081   2.180   2.524  1.4962  1.2230  1.5470
   25MOL   H36512413   1.113   2.345   2.496  1.7181  0.0002  2.7939
   25MOL   H36612414   0.933   2.362   2.344 -0.0617 -0.2312 -1.1899
   25MOL   H36712415   0.884   2.187   2.371 -2.5019  2.0340 -1.8112
   25MOL   H36812416   1.148   2.182   2.299  0.0001  1.2502 -0.5623
   25MOL   H36912417   1.012   2.107   2.210  1.9076 -1.7394  2.0670
   25MOL   H37012418   1.141   2.262   2.059  0.7625 -1.3834  1.3380
   25MOL   H37112419   1.009   2.355   2.103 -0.6899 -2.0152 -0.1506
   25MOL   H37212420   1.128   2.458   2.297 -0.0117 -0.0344  0.1611
   25MOL   H37312421   1.277   2.372   2.244 -0.6316 -3.1005 -2.3846
   25MOL   H37412422   1.242   2.512   2.020 -0.6527  0.5890 -0.6761
   25MOL   H37512423   1.111   2.597   2.105  1.0033  2.4728 -1.9401
   25MOL   H37612424   1.275   2.614   2.156  0.8087 -1.5888  1.0587
   25MOL   C37712425   0.890   2.291   2.844  0.7151  0.7610  0.6839
   25MOL   C37812426   0.780   2.183   2.826 -0.3716  0.3189  0.1124
   25MOL   O37912427   0.687   2.217   2.921 -0.3790  0.1614 -0.1915
   25MOL   C38012428   0.557   2.153   2.912  0.0895  0.0826  0.5643
   25MOL   C38112429   0.471   2.179   3.033 -0.1630  0.6169 -0.5728
   25MOL   C38212430   0.553   2.123   3.156 -0.2783 -0.2853  0.1680
   25MOL   C38312431   0.553   1.972   3.156  0.7345  0.1906  0.1926
   25MOL   C38412432   0.634   1.914   3.277  0.3027  0.1048  0.2825
   25MOL   C38512433   0.790   1.932   3.273 -0.2456 -0.2391 -0.2302
   25MOL   H38612434   0.924   2.279   2.946  0.8047 -0.4588  0.5228
   25MOL   H38712435   0.838   2.387   2.839 -0.4330  0.0833 -1.1350
   25MOL   H38812436   0.735   2.194   2.727 -2.0075  0.9199  0.8956
   25MOL   H38912437   0.566   2.046   2.892  1.2673 -0.7053  4.8242
   25MOL   H39012438   0.510   2.190   2.821  0.3721 -0.7889  0.0508
   25MOL   H39112439   0.372   2.134   3.024  0.6885 -1.2927 -0.5152
   25MOL   H39212440   0.453   2.282   3.064 -2.9090  0.5884 -1.8876
   25MOL   H39312441   0.650   2.165   3.179 -0.6826  0.4402  0.5843
   25MOL   H39412442   0.503   2.144   3.251 -0.8508 -1.6626  0.1935
   25MOL   H39512443   0.447   1.950   3.166  0.5155  0.4305 -1.5070
   25MOL   H39612444   0.589   1.925   3.065  0.2997  0.8220 -0.3074
   25MOL   H39712445   0.601   1.968   3.366  0.3251 -0.3292  0.5574
   25MOL   H39812446   0.605   1.811   3.300 -1.1858 -0.0843 -2.1628
   25MOL   H39912447   0.804   2.031   3.316 -1.7654 -0.0340 -0.1731
   25MOL   H40012448   0.844   1.861   3.336 -1.8913 -2.0524 -0.8024
   25MOL   H40112449   0.828   1.918   3.171  2.7897  1.4021  0.6384
   25MOL   C40212450   0.840   2.035   2.836 -0.3252 -0.2426 -0.2438
   25MOL   C40312451   0.870   1.985   2.698 -0.4206  0.0847 -0.4676
   25MOL   O40412452   0.739   1.951   2.651 -0.0829 -0.3951 -0.7461
   25MOL   C40512453   0.723   1.971   2.510 -0.5883 -0.2802 -0.6516
   25MOL   C40612454   0.593   1.901   2.467 -0.5339 -0.1693 -0.4320
   25MOL   C40712455   0.480   1.943   2.553 -0.4039  0.2853  0.2220
   25MOL   C40812456   0.350   1.881   2.500  0.1655 -0.5410  0.2892
   25MOL   C40912457   0.230   1.906   2.597 -0.5797  0.3686 -0.0981
   25MOL   C41012458   0.101   1.840   2.544  0.1707  0.1525  0.4102
   25MOL   H41112459   0.778   1.971   2.898  0.3471 -2.2250 -1.5974
   25MOL   H41212460   0.937   2.050   2.884 -1.1837  1.7251  0.9833
   25MOL   H41312461   0.921   2.059   2.636  0.7601 -1.3774 -1.2677
   25MOL   H41412462   0.809   1.927   2.460  1.0062  0.2207  1.5900
   25MOL   H41512463   0.716   2.078   2.488  0.8672 -0.1836 -0.6907
   25MOL   H41612464   0.605   1.793   2.477  1.1253 -0.2793 -3.1159
   25MOL   H41712465   0.577   1.938   2.366  3.3672 -0.8755 -1.3791
   25MOL   H41812466   0.494   1.919   2.658 -0.5209  2.7881  0.8325
   25MOL   H41912467   0.461   2.050   2.542 -0.2455  0.2711 -0.1829
   25MOL   H42012468   0.313   1.908   2.401  0.2246 -1.3382  0.0450
   25MOL   H42112469   0.367   1.774   2.489  2.9115 -0.4351  2.7995
   25MOL   H42212470   0.256   1.878   2.699 -1.6731 -2.1090 -0.4698
   25MOL   H42312471   0.233   2.015   2.591 -1.7251  0.5140  1.6912
   25MOL   H42412472   0.093   1.871   2.439  1.3903 -0.5185  0.1106
   25MOL   H42512473   0.090   1.734   2.564  0.1655  0.0169 -0.2867
   25MOL   H42612474   0.023   1.888   2.603 -1.3524 -0.3420 -1.1391
   25MOL   C42712475   0.958   1.850   2.699 -0.2765  0.0546  0.7759
   25MOL   C42812476   1.106   1.863   2.652 -0.7010  0.3103  0.1354
   25MOL   O42912477   1.164   1.738   2.696 -0.3745  0.7970  0.5308
   25MOL   C43012478   1.264   1.760   2.792  0.0486 -0.3169  0.4351
   25MOL   C43112479   1.353   1.635   2.809 -0.2323  0.2778  0.4065
   25MOL   C43212480   1.424   1.597   2.679 -0.5224 -0.1059  0.2483
   25MOL   C43312481   1.345   1.514   2.573  0.2226  0.7243  0.1190
   25MOL   C43412482   1.346   1.357   2.602  0.2538  0.0451 -0.5743
   25MOL   C43512483   1.265   1.283   2.494 -0.4663  0.3248 -0.0866
   25MOL   H43612484   0.947   1.802   2.797 -1.0215 -1.3148  0.0319
   25MOL   H43712485   0.907   1.776   2.638  0.5215 -0.9322  1.2979
   25MOL   H43812486   1.144   1.949   2.706  0.8263  0.5862 -1.3359
   25MOL   H43912487   1.215   1.801   2.880 -1.3195 -2.0968  0.5196
   25MOL   H44012488   1.326   1.846   2.765 -2.1150  0.8673 -0.9424
   25MOL   H44112489   1.288   1.560   2.853  0.3798 -1.7506 -1.9975
   25MOL   H44212490   1.425   1.649   2.889  1.1023  4.0392 -1.3499
   25MOL   H44312491   1.456   1.689   2.629 -1.7462  0.6993  0.8984
   25MOL   H44412492   1.521   1.553   2.696 -1.0097 -0.4386  2.3060
   25MOL   H44512493   1.246   1.557   2.559 -1.7656 -3.2625  1.1539
   25MOL   H44612494   1.391   1.526   2.475  1.1576 -0.2521  0.4331
   25MOL   H44712495   1.449   1.322   2.596 -0.9461 -3.2829 -2.6801
   25MOL   H44812496   1.309   1.338   2.702  3.5508  0.8717  0.8698
   25MOL   H44912497   1.268   1.175   2.508  1.4543  0.5858  1.8369
   25MOL   H45012498   1.166   1.328   2.495 -0.5261  0.3014 -2.3628
   25MOL   H45112499   1.306   1.307   2.396  0.8460  0.8510  0.5803
   25MOL   C45212500   1.121   1.857   2.500  0.3466  0.0842  0.2177
   25MOL   C45312501   1.246   1.911   2.445 -0.0405 -0.3085 -0.2369
   25MOL   O45412502   1.257   2.043   2.495  0.3854  0.0734 -0.4404
   25MOL   C45512503   1.389   2.096   2.484  0.3246  0.0663  0.5965
   25MOL   C45612504   1.391   2.239   2.542  0.0833 -0.9988  0.0582
   25MOL   C45712505   1.533   2.281   2.588 -0.1843  0.9296  0.0427
   25MOL   C45812506   1.539   2.439   2.607  0.0149  0.5839  0.8907
   25MOL   C45912507   1.687   2.494   2.621 -0.1553  0.6432  0.1858
   25MOL   C46012508   1.700   2.640   2.637 -0.4115 -0.1650 -0.3115
   25MOL   H46112509   1.114   1.750   2.480 -0.8285  0.5672 -2.0224
   25MOL   H46212510   1.040   1.913   2.455  1.1444 -0.8396 -2.4679
   25MOL   H46312511   1.325   1.848   2.485  1.0144  1.8887  1.1681
   25MOL   H46412512   1.435   2.087   2.386 -0.6975  1.3779 -0.0148
   25MOL   H46512513   1.445   2.040   2.559 -1.3356 -0.2222  1.6298
   25MOL   H46612514   1.329   2.244   2.631  2.5906 -2.0060  1.9290
   25MOL   H46712515   1.355   2.320   2.478 -1.2755 -1.0998  0.6796
   25MOL   H46812516   1.554   2.227   2.681  0.5991  2.7316  0.9424
   25MOL   H46912517   1.602   2.243   2.512  1.0754  3.3698 -0.0894
   25MOL   H47012518   1.495   2.492   2.523 -1.2732 -0.5684  0.8388
   25MOL   H47112519   1.470   2.476   2.683 -0.9239 -1.7318  1.1792
   25MOL   H47212520   1.741   2.436   2.696  0.6599  0.6483 -0.3964
   25MOL   H47312521   1.723   2.470   2.521  0.6757  1.5578  0.2602
   25MOL   H47412522   1.675   2.685   2.733  0.0738  1.5716 -0.9735
   25MOL   H47512523   1.803   2.668   2.616 -0.4446 -0.6295 -1.1078
   25MOL   H47612524   1.629   2.696   2.576 -0.3063  2.3406  1.7498
   25MOL   C47712525   1.250   1.899   2.292 -0.1702 -0.1126 -0.0087
   25MOL   C47812526   1.281   1.756   2.240  0.5665  0.2999  0.0339
   25MOL   O47912527   1.415   1.728   2.256  0.1034 -0.0545  0.5477
   25MOL   C48012528   1.447   1.603   2.204 -0.1351  0.7500 -0.3609
   25MOL   C48112529   1.591   1.562   2.216 -0.3980 -0.2157  0.3805
   25MOL   C48212530   1.620   1.439   2.125 -0.0584  0.0036 -0.2560
   25MOL   C48312531   1.774   1.418   2.111 -0.5744  0.0207  0.6632
   25MOL   C48412532   1.809   1.304   2.012 -0.2906  0.4019  0.3049
   25MOL   C48512533   1.958   1.271   2.003  0.2731  0.0418 -0.3140
   25MOL   H48612534   1.156   1.936   2.251 -1.4070 -0.5958  2.3525
   25MOL   H48712535   1.327   1.966   2.252 -1.9937  2.7470  1.1753
   25MOL   H48812536   1.229   1.686   2.305 -0.0893  0.3008 -0.4864
   25MOL   H48912537   1.414   1.597   2.101  0.3569  0.1181 -0.4815
   25MOL   H49012538   1.394   1.532   2.268  0.7168 -0.1248 -0.6112
   25MOL   H49112539   1.630   1.561   2.318  1.3250 -0.2312 -0.2553
   25MOL   H49212540   1.644   1.643   2.166 -1.0765 -1.2611 -2.1045
   25MOL   H49312541   1.576   1.357   2.182 -1.9958 -0.4754 -2.3583
   25MOL   H49412542   1.554   1.439   2.038 -1.3269  2.3138  0.6499
   25MOL   H49512543   1.814   1.512   2.072  0.4136 -0.8926 -0.5943
   25MOL   H49612544   1.822   1.400   2.207 -1.3280  0.6701  1.1610
   25MOL   H49712545   1.755   1.211   2.031 -0.9549  0.5469 -0.8089
   25MOL   H49812546   1.771   1.347   1.919 -0.1499 -0.6560 -0.2516
   25MOL   H49912547   1.975   1.198   1.924  3.0440  0.0365  0.2426
   25MOL   H50012548   2.021   1.353   1.965 -0.4368 -0.0889 -1.8261
   25MOL   H50112549   1.998   1.234   2.097 -1.8474 -0.5087  0.3964
   25MOL   H50212550   1.250   1.737   2.137  3.1705 -0.9230 -0.5596
   26MOL     C112551   2.362   6.852   0.350  0.2628 -0.0160 -0.4044
   26MOL     C212552   2.373   6.699   0.370  0.2590 -0.4993 -0.4342
   26MOL     O312553   2.425   6.653   0.244 -0.0742  0.1413 -0.1066
   26MOL     C412554   2.564   6.633   0.244  0.6394 -0.2283  0.5626
   26MOL     C512555   2.611   6.607   0.108 -0.4386 -0.0679  0.2933
   26MOL     C612556   2.652   6.729   0.027  0.1134  0.9358 -0.7162
   26MOL     C712557   2.686   6.703   7.653 -0.3660  0.1498  0.3701
   26MOL     C812558   2.730   6.822   7.571  0.1355  0.1802 -0.1466
   26MOL     C912559   2.854   6.900   7.625  0.2122 -0.2281  0.3855
   26MOL    H1012560   2.286   6.875   0.275 -2.1522  0.2058  2.0450
   26MOL    H1112561   2.329   6.906   0.439 -1.2308  1.5100 -1.8332
   26MOL    H1212562   2.437   6.682   0.456  0.0686  1.8393  0.1864
   26MOL    H1312563   2.585   6.551   0.314  2.2263  0.6409  1.1426
   26MOL    H1412564   2.617   6.720   0.285 -2.3317  3.4723 -3.0934
   26MOL    H1512565   2.527   6.565   0.052 -1.5859  2.1493  0.2936
   26MOL    H1612566   2.695   6.538   0.106  0.0997  0.6238 -1.7238
   26MOL    H1712567   2.574   6.805   0.035  0.2371  1.2726 -2.4524
   26MOL    H1812568   2.746   6.762   0.071 -0.2542 -0.8582  1.5314
   26MOL    H1912569   2.773   6.638   7.647 -1.1330 -1.2842  3.6076
   26MOL    H2012570   2.599   6.653   7.609  0.9743 -0.2766 -1.8644
   26MOL    H2112571   2.640   6.882   7.559  0.3802  0.0726 -2.8086
   26MOL    H2212572   2.753   6.782   7.472 -2.4338 -0.0038 -0.6979
   26MOL    H2312573   2.941   6.835   7.635 -1.3516 -2.0829  2.2149
   26MOL    H2412574   2.880   6.989   7.567  2.4263 -1.4319 -0.5313
   26MOL    H2512575   2.835   6.931   7.728 -1.6014  0.2598 -0.0812
   26MOL    H2612576   2.452   6.903   0.314  1.7051 -1.7110  0.7358
   26MOL    C2712577   2.236   6.645   0.397  0.2564  0.0710 -0.2001
   26MOL    C2812578   2.227   6.504   0.446 -0.8418  0.6244  0.0661
   26MOL    O2912579   2.087   6.475   0.451  0.1120 -0.0969 -0.6433
   26MOL    C3012580   2.038   6.478   0.589 -0.6298 -0.3387  0.1294
   26MOL    C3112581   1.900   6.408   0.606 -0.3847  0.1744 -0.2074
   26MOL    C3212582   1.792   6.501   0.549  0.1122 -0.1721  0.9193
   26MOL    C3312583   1.658   6.502   0.621 -0.3760  0.0328 -0.7835
   26MOL    C3412584   1.642   6.621   0.716  0.4253  0.5994  0.5551
   26MOL    C3512585   1.516   6.617   0.800 -0.0820 -0.0947  0.1273
   26MOL    H3612586   2.183   6.708   0.468  0.0768 -0.3124  0.0119
   26MOL    H3712587   2.184   6.648   0.301 -1.8221 -2.1667  0.7910
   26MOL    H3812588   2.281   6.493   0.540  0.4879 -1.6264 -0.8934
   26MOL    H3912589   2.028   6.584   0.609  3.0110  0.0483  0.3190
   26MOL    H4012590   2.117   6.443   0.656  1.5135  1.1839 -1.5588
   26MOL    H4112591   1.875   6.400   0.712 -0.2327 -0.2593 -0.2031
   26MOL    H4212592   1.911   6.307   0.568  2.1526  0.1633  0.4280
   26MOL    H4312593   1.828   6.603   0.534  3.2793 -1.6543 -2.2750
   26MOL    H4412594   1.787   6.472   0.444  0.5801 -0.0940  0.8731
   26MOL    H4512595   1.581   6.507   0.543  1.1701  1.6674 -2.2481
   26MOL    H4612596   1.621   6.407   0.659  0.7132 -0.7423 -1.6352
   26MOL    H4712597   1.720   6.605   0.791  0.1999  0.5214  0.7769
   26MOL    H4812598   1.653   6.721   0.676 -0.5126  0.5049  0.0473
   26MOL    H4912599   1.435   6.660   0.741  0.3847  1.6315  0.6947
   26MOL    H5012600   1.476   6.518   0.821  0.2714 -0.3253 -0.2631
   26MOL    H5112601   1.536   6.684   0.884 -0.3213 -0.1811  0.2509
   26MOL    C5212602   2.282   6.397   0.349  0.1138  0.1232  0.3937
   26MOL    C5312603   2.285   6.252   0.417  0.4780  0.1974  0.5897
   26MOL    O5412604   2.286   6.153   0.309  0.1160 -0.2389  0.2991
   26MOL    C5512605   2.159   6.125   0.263 -0.3004 -0.1486 -0.0916
   26MOL    C5612606   2.129   5.995   0.344  0.3221 -0.0768  0.3978
   26MOL    C5712607   1.987   5.931   0.326 -0.4484 -0.2057 -0.2297
   26MOL    C5812608   1.980   5.803   0.403 -0.1655  0.7309 -0.0261
   26MOL    C5912609   1.842   5.744   0.392 -0.1124 -0.5872  0.3023
   26MOL    C6012610   1.827   5.620   0.483  0.2094 -0.2791 -0.1930
   26MOL    H6112611   2.381   6.432   0.322 -0.0226  0.0994 -0.1429
   26MOL    H6212612   2.223   6.402   0.258  0.6333 -0.2597  0.0340
   26MOL    H6312613   2.207   6.241   0.492  0.1552 -0.9766  0.0971
   26MOL    H6412614   2.168   6.103   0.157 -0.3040  0.3830 -0.2066
   26MOL    H6512615   2.080   6.200   0.259 -1.4615 -1.3394  0.2825
   26MOL    H6612616   2.141   6.016   0.451 -1.4252 -0.1156  0.6279
   26MOL    H6712617   2.218   5.934   0.327 -0.6762 -1.7545  1.0205
   26MOL    H6812618   1.908   6.002   0.353  0.5331  1.0266 -0.5610
   26MOL    H6912619   1.964   5.920   0.220  0.6785 -1.0445 -0.3925
   26MOL    H7012620   2.063   5.737   0.375  0.1773  1.3060 -0.3750
   26MOL    H7112621   1.998   5.828   0.507  2.5781  0.5160 -0.3938
   26MOL    H7212622   1.768   5.817   0.426 -1.8090 -0.7143 -2.9522
   26MOL    H7312623   1.818   5.727   0.288  1.6712  3.0846 -0.7807
   26MOL    H7412624   1.872   5.641   0.580  1.4591 -1.5673 -0.4862
   26MOL    H7512625   1.724   5.587   0.501  0.9611 -2.0028  1.0038
   26MOL    H7612626   1.882   5.535   0.444  2.3297  0.6936  0.6256
   26MOL    C7712627   2.427   6.204   0.468 -0.1479 -0.2034  0.1292
   26MOL    C7812628   2.486   6.305   0.569 -0.2034 -0.5799 -0.8402
   26MOL    O7912629   2.624   6.280   0.614  0.3497  0.1319  0.8126
   26MOL    C8012630   2.729   6.295   0.520  0.2866 -0.0049 -0.4793
   26MOL    C8112631   2.856   6.354   0.573  0.4602  0.4828 -0.5178
   26MOL    C8212632   2.937   6.243   0.656 -0.1776 -0.0123 -0.2994
   26MOL    C8312633   3.064   6.301   0.712  0.3439 -0.5722  0.3197
   26MOL    C8412634   3.157   6.203   0.779 -0.6079 -0.2166  0.4006
   26MOL    C8512635   3.272   6.263   0.854 -0.0090 -0.3217  0.1663
   26MOL    H8612636   2.493   6.200   0.382 -0.3666  3.1431 -0.2457
   26MOL    H8712637   2.431   6.102   0.507  0.9288 -0.4642 -0.6250
   26MOL    H8812638   2.485   6.410   0.540 -1.7669  0.0986  1.5241
   26MOL    H8912639   2.688   6.354   0.439 -0.4881  1.8655  1.2409
   26MOL    H9012640   2.743   6.194   0.481  1.8029  1.0463 -2.7123
   26MOL    H9112641   2.835   6.439   0.638 -0.9346 -0.0973 -0.2117
   26MOL    H9212642   2.916   6.375   0.484 -0.2734 -1.1094 -1.4018
   26MOL    H9312643   2.874   6.197   0.731  0.8971 -0.0710  0.5854
   26MOL    H9412644   2.961   6.168   0.580  0.5687  0.7545 -0.8366
   26MOL    H9512645   3.111   6.347   0.626 -1.1448  1.6226  0.6422
   26MOL    H9612646   3.042   6.390   0.771  1.9861  1.2006 -1.6581
   26MOL    H9712647   3.104   6.139   0.851 -1.2810  1.3454  1.3098
   26MOL    H9812648   3.191   6.128   0.708  1.3043  0.5998  0.4117
   26MOL    H9912649   3.330   6.184   0.902  2.0551  0.2032 -1.3567
   26MOL   H10012650   3.339   6.316   0.786 -0.9900  1.0496  0.2589
   26MOL   H10112651   3.238   6.340   0.923 -0.2999 -2.0483  1.9984
   26MOL   C10212652   2.403   6.277   0.698  0.1155 -0.2621 -0.2204
   26MOL   C10312653   2.440   6.373   0.812  0.6538 -0.2904  0.6058
   26MOL   O10412654   2.395   6.500   0.767  0.3389 -0.2059  0.0565
   26MOL   C10512655   2.467   6.618   0.813 -0.4299 -1.0465 -0.1970
   26MOL   C10612656   2.585   6.630   0.716  0.1037 -0.2775  0.1651
   26MOL   C10712657   2.609   6.779   0.704 -0.6114  0.5343 -0.8320
   26MOL   C10812658   2.732   6.819   0.627 -0.7836  0.8967 -1.0508
   26MOL   C10912659   2.719   6.953   0.554  0.0474  0.1806 -0.1896
   26MOL   C11012660   2.644   7.060   0.626 -0.0637  1.0095  0.0570
   26MOL   H11112661   2.295   6.273   0.682  0.0115  0.0997  0.3945
   26MOL   H11212662   2.435   6.180   0.736 -1.2052 -0.0436  1.5201
   26MOL   H11312663   2.546   6.360   0.834  1.0997  2.3081  0.0898
   26MOL   H11412664   2.506   6.621   0.915  1.0828  0.3373 -0.8028
   26MOL   H11512665   2.390   6.693   0.793 -0.0399 -0.8304 -0.9122
   26MOL   H11612666   2.559   6.585   0.621  2.6060 -0.5808 -0.4200
   26MOL   H11712667   2.669   6.568   0.750  1.1863  0.2859 -1.4705
   26MOL   H11812668   2.521   6.820   0.656 -0.1320  0.4604 -1.7859
   26MOL   H11912669   2.618   6.811   0.808  0.9084 -1.3956 -0.3219
   26MOL   H12012670   2.821   6.826   0.689 -1.2702 -3.3663  0.2685
   26MOL   H12112671   2.744   6.741   0.552 -1.6421  0.6864 -0.9746
   26MOL   H12212672   2.812   6.983   0.506 -0.2163 -1.3583 -1.7022
   26MOL   H12312673   2.651   6.939   0.469 -0.6955  0.5143  0.3453
   26MOL   H12412674   2.694   7.087   0.720 -1.1598  1.4126  0.5271
   26MOL   H12512675   2.641   7.152   0.569  0.4631  0.8262 -0.2746
   26MOL   H12612676   2.543   7.029   0.651 -0.0762 -0.0717 -1.3158
   26MOL   C12712677   2.370   6.353   0.947  0.0576  0.4436  0.1599
   26MOL   C12812678   2.215   6.364   0.947 -0.4622 -0.2012  0.5255
   26MOL   O12912679   2.180   6.475   1.031 -0.4488 -0.4450 -0.7064
   26MOL   C13012680   2.108   6.588   0.970  0.0932  0.3398  0.2560
   26MOL   C13112681   2.119   6.713   1.059  0.6005  0.0924 -0.3711
   26MOL   C13212682   2.259   6.750   1.103  0.3043  0.2160  0.2213
   26MOL   C13312683   2.266   6.874   1.185  0.0892  0.1635 -0.7923
   26MOL   C13412684   2.417   6.913   1.211  0.3384  0.0027 -0.0077
   26MOL   C13512685   2.437   7.007   1.325  0.0863  0.1267 -0.2187
   26MOL   H13612686   2.391   6.248   0.966  1.1111  0.8618  1.3142
   26MOL   H13712687   2.408   6.416   1.027  0.0668  1.8290 -0.9050
   26MOL   H13812688   2.182   6.378   0.844  0.5834  0.8276  0.3149
   26MOL   H13912689   2.004   6.569   0.943  0.0384  1.3832 -0.2806
   26MOL   H14012690   2.149   6.613   0.872  0.1221  1.6504  0.6054
   26MOL   H14112691   2.071   6.696   1.156  0.7463 -2.4609 -0.7065
   26MOL   H14212692   2.078   6.797   1.004 -1.5545 -1.0277 -0.5363
   26MOL   H14312693   2.307   6.668   1.156  0.4847  0.7220  0.8323
   26MOL   H14412694   2.320   6.766   1.013 -1.4285  2.2499 -0.6383
   26MOL   H14512695   2.213   6.955   1.134 -0.3599  0.1087 -0.4201
   26MOL   H14612696   2.230   6.865   1.287  2.3446  1.3310  0.1331
   26MOL   H14712697   2.468   6.821   1.238 -1.9849 -1.3162  0.0641
   26MOL   H14812698   2.456   6.955   1.119  0.7518  0.2156  0.2628
   26MOL   H14912699   2.357   7.080   1.317 -1.1310 -1.0078  1.1824
   26MOL   H15012700   2.442   6.969   1.428 -0.1894 -1.3137 -0.7281
   26MOL   H15112701   2.533   7.058   1.322  0.3753 -0.2644  1.5435
   26MOL   C15212702   2.152   6.240   1.014 -0.5237 -0.2073  0.4975
   26MOL   C15312703   2.117   6.119   0.927  0.5404  0.5464  0.1779
   26MOL   O15412704   2.234   6.046   0.893  0.2766 -0.2065 -0.4509
   26MOL   C15512705   2.238   5.982   0.772 -0.2819  0.2315  0.1160
   26MOL   C15612706   2.361   5.894   0.750  0.4774 -0.0647 -0.4718
   26MOL   C15712707   2.357   5.770   0.847  0.4735 -0.9275  0.7711
   26MOL   C15812708   2.490   5.696   0.856  0.0966 -0.5358 -0.4554
   26MOL   C15912709   2.478   5.569   0.947 -0.2078  0.2084  0.0636
   26MOL   C16012710   2.592   5.473   0.959 -0.5797  0.0301  1.0146
   26MOL   H16112711   2.217   6.219   1.098 -0.1311 -1.4002 -0.1071
   26MOL   H16212712   2.058   6.266   1.063 -0.7216  0.3663 -0.1801
   26MOL   H16312713   2.073   6.145   0.831 -0.4147 -1.7188 -0.0362
   26MOL   H16412714   2.242   6.060   0.696 -0.0103 -0.3852 -0.5130
   26MOL   H16512715   2.146   5.926   0.756  1.5143 -2.9396  0.3017
   26MOL   H16612716   2.455   5.947   0.767  0.5123 -0.6219  1.1770
   26MOL   H16712717   2.346   5.872   0.645 -1.0033 -1.5659  0.0085
   26MOL   H16812718   2.335   5.804   0.948 -0.5922 -1.5684  0.7650
   26MOL   H16912719   2.262   5.723   0.819 -1.3803  1.2379  3.2460
   26MOL   H17012720   2.530   5.665   0.759 -3.4463  0.0369 -2.2045
   26MOL   H17112721   2.547   5.778   0.899 -1.2634  1.1231 -1.7398
   26MOL   H17212722   2.434   5.594   1.043  0.8688  0.3353  0.5381
   26MOL   H17312723   2.403   5.505   0.899  2.5488 -2.3061 -1.1015
   26MOL   H17412724   2.577   5.397   1.035 -0.3153 -0.4591  0.5868
   26MOL   H17512725   2.610   5.424   0.863 -0.3005  0.4649  0.8441
   26MOL   H17612726   2.686   5.520   0.988  0.3612  1.3536 -3.6910
   26MOL   C17712727   2.020   6.024   1.003 -0.0037  0.1872 -0.1300
   26MOL   C17812728   1.871   6.052   0.995 -0.1092 -0.1045 -0.2076
   26MOL   O17912729   1.814   6.032   0.861 -0.2867 -0.0550 -0.2450
   26MOL   C18012730   1.763   6.156   0.813  0.2564  0.0105  0.6523
   26MOL   C18112731   1.708   6.125   0.671  0.1405 -0.2098  0.1051
   26MOL   C18212732   1.593   6.024   0.677  0.0468 -0.0621  0.5815
   26MOL   C18312733   1.538   5.982   0.534  0.0074 -0.5717 -0.7616
   26MOL   C18412734   1.463   5.850   0.535 -0.2190 -0.2359 -0.2957
   26MOL   C18512735   1.336   5.860   0.618  0.5414 -0.0502 -0.0146
   26MOL   H18612736   2.026   5.918   0.978 -0.4732  0.0686  0.2460
   26MOL   H18712737   2.053   6.026   1.107 -2.2985 -1.5855  0.6819
   26MOL   H18812738   1.863   6.153   1.037 -2.9265 -0.3695  0.0024
   26MOL   H18912739   1.849   6.223   0.814  0.1790  0.0980  2.8624
   26MOL   H19012740   1.687   6.193   0.881  0.2818 -1.0337  1.2573
   26MOL   H19112741   1.797   6.094   0.616  0.6663 -0.5425  1.1385
   26MOL   H19212742   1.662   6.214   0.628 -1.3644 -0.8813  0.3099
   26MOL   H19312743   1.626   5.934   0.729  1.7477  0.8367  1.0762
   26MOL   H19412744   1.510   6.063   0.736 -0.4079 -1.0263  0.6013
   26MOL   H19512745   1.467   6.055   0.494 -0.6611  0.1629  1.6629
   26MOL   H19612746   1.615   5.987   0.457  0.9474 -0.4079  0.1748
   26MOL   H19712747   1.431   5.834   0.432 -0.6867  2.3326 -0.5687
   26MOL   H19812748   1.530   5.765   0.545  0.5013  0.0458 -2.3221
   26MOL   H19912749   1.283   5.765   0.607  0.8125 -0.0416 -1.4788
   26MOL   H20012750   1.357   5.859   0.725 -4.5391 -1.0750  1.0834
   26MOL   H20112751   1.269   5.941   0.593  0.6639  0.0194 -0.1168
   26MOL   C20212752   1.799   5.950   1.086  0.4540 -0.5248  0.3525
   26MOL   C20312753   1.654   5.997   1.123 -0.2274  0.1528  0.2562
   26MOL   O20412754   1.679   6.127   1.178 -0.4609  0.7111  0.5039
   26MOL   C20512755   1.562   6.211   1.161 -0.3298 -0.0580  0.1305
   26MOL   C20612756   1.606   6.360   1.192 -0.8582 -0.1423  0.0828
   26MOL   C20712757   1.683   6.430   1.081 -0.3477 -1.0066 -0.7811
   26MOL   C20812758   1.694   6.582   1.094 -0.1778  0.1172 -0.6033
   26MOL   C20912759   1.798   6.618   1.199  0.1924  0.6174  0.3136
   26MOL   C21012760   1.824   6.766   1.226  0.3674  0.7828 -0.2510
   26MOL   H21112761   1.787   5.853   1.036 -1.2754 -0.7273  1.0947
   26MOL   H21212762   1.852   5.946   1.180  3.3185  1.4013 -1.1307
   26MOL   H21312763   1.605   5.994   1.026 -0.1946 -0.0341  0.2449
   26MOL   H21412764   1.484   6.178   1.230 -0.8774 -0.0895 -0.4969
   26MOL   H21512765   1.520   6.228   1.062 -0.9386  1.3639  0.6189
   26MOL   H21612766   1.663   6.373   1.284 -2.2490 -0.5608  1.0123
   26MOL   H21712767   1.518   6.423   1.205  0.0576  1.2673 -0.4275
   26MOL   H21812768   1.782   6.387   1.063  0.8185  0.2480  2.3076
   26MOL   H21912769   1.624   6.418   0.990 -1.4201 -1.8998  0.0088
   26MOL   H22012770   1.743   6.638   1.014 -1.1588  0.5275 -0.9245
   26MOL   H22112771   1.598   6.628   1.119 -0.9835 -1.9726  0.2966
   26MOL   H22212772   1.782   6.566   1.294 -1.6756  2.4769  1.0604
   26MOL   H22312773   1.892   6.570   1.174 -0.1051 -0.1328  0.6018
   26MOL   H22412774   1.734   6.817   1.259  0.9339  1.1827  0.6841
   26MOL   H22512775   1.905   6.771   1.299  0.4070 -0.2212 -0.2115
   26MOL   H22612776   1.861   6.807   1.132 -0.3267 -0.0704 -0.9101
   26MOL   C22712777   1.578   5.898   1.212 -0.3240  0.4504  0.2094
   26MOL   C22812778   1.578   5.747   1.168 -0.0373 -0.3094  0.4020
   26MOL   O22912779   1.527   5.665   1.275  0.2510 -0.2201  0.2824
   26MOL   C23012780   1.612   5.569   1.319 -0.1436 -0.5387 -0.0921
   26MOL   C23112781   1.579   5.529   1.460 -0.1108 -0.3283  0.2296
   26MOL   C23212782   1.573   5.651   1.559 -0.0866  0.0436 -0.4991
   26MOL   C23312783   1.572   5.611   1.710  0.2120 -0.1242  0.0134
   26MOL   C23412784   1.441   5.543   1.747  0.2679 -0.7252 -0.4990
   26MOL   C23512785   1.436   5.494   1.893 -0.1217  0.1332  0.4385
   26MOL   H23612786   1.626   5.898   1.310 -0.4011 -0.3825  0.2548
   26MOL   H23712787   1.475   5.921   1.236 -0.2207  1.6853 -0.4733
   26MOL   H23812788   1.675   5.707   1.140  0.0258 -0.8000  1.2811
   26MOL   H23912789   1.715   5.602   1.322 -0.9716  1.9436  2.0306
   26MOL   H24012790   1.604   5.478   1.258 -1.4866  0.4441 -1.4214
   26MOL   H24112791   1.655   5.456   1.487  2.0443  1.6347 -0.4213
   26MOL   H24212792   1.485   5.473   1.458 -1.2880  1.4561  2.4910
   26MOL   H24312793   1.666   5.703   1.537  0.2911 -0.6883 -0.6164
   26MOL   H24412794   1.493   5.723   1.538 -1.0366 -0.1218  2.2712
   26MOL   H24512795   1.656   5.549   1.739 -0.0532 -1.0582 -1.1270
   26MOL   H24612796   1.582   5.702   1.769  0.3736 -0.7597  0.9736
   26MOL   H24712797   1.358   5.613   1.734  3.1905  3.4342  1.7832
   26MOL   H24812798   1.423   5.457   1.683  0.5090 -2.1290  1.2769
   26MOL   H24912799   1.350   5.433   1.921  1.0335 -1.9426 -0.4611
   26MOL   H25012800   1.525   5.436   1.914  1.3930  2.7847  1.6124
   26MOL   H25112801   1.442   5.585   1.953 -0.1912  0.4925 -0.0898
   26MOL   C25212802   1.494   5.730   1.044 -0.0820 -0.2820  0.3849
   26MOL   C25312803   1.442   5.592   1.008  0.1852  0.8428 -0.0709
   26MOL   O25412804   1.558   5.513   0.967  0.0950  0.4523 -0.2092
   26MOL   C25512805   1.605   5.546   0.837 -0.1159 -0.0451 -0.2965
   26MOL   C25612806   1.745   5.484   0.828  0.4706  0.2113 -0.3173
   26MOL   C25712807   1.841   5.529   0.935  0.6862  0.4174 -0.0887
   26MOL   C25812808   1.983   5.469   0.919  0.4273  0.5576 -0.0515
   26MOL   C25912809   2.083   5.511   1.033  0.0430 -0.2988  0.0319
   26MOL   C26012810   2.043   5.442   1.166  0.4095  0.1824 -0.1085
   26MOL   H26112811   1.403   5.788   1.058 -0.5470  0.1147 -3.6583
   26MOL   H26212812   1.543   5.771   0.955 -0.7624 -2.1355 -0.8746
   26MOL   H26312813   1.410   5.554   1.105 -0.3395  1.4923  0.0169
   26MOL   H26412814   1.608   5.653   0.813 -0.4214 -0.1248 -0.6986
   26MOL   H26512815   1.540   5.498   0.764 -0.5277 -1.8552  1.2485
   26MOL   H26612816   1.793   5.503   0.732 -1.6626  0.8847 -1.2838
   26MOL   H26712817   1.733   5.376   0.821 -0.6067  0.3477 -0.5845
   26MOL   H26812818   1.843   5.638   0.926  0.9299  0.3660 -0.7131
   26MOL   H26912819   1.796   5.509   1.032  1.1829 -0.4763 -0.0376
   26MOL   H27012820   1.972   5.360   0.925 -0.2122  0.6540  0.7066
   26MOL   H27112821   2.023   5.483   0.819 -0.6441 -1.9453 -0.8971
   26MOL   H27212822   2.183   5.477   1.003 -0.4007 -1.0518 -0.6251
   26MOL   H27312823   2.099   5.616   1.058  0.0611 -0.8365  2.4039
   26MOL   H27412824   1.941   5.456   1.201  0.0017 -0.5940 -0.9668
   26MOL   H27512825   2.063   5.335   1.160  0.7946  0.2343  0.2245
   26MOL   H27612826   2.112   5.474   1.245  0.8558  0.1263 -0.4747
   26MOL   C27712827   1.327   5.595   0.918 -0.5545 -0.0190  0.3376
   26MOL   C27812828   1.186   5.587   0.986 -0.2684 -0.4077 -0.1104
   26MOL   O27912829   1.175   5.672   1.098  0.1259 -0.3231 -0.2256
   26MOL   C28012830   1.124   5.603   1.214  0.4914  0.2603 -0.1756
   26MOL   C28112831   1.096   5.715   1.312  0.0948  0.6238  0.2167
   26MOL   C28212832   1.222   5.793   1.364  0.3261  0.3612 -0.1949
   26MOL   C28312833   1.178   5.906   1.465  0.4830  0.3248  0.5663
   26MOL   C28412834   1.285   5.958   1.563  0.0802 -0.4680 -0.6353
   26MOL   C28512835   1.225   6.037   1.679 -0.5573  0.0848  0.1707
   26MOL   H28612836   1.324   5.686   0.858 -0.5750 -1.3265 -1.6865
   26MOL   H28712837   1.337   5.517   0.844 -0.9616  1.1292 -0.9508
   26MOL   H28812838   1.179   5.483   1.017 -1.0921 -0.4082 -0.2891
   26MOL   H28912839   1.195   5.532   1.257  0.4519  0.0992 -0.3767
   26MOL   H29012840   1.030   5.554   1.193  1.7936 -1.8451 -1.3043
   26MOL   H29112841   1.037   5.671   1.392 -0.5988  0.7331 -0.2328
   26MOL   H29212842   1.030   5.794   1.277 -0.5224  0.8720  1.8914
   26MOL   H29312843   1.286   5.727   1.423  1.8679 -0.3094 -2.5296
   26MOL   H29412844   1.270   5.830   1.273  0.7965  0.4447  0.0833
   26MOL   H29512845   1.145   5.990   1.404  0.2268  0.3093  0.6794
   26MOL   H29612846   1.098   5.875   1.532  0.2935 -0.1310  0.1402
   26MOL   H29712847   1.333   5.869   1.602 -1.4066 -1.4762 -1.0831
   26MOL   H29812848   1.360   6.004   1.498 -0.9178  1.9291 -0.1471
   26MOL   H29912849   1.308   6.060   1.747 -1.2012  0.8780  0.7049
   26MOL   H30012850   1.157   6.117   1.647 -0.8152 -0.3786 -0.4359
   26MOL   H30112851   1.165   5.966   1.736 -0.9561 -0.3150 -0.7512
   26MOL   C30212852   1.086   5.637   0.876  0.3068  0.4707 -0.0470
   26MOL   C30312853   0.938   5.618   0.905 -0.8430  0.4568  0.9600
   26MOL   O30412854   0.908   5.479   0.901  0.0887  0.2783  0.0684
   26MOL   C30512855   0.795   5.438   0.974 -0.7367  0.4731 -0.1089
   26MOL   C30612856   0.837   5.314   1.051  0.2309  0.4762 -0.0317
   26MOL   C30712857   0.839   5.198   0.954 -0.8398 -0.1911 -0.1638
   26MOL   C30812858   0.887   5.064   1.016 -0.0366 -0.3160 -0.4987
   26MOL   C30912859   0.954   4.971   0.911  1.0011  0.0662  0.0578
   26MOL   C31012860   1.019   4.846   0.974 -0.2979 -0.2500  0.3104
   26MOL   H31112861   1.099   5.744   0.859 -2.3145  0.8576  0.2018
   26MOL   H31212862   1.111   5.588   0.782 -1.9233 -0.1697 -0.3266
   26MOL   H31312863   0.924   5.662   1.003 -0.6305 -0.0070  1.1992
   26MOL   H31412864   0.713   5.406   0.910 -0.9382 -1.7117  1.1874
   26MOL   H31512865   0.766   5.517   1.043 -0.1133  0.8859 -0.3155
   26MOL   H31612866   0.768   5.285   1.130 -1.6305 -0.2345 -1.8710
   26MOL   H31712867   0.936   5.327   1.096  0.4301 -0.2851 -0.2379
   26MOL   H31812868   0.741   5.178   0.910 -1.6413  4.1026 -0.5576
   26MOL   H31912869   0.895   5.217   0.862  0.9557  1.1674  1.2025
   26MOL   H32012870   0.971   5.086   1.082 -0.5824 -0.6450  0.3102
   26MOL   H32112871   0.815   5.016   1.082 -0.6057  1.1479 -0.0276
   26MOL   H32212872   0.889   4.933   0.833  0.8039  1.2774 -0.3823
   26MOL   H32312873   1.038   5.023   0.865  1.5731 -1.5389 -0.7416
   26MOL   H32412874   1.099   4.883   1.039 -2.0936  1.5816  1.5535
   26MOL   H32512875   0.954   4.790   1.042  0.0064  1.7596  2.3211
   26MOL   H32612876   1.071   4.781   0.904  0.6805  0.3480  0.4669
   26MOL   C32712877   0.844   5.696   0.810  0.4763  0.1990  0.3665
   26MOL   C32812878   0.703   5.735   0.860  0.5416  0.0209  1.1427
   26MOL   O32912879   0.725   5.826   0.962  0.0673 -0.2346 -0.3273
   26MOL   C33012880   0.684   5.793   1.094  0.1217  0.6519 -0.0822
   26MOL   C33112881   0.658   5.923   1.174  0.1154  0.1176 -0.0839
   26MOL   C33212882   0.785   6.001   1.211  0.1571  0.5591 -0.2956
   26MOL   C33312883   0.776   6.135   1.283 -0.1782  0.7030  0.2178
   26MOL   C33412884   0.701   6.239   1.194 -0.7842  0.3225  0.0758
   26MOL   C33512885   0.734   6.381   1.246  0.5581 -0.1339 -0.2354
   26MOL   H33612886   0.842   5.655   0.709 -1.9841  0.2351  0.3795
   26MOL   H33712887   0.888   5.793   0.785 -0.0060 -0.0187 -1.3952
   26MOL   H33812888   0.637   5.651   0.883 -0.7980  1.1036  1.3181
   26MOL   H33912889   0.733   5.710   1.144 -2.5226  0.5927  2.5361
   26MOL   H34012890   0.589   5.740   1.088  1.4006 -2.0944  2.5631
   26MOL   H34112891   0.599   5.907   1.264 -0.7646 -1.6852 -0.9568
   26MOL   H34212892   0.588   5.995   1.130  0.2078  0.2175 -0.0688
   26MOL   H34312893   0.853   5.940   1.270 -2.6425 -2.8145 -0.3938
   26MOL   H34412894   0.840   6.032   1.122  2.1470  1.6483  1.2752
   26MOL   H34512895   0.718   6.118   1.373  2.7276 -1.5416  1.7877
   26MOL   H34612896   0.878   6.162   1.313  1.1086 -3.3488 -0.0644
   26MOL   H34712897   0.724   6.231   1.088  1.6235  0.8449  0.5261
   26MOL   H34812898   0.595   6.217   1.206 -1.2588  1.2832 -2.2220
   26MOL   H34912899   0.680   6.451   1.182  1.6911  1.1084  0.1612
   26MOL   H35012900   0.707   6.400   1.350 -0.3703 -0.3340 -0.4263
   26MOL   H35112901   0.841   6.398   1.255  0.2987  1.2265  0.3117
   26MOL   C35212902   0.622   5.816   0.754  0.3966  0.1863  0.0416
   26MOL   C35312903   0.475   5.853   0.791  0.0539  0.2884  0.4436
   26MOL   O35412904   0.397   5.733   0.774  0.1297  0.2608 -0.0468
   26MOL   C35512905   0.273   5.723   0.830 -0.0111  0.2930  0.2930
   26MOL   C35612906   0.191   5.618   0.750 -0.2915 -0.0496 -0.2595
   26MOL   C35712907   0.238   5.480   0.769 -0.3456  0.2216 -0.0639
   26MOL   C35812908   0.139   5.369   0.747 -0.0280  0.3886  0.4056
   26MOL   C35912909   0.186   5.217   0.767  0.3268 -0.2631  0.7915
   26MOL   C36012910   0.315   5.174   0.703  0.5995  0.2027 -0.3390
   26MOL   H36112911   0.686   5.899   0.723  2.2115 -0.6969  1.2903
   26MOL   H36212912   0.618   5.750   0.667 -0.7470  2.6550 -1.8470
   26MOL   H36312913   0.456   5.890   0.891 -3.0278 -0.4127  0.1641
   26MOL   H36412914   0.232   5.822   0.850 -0.2074  0.0905  0.9080
   26MOL   H36512915   0.297   5.680   0.927  2.4896 -0.0548 -0.4320
   26MOL   H36612916   0.181   5.650   0.647  0.3559 -0.0723 -0.3337
   26MOL   H36712917   0.092   5.626   0.796  0.3841  1.0127  1.0617
   26MOL   H36812918   0.325   5.467   0.704 -1.2739  1.8066 -1.6698
   26MOL   H36912919   0.279   5.466   0.869  0.1594  0.1897 -0.2722
   26MOL   H37012920   0.050   5.387   0.808 -0.1353  0.2334  0.2942
   26MOL   H37112921   0.096   5.382   0.648  2.1061  1.4916 -0.4014
   26MOL   H37212922   0.179   5.186   0.871  0.7456  1.3216  1.2976
   26MOL   H37312923   0.118   5.152   0.712  1.0778 -0.6057  0.2592
   26MOL   H37412924   0.325   5.066   0.709 -0.0447  0.1043 -0.9320
   26MOL   H37512925   0.339   5.218   0.607 -0.9031  1.6635 -0.0775
   26MOL   H37612926   0.396   5.213   0.765 -0.3758  2.8166 -0.6544
   26MOL   C37712927   0.421   5.969   0.697 -0.1453  1.0507  0.3064
   26MOL   C37812928   0.441   6.118   0.744  0.0443 -0.0446 -0.6357
   26MOL   O37912929   0.324   6.162   0.812  0.4601 -0.3999  0.0165
   26MOL   C38012930   0.320   6.142   0.956  0.6898 -0.2764 -0.5296
   26MOL   C38112931   0.200   6.216   1.022 -0.0978  0.5169  0.4407
   26MOL   C38212932   0.194   6.191   1.169 -0.1391  0.7354 -0.1276
   26MOL   C38312933   0.069   6.264   1.225  0.2203 -0.3928 -0.4655
   26MOL   C38412934   0.029   6.216   1.363 -0.4563  0.4305 -0.2827
   26MOL   C38512935   7.675   6.290   1.396  0.0566 -0.2520  0.0842
   26MOL   H38612936   0.462   5.959   0.597  0.6584  1.1558  0.6160
   26MOL   H38712937   0.313   5.959   0.688  0.1246 -0.3658 -1.6662
   26MOL   H38812938   0.535   6.122   0.800 -0.3313  0.0193 -0.0058
   26MOL   H38912939   0.414   6.183   0.991  1.6833 -1.6390 -1.5279
   26MOL   H39012940   0.324   6.037   0.986  0.5321 -0.2209 -0.3166
   26MOL   H39112941   0.104   6.180   0.985 -1.1350  0.5683  3.0158
   26MOL   H39212942   0.203   6.321   0.992  2.3775  0.7616  1.4814
   26MOL   H39312943   0.196   6.082   1.171  1.7782  0.7468 -0.3834
   26MOL   H39412944   0.285   6.224   1.219 -0.6777  0.6463  0.9219
   26MOL   H39512945   0.099   6.368   1.239  0.5955 -0.6555  0.8148
   26MOL   H39612946   7.762   6.262   1.157  0.4585 -0.8702 -0.7515
   26MOL   H39712947   0.005   6.110   1.365  1.0248  0.0884  0.3094
   26MOL   H39812948   0.105   6.243   1.437 -2.1482  1.1660  1.2195
   26MOL   H39912949   7.689   6.398   1.396 -1.7509  0.0007  0.5254
   26MOL   H40012950   7.609   6.270   1.311  0.1855  2.6043 -0.7597
   26MOL   H40112951   7.623   6.254   1.485 -0.5785 -0.5468 -0.4040
   26MOL   C40212952   0.449   6.207   0.622  0.2505  0.0101  0.0761
   26MOL   C40312953   0.488   6.355   0.651  0.0800  0.7786 -0.3783
   26MOL   O40412954   0.454   6.419   0.525 -0.3368  0.4322 -0.1232
   26MOL   C40512955   0.329   6.480   0.534 -0.5453  0.6469  0.7444
   26MOL   C40612956   0.266   6.514   0.401  0.3065 -0.2888  0.3758
   26MOL   C40712957   0.190   6.403   0.327  0.4250 -0.4119 -0.2138
   26MOL   C40812958   0.295   6.308   0.250  0.1379 -0.7285  0.1326
   26MOL   C40912959   0.214   6.194   0.183  0.4088 -0.1249  0.1531
   26MOL   C41012960   0.119   6.234   0.070  0.0923 -0.2698 -0.3119
   26MOL   H41112961   0.354   6.195   0.570  0.2581  0.1253  0.0363
   26MOL   H41212962   0.527   6.171   0.555  2.2467  1.8151  1.3386
   26MOL   H41312963   0.435   6.397   0.736  0.9149 -0.6108  0.8662
   26MOL   H41412964   0.338   6.568   0.598  1.8741  0.8601  0.1703
   26MOL   H41512965   0.254   6.428   0.593 -1.5716 -0.0538 -1.1415
   26MOL   H41612966   0.343   6.548   0.331 -2.0736  3.9497 -0.3126
   26MOL   H41712967   0.205   6.604   0.412  0.7929  0.1546 -0.4981
   26MOL   H41812968   0.131   6.337   0.391  0.1461  0.8012  0.7994
   26MOL   H41912969   0.119   6.451   0.259 -0.9390 -1.6304  0.3184
   26MOL   H42012970   0.355   6.363   0.178 -1.8504  2.0739  0.5634
   26MOL   H42112971   0.363   6.264   0.323 -1.7328 -1.7186  1.3455
   26MOL   H42212972   0.283   6.122   0.139  1.8010  1.8893 -1.0585
   26MOL   H42312973   0.157   6.132   0.252 -1.5894 -0.8981 -2.1459
   26MOL   H42412974   0.078   6.137   0.040 -0.6846 -0.2597  0.6894
   26MOL   H42512975   0.039   6.301   0.101 -0.4649 -0.3497 -1.5190
   26MOL   H42612976   0.176   6.279   7.766  1.8695  0.0714  1.1042
   26MOL   C42712977   0.637   6.382   0.668 -0.1783  0.1914 -0.1022
   26MOL   C42812978   0.674   6.529   0.676  0.3586  0.2754  0.6481
   26MOL   O42912979   0.791   6.545   0.764  0.4659  0.0785 -0.1367
   26MOL   C43012980   0.771   6.539   0.909  0.5507 -0.2727  0.5437
   26MOL   C43112981   0.909   6.523   0.983  0.2089 -0.0035  0.2981
   26MOL   C43212982   1.010   6.622   0.917 -0.4213 -0.6769  0.5294
   26MOL   C43312983   1.149   6.611   0.988 -0.3265 -0.6571 -0.7395
   26MOL   C43412984   1.143   6.646   1.136  0.1799  0.4879 -0.0564
   26MOL   C43512985   1.283   6.644   1.196 -0.2031  0.4988 -0.9477
   26MOL   H43612986   0.649   6.334   0.766 -1.4738  0.3899  0.1568
   26MOL   H43712987   0.708   6.327   0.606  1.3163  1.7368  0.1940
   26MOL   H43812988   0.583   6.568   0.722  0.0425  0.4438 -0.1113
   26MOL   H43912989   0.701   6.458   0.930 -0.1765  0.2750  0.2427
   26MOL   H44012990   0.725   6.637   0.923  2.7276  0.6507  1.4844
   26MOL   H44112991   0.942   6.420   0.971  1.3494  0.3102  0.7223
   26MOL   H44212992   0.893   6.533   1.090  0.0399  2.8978  0.0616
   26MOL   H44312993   1.026   6.593   0.813 -0.7012  0.6989  0.0945
   26MOL   H44412994   0.963   6.720   0.925 -0.9901 -0.8386 -0.7793
   26MOL   H44512995   1.192   6.515   0.961  4.8839  1.2565  0.1263
   26MOL   H44612996   1.216   6.677   0.932 -0.9306 -0.8767 -1.7468
   26MOL   H44712997   1.112   6.750   1.138  3.5764  1.5310 -0.0824
   26MOL   H44812998   1.074   6.581   1.191 -1.0353  0.1871 -1.9158
   26MOL   H44912999   1.329   6.545   1.201 -0.6030  0.3656  0.1650
   26MOL   H45013000   1.345   6.702   1.128  1.1228 -1.3282 -1.3078
   26MOL   H45113001   1.280   6.689   1.295 -0.3540  1.9296 -1.5850
   26MOL   C45213002   0.691   6.597   0.538 -0.7144  1.0060 -0.1755
   26MOL   C45313003   0.658   6.740   0.523  0.4626  0.0251  1.0318
   26MOL   O45413004   0.689   6.773   0.381  0.5667 -0.1239 -1.0616
   26MOL   C45513005   0.639   6.899   0.334 -0.0039 -0.4972 -0.1606
   26MOL   C45613006   0.490   6.905   0.313 -0.4146 -0.7953  0.5943
   26MOL   C45713007   0.444   7.049   0.266 -0.1328  0.0631 -0.2587
   26MOL   C45813008   0.495   7.076   0.125  0.0889 -0.4961 -0.0756
   26MOL   C45913009   0.419   7.189   0.058  0.2148 -0.0514 -0.0414
   26MOL   C46013010   0.493   7.253   7.715 -0.1408 -0.2784 -0.7713
   26MOL   H46113011   0.789   6.569   0.499 -1.3119 -3.4529  1.2870
   26MOL   H46213012   0.626   6.554   0.462 -1.7605  2.9952 -0.4478
   26MOL   H46313013   0.552   6.761   0.538  0.2855 -0.7426  0.8434
   26MOL   H46413014   0.692   6.906   0.239 -0.6136  0.9469 -0.4022
   26MOL   H46513015   0.686   6.977   0.394  0.2503  0.7938 -2.0013
   26MOL   H46613016   0.419   6.862   0.385  0.0750  0.3309  1.7634
   26MOL   H46713017   0.472   6.838   0.228  0.7868 -0.3512 -0.0113
   26MOL   H46813018   0.335   7.045   0.275 -0.2284 -0.7296 -1.5863
   26MOL   H46913019   0.463   7.122   0.345 -2.3764 -1.8997  2.1843
   26MOL   H47013020   0.602   7.092   0.120 -0.3416  1.9170 -3.3143
   26MOL   H47113021   0.486   6.988   0.061 -0.6507 -0.2194 -0.3648
   26MOL   H47213022   0.328   7.142   0.019  1.1460 -1.1455 -0.9128
   26MOL   H47313023   0.377   7.260   0.130 -0.2596  1.2783 -1.5993
   26MOL   H47413024   0.495   7.189   7.627 -0.8731 -0.8773 -0.3558
   26MOL   H47513025   0.440   7.344   7.688  0.8313  0.6079  0.2918
   26MOL   H47613026   0.597   7.281   7.733  0.0121 -2.0687  1.3618
   26MOL   C47713027   0.737   6.832   0.620  0.1188 -0.2961 -0.9954
   26MOL   C47813028   0.891   6.833   0.597  0.2247 -0.5178 -0.0417
   26MOL   O47913029   0.962   6.916   0.691  0.1574  0.0329  0.5727
   26MOL   C48013030   1.104   6.934   0.676  0.0941 -0.1765 -0.2473
   26MOL   C48113031   1.152   6.964   0.826  1.0610  0.1096 -0.1962
   26MOL   C48213032   1.305   6.963   0.830 -0.0683  0.6696 -0.2115
   26MOL   C48313033   1.365   6.978   0.977  0.0429 -0.4834 -0.6820
   26MOL   C48413034   1.517   6.984   0.999  0.3580  0.0612  0.3388
   26MOL   C48513035   1.549   6.991   1.151  0.0957  0.1984 -0.6366
   26MOL   H48613036   0.694   6.932   0.608 -2.8403 -1.4817 -0.6326
   26MOL   H48713037   0.711   6.807   0.722  0.6179  1.1706 -0.4968
   26MOL   H48813038   0.925   6.730   0.596 -0.9160 -0.8876 -1.5094
   26MOL   H48913039   1.132   7.018   0.613  0.5531  0.3894  0.6876
   26MOL   H49013040   1.158   6.849   0.633 -0.5855 -1.2146  0.9132
   26MOL   H49113041   1.124   6.882   0.891 -0.3282 -1.2139 -2.4074
   26MOL   H49213042   1.102   7.053   0.864  2.4463  0.5730  0.5708
   26MOL   H49313043   1.349   6.877   0.781  0.1708  1.7774 -2.0072
   26MOL   H49413044   1.327   7.056   0.777 -1.3421 -0.9311 -3.6845
   26MOL   H49513045   1.315   7.063   1.024  0.6232 -0.6687  0.2620
   26MOL   H49613046   1.334   6.898   1.045 -0.8278  1.0014  0.7050
   26MOL   H49713047   1.552   6.896   0.945  2.6265  1.5943 -0.7457
   26MOL   H49813048   1.567   7.066   0.948  2.2259 -1.9104 -1.0937
   26MOL   H49913049   1.657   7.003   1.166  0.3385 -0.9238 -1.4237
   26MOL   H50013050   1.493   7.075   1.192  0.1933 -0.7192  1.3862
   26MOL   H50113051   1.515   6.901   1.200 -1.5361  0.5329 -1.1261
   26MOL   H50213052   0.906   6.872   0.496 -0.4389 -1.8411 -0.6637
   27MOL     C113053   7.106   1.517   1.064 -0.2564 -0.1520  0.0063
   27MOL     C213054   7.084   1.360   1.084  0.2593  0.4535  0.8234
   27MOL     O313055   7.140   1.328   1.209  0.0398  0.5080 -0.0746
   27MOL     C413056   7.062   1.234   1.294 -0.2340 -0.8127 -0.0258
   27MOL     C513057   7.127   1.249   1.432 -0.1580 -0.4764  0.1265
   27MOL     C613058   7.255   1.163   1.457 -0.7407 -0.2734  0.2332
   27MOL     C713059   7.321   1.175   1.599 -0.5755  0.4570  0.1724
   27MOL     C813060   7.394   1.045   1.637 -0.0266  0.1735  0.3969
   27MOL     C913061   7.515   1.014   1.545 -0.6794  0.4977  0.8386
   27MOL    H1013062   7.205   1.539   1.103  0.5187 -2.5958 -0.4512
   27MOL    H1113063   7.078   1.564   0.971 -1.7542 -0.7711  0.1318
   27MOL    H1213064   6.975   1.355   1.079  0.4054 -2.3437 -0.0641
   27MOL    H1313065   7.069   1.134   1.252 -1.5871 -1.3791  1.0607
   27MOL    H1413066   6.961   1.273   1.297  0.7241  1.7272 -0.1147
   27MOL    H1513067   7.056   1.207   1.504  0.7079  1.9535  2.4813
   27MOL    H1613068   7.135   1.356   1.448 -0.8526  0.1758 -3.5784
   27MOL    H1713069   7.206   1.067   1.442 -3.6467  1.3195 -0.7993
   27MOL    H1813070   7.327   1.185   1.378  2.7163 -1.7979  2.8115
   27MOL    H1913071   7.394   1.255   1.603  1.9073 -1.6914 -1.0520
   27MOL    H2013072   7.242   1.191   1.672 -0.1949  0.0173  0.6859
   27MOL    H2113073   7.329   0.958   1.638 -1.2045  1.0285 -0.2448
   27MOL    H2213074   7.436   1.067   1.735  1.3898 -0.2196 -0.1163
   27MOL    H2313075   7.489   0.957   1.456  0.3241 -0.9206  1.4243
   27MOL    H2413076   7.572   1.104   1.521 -1.2699  1.1923  2.0005
   27MOL    H2513077   7.590   0.960   1.603  1.3063  0.1969 -1.8824
   27MOL    H2613078   7.031   1.563   1.128 -0.9590  0.8575 -1.5282
   27MOL    C2713079   7.146   1.282   0.967 -0.2778  0.5870 -0.1863
   27MOL    C2813080   7.068   1.309   0.832 -0.1017  0.1042 -0.4434
   27MOL    O2913081   7.151   1.262   0.725 -0.0531 -0.3140 -0.4712
   27MOL    C3013082   7.243   1.358   0.683 -0.1323  0.0511 -0.6985
   27MOL    C3113083   7.304   1.328   0.545 -0.7638 -0.2039  0.1628
   27MOL    C3213084   7.397   1.435   0.492 -0.2075  0.2624  0.5165
   27MOL    C3313085   7.432   1.421   0.346  0.2253 -0.0541 -0.0199
   27MOL    C3413086   7.519   1.538   0.298 -0.4302 -0.0241  0.1524
   27MOL    C3513087   7.548   1.512   0.151  0.5064 -0.8732  0.4893
   27MOL    H3613088   7.246   1.324   0.969  0.2776 -0.7643  1.3410
   27MOL    H3713089   7.147   1.177   0.997  3.5740  1.4533  3.0423
   27MOL    H3813090   7.052   1.416   0.821 -1.4017 -0.0508 -0.0931
   27MOL    H3913091   7.315   1.377   0.763 -3.1950  1.0987  1.8929
   27MOL    H4013092   7.207   1.461   0.671  1.3014  1.2883  4.2176
   27MOL    H4113093   7.220   1.332   0.475  0.3615 -1.4578 -1.3018
   27MOL    H4213094   7.338   1.227   0.521  2.2610  1.3966 -2.8078
   27MOL    H4313095   7.353   1.534   0.501  1.7359  0.9805  2.6464
   27MOL    H4413096   7.479   1.445   0.564  0.1904 -1.2859  0.3100
   27MOL    H4513097   7.467   1.318   0.331 -3.0089 -1.3875  1.1279
   27MOL    H4613098   7.333   1.421   0.301 -1.0178  0.0242  2.6154
   27MOL    H4713099   7.466   1.632   0.300  0.8357  0.7865 -2.5559
   27MOL    H4813100   7.609   1.560   0.357  0.7051 -0.2420 -1.4619
   27MOL    H4913101   7.607   1.425   0.124  3.4355  1.0643  0.4000
   27MOL    H5013102   7.457   1.527   0.093 -0.8957  0.5914  2.9820
   27MOL    H5113103   7.599   1.598   0.106  0.3383 -1.5954 -1.1025
   27MOL    C5213104   6.932   1.232   0.834 -0.2643 -0.1108 -0.2687
   27MOL    C5313105   6.862   1.229   0.694 -0.2491 -0.6057  0.7322
   27MOL    O5413106   6.732   1.170   0.706  0.3894 -0.1666 -0.5616
   27MOL    C5513107   6.734   1.026   0.698 -0.0988 -0.7421 -0.1659
   27MOL    C5613108   6.593   0.984   0.718 -0.4461 -0.3527  0.0063
   27MOL    C5713109   6.523   0.994   0.587 -0.1563 -0.0255  0.1890
   27MOL    C5813110   6.370   0.951   0.593 -0.1088  0.0721 -0.8165
   27MOL    C5913111   6.293   0.970   0.464  0.2119 -0.2751  0.8936
   27MOL    C6013112   6.308   0.853   0.363  0.2313  0.5287  0.1227
   27MOL    H6113113   6.859   1.283   0.896 -0.2071 -0.1610 -0.1592
   27MOL    H6213114   6.934   1.131   0.875 -0.5028 -0.2852 -0.6818
   27MOL    H6313115   6.926   1.184   0.618 -1.2053  1.5542 -1.4522
   27MOL    H6413116   6.791   0.993   0.785 -0.5412  0.1042  0.4459
   27MOL    H6513117   6.778   0.981   0.609  2.0675  0.4270  0.2673
   27MOL    H6613118   6.534   1.028   0.799  0.4872 -2.5482  1.9363
   27MOL    H6713119   6.589   0.884   0.760  2.9825  0.4163  2.3064
   27MOL    H6813120   6.531   1.096   0.549  0.1864  0.4795  1.6073
   27MOL    H6913121   6.570   0.939   0.505  1.0138  0.7622  0.3323
   27MOL    H7013122   6.362   0.844   0.616 -0.3082  0.1284 -0.6241
   27MOL    H7113123   6.313   1.001   0.671 -0.2356 -0.8292 -0.3279
   27MOL    H7213124   6.191   1.002   0.484  0.6077  1.8106 -0.2702
   27MOL    H7313125   6.332   1.052   0.404  1.7039 -1.4715  0.1941
   27MOL    H7413126   6.248   0.885   0.278 -1.0469  0.9517  1.1603
   27MOL    H7513127   6.414   0.847   0.339  0.8785  2.2144  2.4332
   27MOL    H7613128   6.273   0.754   0.392 -1.3792  0.9966 -0.1672
   27MOL    C7713129   6.834   1.374   0.640 -0.5752 -0.1233  0.1678
   27MOL    C7813130   6.776   1.373   0.497  0.1971 -0.0180  0.7780
   27MOL    O7913131   6.881   1.345   0.407  0.5235  0.3092 -0.4275
   27MOL    C8013132   6.843   1.302   0.276 -0.3422 -0.5033 -0.2152
   27MOL    C8113133   6.767   1.165   0.262 -0.6854 -0.3405  0.0776
   27MOL    C8213134   6.760   1.127   0.116 -0.2128 -0.5208  0.5030
   27MOL    C8313135   6.658   1.023   0.090 -0.0730 -0.1556  0.3418
   27MOL    C8413136   6.669   0.896   0.168 -0.0023  0.5059 -0.2928
   27MOL    C8513137   6.619   0.771   0.088 -0.0271  0.1711 -0.0239
   27MOL    H8613138   6.920   1.441   0.651 -1.9176  1.5148  0.9368
   27MOL    H8713139   6.766   1.411   0.716  1.1282 -0.8722  2.1204
   27MOL    H8813140   6.708   1.289   0.483  0.0746  0.3225 -0.7468
   27MOL    H8913141   6.927   1.305   0.207 -0.0485  0.1625  0.1632
   27MOL    H9013142   6.777   1.374   0.228  0.7380  0.3571 -0.4279
   27MOL    H9113143   6.664   1.177   0.296 -0.0974  0.1410  1.7472
   27MOL    H9213144   6.815   1.093   0.329  1.0033  0.6301 -0.0525
   27MOL    H9313145   6.729   1.214   0.058  1.6323  0.5215  1.0487
   27MOL    H9413146   6.859   1.092   0.084 -0.1160  0.9848 -0.8833
   27MOL    H9513147   6.563   1.066   0.122  0.4365 -0.2452  1.9969
   27MOL    H9613148   6.641   1.020   7.759  0.2618 -0.6430  0.3013
   27MOL    H9713149   6.773   0.888   0.201 -1.0062  0.9473  3.1604
   27MOL    H9813150   6.619   0.891   0.264  2.3025  4.2278  1.1994
   27MOL    H9913151   6.611   0.680   0.148  2.3944 -0.9047 -1.2811
   27MOL   H10013152   6.517   0.790   0.054 -0.5862 -1.9805  0.3560
   27MOL   H10113153   6.684   0.740   0.007  0.0494 -0.5839  0.3137
   27MOL   C10213154   6.704   1.511   0.461  0.1764  0.1514 -0.1474
   27MOL   C10313155   6.549   1.507   0.456  0.7830  0.0852  0.1013
   27MOL   O10413156   6.503   1.405   0.367 -0.5775 -0.1507  0.1044
   27MOL   C10513157   6.480   1.457   0.235  0.0322  0.4715  0.1937
   27MOL   C10613158   6.423   1.345   0.160  0.4381  0.1716 -0.0258
   27MOL   C10713159   6.280   1.298   0.209  0.0650 -0.2432  0.4546
   27MOL   C10813160   6.243   1.181   0.118 -0.1640 -0.5130  0.3360
   27MOL   C10913161   6.095   1.133   0.147 -0.3009 -0.3462  0.0894
   27MOL   C11013162   6.063   1.003   0.087  0.5542  1.0059 -0.1961
   27MOL   H11113163   6.728   1.585   0.538  0.2980  0.3328 -0.3619
   27MOL   H11213164   6.749   1.556   0.372 -0.3989  1.2251  0.0939
   27MOL   H11313165   6.514   1.606   0.424  0.4863 -0.1454 -0.2885
   27MOL   H11413166   6.571   1.485   0.182 -0.5819 -1.6075 -2.0343
   27MOL   H11513167   6.412   1.542   0.245  0.3535  0.7833 -0.2850
   27MOL   H11613168   6.495   1.264   0.170 -0.4947 -0.5217  1.1327
   27MOL   H11713169   6.421   1.358   0.051 -1.6611  0.0744 -0.0174
   27MOL   H11813170   6.283   1.259   0.311  0.6042 -1.6421 -0.0794
   27MOL   H11913171   6.208   1.379   0.201  2.2244  1.7322  0.3971
   27MOL   H12013172   6.232   1.217   0.016 -0.7275 -0.6082  0.3604
   27MOL   H12113173   6.315   1.100   0.118  0.3597 -0.0484  1.5453
   27MOL   H12213174   6.103   1.113   0.254 -1.5219 -1.2562  0.0227
   27MOL   H12313175   6.023   1.211   0.124  0.8950  0.2971 -1.5217
   27MOL   H12413176   5.997   0.936   0.142 -0.5339  2.2015 -0.0358
   27MOL   H12513177   6.031   1.021   7.762  0.1220 -1.0885 -0.4492
   27MOL   H12613178   6.153   0.947   0.061  0.0598 -0.6808  1.5874
   27MOL   C12713179   6.496   1.495   0.601  0.7768 -0.0584  0.2645
   27MOL   C12813180   6.337   1.496   0.614  0.2482 -0.2565 -0.5530
   27MOL   O12913181   6.290   1.626   0.564 -0.4246 -0.4610  0.0459
   27MOL   C13013182   6.197   1.613   0.457  0.4557 -0.0182  0.2633
   27MOL   C13113183   6.164   1.758   0.403  0.5551 -0.5369  0.2939
   27MOL   C13213184   6.127   1.863   0.517  0.9742  0.1350 -0.0988
   27MOL   C13313185   6.158   2.002   0.461 -0.1989 -0.0446 -0.5260
   27MOL   C13413186   6.132   2.116   0.567  0.2309  0.0091  0.6362
   27MOL   C13513187   6.215   2.114   0.693  0.5504 -0.2973 -0.1975
   27MOL   H13613188   6.535   1.401   0.640  1.2093  0.2260  0.5201
   27MOL   H13713189   6.533   1.576   0.664 -0.5603  1.0923 -0.4148
   27MOL   H13813190   6.309   1.403   0.563  1.0128 -0.5817 -0.3927
   27MOL   H13913191   6.107   1.567   0.496 -0.1936 -1.0605 -2.3389
   27MOL   H14013192   6.243   1.550   0.380  0.0560 -0.4546  0.3842
   27MOL   H14113193   6.087   1.754   0.326  0.1037  0.1612  0.6987
   27MOL   H14213194   6.249   1.794   0.346  1.1719 -0.6816  1.1157
   27MOL   H14313195   6.024   1.848   0.549  1.2467 -0.1551  0.6514
   27MOL   H14413196   6.197   1.852   0.600  0.2428 -1.2468  0.3621
   27MOL   H14513197   6.256   2.021   0.417 -0.1318 -2.4119 -1.4715
   27MOL   H14613198   6.082   2.024   0.387  0.0480 -2.1827 -1.4426
   27MOL   H14713199   6.137   2.218   0.529 -0.2766 -0.1591  0.1045
   27MOL   H14813200   6.028   2.101   0.598 -0.9389  2.6722 -1.7447
   27MOL   H14913201   6.324   2.112   0.684  0.6913  0.7140  1.0745
   27MOL   H15013202   6.175   2.196   0.752  1.8179  1.1387 -1.2929
   27MOL   H15113203   6.193   2.024   0.751 -0.3405 -0.2865 -0.5240
   27MOL   C15213204   6.291   1.488   0.764 -0.0847 -0.3079 -0.0095
   27MOL   C15313205   6.281   1.346   0.831 -0.2643 -0.4144 -0.3474
   27MOL   O15413206   6.241   1.364   0.967  0.1309  0.1972 -0.1077
   27MOL   C15513207   6.288   1.267   1.058  0.5229 -0.5136  0.2105
   27MOL   C15613208   6.283   1.332   1.201  0.6898  0.4749  0.1469
   27MOL   C15713209   6.325   1.224   1.298 -0.1673  0.2476 -0.4971
   27MOL   C15813210   6.284   1.264   1.441 -0.4012 -0.6143  0.3153
   27MOL   C15913211   6.327   1.165   1.548  0.4176 -0.1368 -0.1566
   27MOL   C16013212   6.481   1.147   1.561 -0.4116 -0.4684  0.5416
   27MOL   H16113213   6.352   1.558   0.822 -0.1721  0.0041 -0.2860
   27MOL   H16213214   6.193   1.535   0.771 -0.5380 -1.0317 -1.3673
   27MOL   H16313215   6.379   1.298   0.829  0.4614  1.0829 -2.2717
   27MOL   H16413216   6.390   1.235   1.035  0.3579 -0.8121 -0.0969
   27MOL   H16513217   6.225   1.179   1.051  2.2802 -1.7633 -0.2736
   27MOL   H16613218   6.183   1.360   1.234 -0.3295  0.4318 -2.6893
   27MOL   H16713219   6.345   1.421   1.206  0.3897  0.8179 -1.7968
   27MOL   H16813220   6.269   1.134   1.272 -1.5915  0.6385  1.0988
   27MOL   H16913221   6.431   1.201   1.296 -0.5061 -1.4249 -0.1215
   27MOL   H17013222   6.323   1.362   1.469 -0.0022 -1.0457  1.2980
   27MOL   H17113223   6.177   1.280   1.431 -0.1734 -0.3144 -1.9945
   27MOL   H17213224   6.280   1.203   1.638  1.7380 -1.9307  1.3106
   27MOL   H17313225   6.277   1.072   1.522  1.1627 -0.6329  0.1562
   27MOL   H17413226   6.504   1.112   1.661 -0.5716  3.5111  2.0613
   27MOL   H17513227   6.533   1.081   1.491  0.4798 -0.1781  0.9257
   27MOL   H17613228   6.526   1.246   1.562 -0.2335 -0.5337 -0.3043
   27MOL   C17713229   6.188   1.249   0.754 -0.3879 -0.4817  0.4682
   27MOL   C17813230   6.044   1.288   0.711  0.6801 -0.4610 -0.4378
   27MOL   O17913231   5.989   1.176   0.652  0.5426  0.1959 -0.3462
   27MOL   C18013232   5.933   1.201   0.519 -0.2823  0.0117  0.1918
   27MOL   C18113233   5.894   1.065   0.455 -0.6118 -0.0394  0.1594
   27MOL   C18213234   5.761   1.007   0.502 -0.4688 -0.0678 -0.5770
   27MOL   C18313235   5.717   0.869   0.445 -0.1531 -0.5134 -0.3591
   27MOL   C18413236   5.582   0.812   0.498 -0.5087  0.0324 -0.3361
   27MOL   C18513237   5.599   0.766   0.643 -0.1467  0.9531  0.0551
   27MOL   H18613238   6.243   1.220   0.665 -0.5211 -0.2260  0.3030
   27MOL   H18713239   6.188   1.157   0.814 -0.2838 -1.6948 -1.3423
   27MOL   H18813240   6.048   1.376   0.646  0.1865 -1.0227 -1.2358
   27MOL   H18913241   6.010   1.254   0.462 -1.4114  1.1820 -0.2600
   27MOL   H19013242   5.851   1.273   0.516  0.6286  1.0830  0.8326
   27MOL   H19113243   5.978   0.996   0.470  0.2383  0.7180 -0.9841
   27MOL   H19213244   5.895   1.072   0.346 -1.4522 -0.3031  0.1350
   27MOL   H19313245   5.760   1.003   0.611  3.6208 -0.9955 -0.4634
   27MOL   H19413246   5.690   1.085   0.479 -0.6296  0.0022  0.1361
   27MOL   H19513247   5.708   0.876   0.336 -1.0512  2.8495 -0.1224
   27MOL   H19613248   5.792   0.792   0.466 -0.1137 -0.1273  0.9471
   27MOL   H19713249   5.508   0.892   0.495 -0.6783 -0.1484 -1.0861
   27MOL   H19813250   5.548   0.724   0.443  0.8539 -2.0583  2.0750
   27MOL   H19913251   5.685   0.698   0.655  0.2464  1.6259  1.1542
   27MOL   H20013252   5.613   0.845   0.717  1.0916 -0.4743  1.4033
   27MOL   H20113253   5.509   0.708   0.664  0.7947 -0.5869 -0.0162
   27MOL   C20213254   5.946   1.328   0.826  0.4621 -0.5132 -0.6722
   27MOL   C20313255   5.802   1.385   0.786 -0.1186  0.8207 -0.6463
   27MOL   O20413256   5.825   1.482   0.679  0.2703 -0.4829 -0.2168
   27MOL   C20513257   5.709   1.536   0.613 -0.6522 -0.3482 -0.3489
   27MOL   C20613258   5.757   1.649   0.515  0.0499  0.3439  0.4537
   27MOL   C20713259   5.651   1.717   0.433 -0.5982 -0.2245 -0.3036
   27MOL   C20813260   5.707   1.827   0.343  0.4280  0.7508  0.5978
   27MOL   C20913261   5.758   1.948   0.417 -0.4418  0.0101 -0.7271
   27MOL   C21013262   5.805   2.049   0.314  0.4886 -0.0553  0.4885
   27MOL   H21113263   5.934   1.240   0.889  0.8601 -1.4335 -1.8530
   27MOL   H21213264   5.997   1.403   0.886 -0.5540 -0.4388  0.1062
   27MOL   H21313265   5.743   1.303   0.745  0.8869 -1.0113  1.5030
   27MOL   H21413266   5.643   1.589   0.681  1.5057  2.1752 -0.1236
   27MOL   H21513267   5.656   1.455   0.564 -0.8561 -0.5790  0.2494
   27MOL   H21613268   5.830   1.615   0.442  2.2067  1.3003  2.1363
   27MOL   H21713269   5.807   1.722   0.578 -1.5693  0.4770  1.6195
   27MOL   H21813270   5.592   1.643   0.379 -2.4100 -0.7360  2.2653
   27MOL   H21913271   5.575   1.763   0.496 -0.8625  1.0827 -1.5456
   27MOL   H22013272   5.791   1.780   0.292  0.8422 -0.6580  2.5166
   27MOL   H22113273   5.635   1.853   0.265 -0.3430  0.0322  1.0602
   27MOL   H22213274   5.684   1.986   0.488 -0.7469 -1.3895 -0.2677
   27MOL   H22313275   5.848   1.913   0.469 -0.2647  1.2552 -0.1860
   27MOL   H22413276   5.731   2.090   0.246  1.5279 -1.0245 -1.2892
   27MOL   H22513277   5.844   2.130   0.376  0.4515 -0.6482  1.2982
   27MOL   H22613278   5.891   2.005   0.262 -0.5795 -1.8812  0.2242
   27MOL   C22713279   5.723   1.453   0.907 -0.0953  0.2323 -0.6174
   27MOL   C22813280   5.708   1.367   1.034  0.2447 -0.4264 -0.2171
   27MOL   O22913281   5.716   1.457   1.150 -0.6270 -0.0702  0.0701
   27MOL   C23013282   5.841   1.445   1.219  0.5810 -0.3014 -0.1890
   27MOL   C23113283   5.846   1.539   1.344  0.9106  0.9113 -0.0352
   27MOL   C23213284   5.934   1.481   1.460 -0.2184 -0.2762 -0.0321
   27MOL   C23313285   5.965   1.583   1.565 -0.1696  0.4049  0.2284
   27MOL   C23413286   6.074   1.548   1.655  0.4189 -0.1360 -0.2130
   27MOL   C23513287   6.049   1.414   1.730 -0.3694 -0.7347  0.3170
   27MOL   H23613288   5.789   1.536   0.934  0.6542 -1.0223  1.5756
   27MOL   H23713289   5.628   1.500   0.879  0.4166  1.2989 -0.5944
   27MOL   H23813290   5.783   1.289   1.046  0.3471 -0.3426 -0.3159
   27MOL   H23913291   5.927   1.458   1.152  1.1780  0.3245  0.6815
   27MOL   H24013292   5.846   1.342   1.255 -3.6257  0.0823  1.7071
   27MOL   H24113293   5.743   1.552   1.378  1.1834 -0.3132  1.3023
   27MOL   H24213294   5.880   1.640   1.323  3.5778  0.2186  0.7624
   27MOL   H24313295   5.878   1.396   1.499  0.5124 -0.2196  1.1725
   27MOL   H24413296   6.027   1.444   1.417  0.5680  1.2896  0.2992
   27MOL   H24513297   5.991   1.681   1.525  0.3205  0.7408  1.3382
   27MOL   H24613298   5.869   1.590   1.616  0.6610 -1.6054  2.1551
   27MOL   H24713299   6.165   1.530   1.598 -0.2505 -0.8216 -1.0793
   27MOL   H24813300   6.090   1.627   1.728 -2.3006  1.4605 -1.2848
   27MOL   H24913301   6.129   1.391   1.799  1.7021  1.2998 -1.3535
   27MOL   H25013302   5.955   1.420   1.786  0.0818  0.9607  0.9215
   27MOL   H25113303   6.020   1.334   1.661 -1.4083 -1.3633  1.4737
   27MOL   C25213304   5.567   1.303   1.043  0.3464  0.2250  0.3758
   27MOL   C25313305   5.547   1.196   0.929  0.4086  0.5885 -0.5836
   27MOL   O25413306   5.413   1.149   0.930  0.0592 -0.1673  0.3038
   27MOL   C25513307   5.370   1.065   0.826 -0.0719 -0.0610  0.1538
   27MOL   C25613308   5.216   1.080   0.849  0.1832  0.1436  0.6828
   27MOL   C25713309   5.171   1.218   0.837 -0.3683 -0.4259  0.0757
   27MOL   C25813310   5.020   1.254   0.837 -0.6854  0.0077 -0.2633
   27MOL   C25913311   4.948   1.203   0.714  0.3619  0.2697 -0.2308
   27MOL   C26013312   4.811   1.274   0.706  0.0939 -0.4779  0.1589
   27MOL   H26113313   5.550   1.243   1.132 -1.3156 -2.0361 -1.4218
   27MOL   H26213314   5.491   1.382   1.036  0.0458 -0.1871 -1.2333
   27MOL   H26313315   5.565   1.245   0.834  0.2718  0.3203 -0.7479
   27MOL   H26413316   5.410   0.963   0.819  2.9753  1.0942  0.1818
   27MOL   H26513317   5.386   1.108   0.727  1.0581  1.0706  0.8142
   27MOL   H26613318   5.195   1.047   0.951 -0.2005  0.0936  0.5875
   27MOL   H26713319   5.158   1.021   0.779 -1.8152  0.0275  2.3928
   27MOL   H26813320   5.208   1.274   0.923  1.1367  2.1701 -2.1881
   27MOL   H26913321   5.230   1.272   0.763  0.5266 -2.6176 -0.8498
   27MOL   H27013322   4.982   1.217   0.932 -1.8478  0.7058 -0.4404
   27MOL   H27113323   5.025   1.363   0.833  0.2932 -0.0562 -0.8813
   27MOL   H27213324   5.011   1.215   0.626  0.4839 -0.5684 -0.2612
   27MOL   H27313325   4.927   1.096   0.724 -1.8725  0.7993  1.4044
   27MOL   H27413326   4.744   1.226   0.777  0.7819 -2.1372 -0.3055
   27MOL   H27513327   4.799   1.382   0.718  1.6941 -0.1239 -1.3333
   27MOL   H27613328   4.780   1.247   0.606 -1.7334  1.6354  0.1243
   27MOL   C27713329   5.646   1.076   0.937 -0.0360  0.8965 -0.8557
   27MOL   C27813330   5.628   0.988   1.066  0.2049  0.0187  0.1617
   27MOL   O27913331   5.666   0.859   1.027  0.0440 -0.0132  0.6033
   27MOL   C28013332   5.564   0.769   1.003  0.1612 -0.3052  0.6345
   27MOL   C28113333   5.611   0.623   0.979  0.2731 -0.1635  0.3284
   27MOL   C28213334   5.488   0.531   0.965  0.0521 -0.2980 -0.1938
   27MOL   C28313335   5.527   0.388   0.935 -0.0858 -0.2782 -0.1344
   27MOL   C28413336   5.401   0.299   0.889  0.0924  0.9742 -0.2881
   27MOL   C28513337   5.451   0.151   0.855  0.5749 -0.1571 -0.7015
   27MOL   H28613338   5.630   1.015   0.848  1.9602  0.5342 -1.0006
   27MOL   H28713339   5.750   1.106   0.927 -0.4305  2.0640 -1.5638
   27MOL   H28813340   5.524   0.998   1.099  0.0200  2.1474 -0.9835
   27MOL   H28913341   5.493   0.789   0.923  2.5279 -1.0897 -1.7372
   27MOL   H29013342   5.506   0.764   1.095 -0.6856  1.2144  0.1960
   27MOL   H29113343   5.671   0.594   1.065 -1.5369  0.4438  1.8449
   27MOL   H29213344   5.656   0.606   0.881 -1.6009  0.3705 -0.6527
   27MOL   H29313345   5.439   0.542   1.061  0.7975  1.0453  0.0442
   27MOL   H29413346   5.420   0.576   0.893 -1.0832  2.2161  2.3525
   27MOL   H29513347   5.592   0.399   0.849  0.0236 -2.0012 -0.2877
   27MOL   H29613348   5.596   0.346   1.009  0.3549  1.7317  0.6366
   27MOL   H29713349   5.333   0.291   0.973 -0.7419  0.1692 -1.0322
   27MOL   H29813350   5.343   0.343   0.808 -0.1549  1.7224  0.2912
   27MOL   H29913351   5.554   0.132   0.885  0.3323  0.3927  0.5430
   27MOL   H30013352   5.389   0.072   0.899  2.0179 -1.0317 -0.2254
   27MOL   H30113353   5.461   0.135   0.748 -1.3392 -0.5609 -0.8423
   27MOL   C30213354   5.733   1.019   1.176 -0.2038  0.4098  0.1311
   27MOL   C30313355   5.730   0.926   1.295 -0.8775  0.7350 -0.2308
   27MOL   O30413356   5.612   0.953   1.369  0.0015 -0.1646 -0.2192
   27MOL   C30513357   5.542   0.838   1.416 -0.7278 -0.1045 -0.1063
   27MOL   C30613358   5.402   0.887   1.456  0.2010  0.0385 -0.1025
   27MOL   C30713359   5.340   0.950   1.336 -0.6553 -0.5344 -0.0335
   27MOL   C30813360   5.205   1.012   1.373  0.4904  0.9545  0.1809
   27MOL   C30913361   5.146   1.101   1.260 -0.4763  1.0470  0.5706
   27MOL   C31013362   5.029   1.188   1.297 -0.1224  0.5435  0.4706
   27MOL   H31113363   5.828   1.003   1.125  0.0792 -1.7050  1.2838
   27MOL   H31213364   5.733   1.123   1.209 -0.0092  0.2643  0.5886
   27MOL   H31313365   5.735   0.827   1.248 -2.5738  0.9412 -0.8742
   27MOL   H31413366   5.591   0.788   1.500 -1.6564  0.4481  0.7796
   27MOL   H31513367   5.539   0.758   1.342  2.6327 -0.8741  0.5283
   27MOL   H31613368   5.413   0.956   1.539 -0.0425 -1.4089  1.1573
   27MOL   H31713369   5.347   0.802   1.496 -0.1316  0.9278  1.3539
   27MOL   H31813370   5.407   1.028   1.301 -2.0428  1.2272  1.1354
   27MOL   H31913371   5.313   0.883   1.255 -2.5561  1.0797 -0.7849
   27MOL   H32013372   5.135   0.934   1.400  1.2765 -0.4325 -1.6975
   27MOL   H32113373   5.217   1.075   1.461  0.2696  1.0759  0.1246
   27MOL   H32213374   5.222   1.167   1.217 -0.2772  0.7936  0.5339
   27MOL   H32313375   5.109   1.032   1.185  0.7160 -0.0649  0.9823
   27MOL   H32413376   5.008   1.255   1.213  1.0637  0.3126 -0.0257
   27MOL   H32513377   4.938   1.131   1.312 -1.5697  1.2302 -4.6160
   27MOL   H32613378   5.047   1.244   1.389  2.8343 -2.6800  1.9427
   27MOL   C32713379   5.845   0.960   1.390 -0.0684  0.3226  0.5306
   27MOL   C32813380   5.892   0.855   1.488  0.0881 -0.0222 -0.8723
   27MOL   O32913381   5.952   0.747   1.424  0.2725  0.6326 -0.3136
   27MOL   C33013382   5.901   0.618   1.471 -0.2146 -0.5921  0.3124
   27MOL   C33113383   5.967   0.500   1.401 -0.1702 -0.4460 -0.5876
   27MOL   C33213384   5.915   0.472   1.259 -0.0754  0.6853  0.4597
   27MOL   C33313385   5.994   0.358   1.185 -0.9147 -0.5153  0.3323
   27MOL   C33413386   5.936   0.324   1.057  0.2947 -0.4144 -0.0067
   27MOL   C33513387   6.008   0.203   1.006  0.5704 -0.1327  0.3265
   27MOL   H33613388   5.823   1.059   1.429 -1.8781 -0.1600  0.7750
   27MOL   H33713389   5.928   0.978   1.321 -0.7355 -0.1352 -0.4059
   27MOL   H33813390   5.804   0.820   1.541  0.6586  0.9460  0.7576
   27MOL   H33913391   5.794   0.624   1.450 -0.8080 -0.9345  3.1351
   27MOL   H34013392   5.922   0.615   1.578 -1.6449 -0.4318  0.6058
   27MOL   H34113393   5.952   0.413   1.465 -0.5482 -0.0127 -0.0872
   27MOL   H34213394   6.073   0.522   1.398 -0.5680  1.6009 -0.3530
   27MOL   H34313395   5.811   0.440   1.257  0.4541 -1.0526 -0.4861
   27MOL   H34413396   5.926   0.563   1.201  0.5010 -0.2037 -0.8605
   27MOL   H34513397   6.097   0.394   1.177 -0.3855 -2.5595 -2.8436
   27MOL   H34613398   6.005   0.270   1.249  4.6703 -1.2616 -1.4036
   27MOL   H34713399   5.831   0.295   1.052  0.3081 -0.7242  1.4404
   27MOL   H34813400   5.942   0.401   0.979 -2.4662 -1.0551 -0.9244
   27MOL   H34913401   5.992   0.124   1.080  2.2806 -0.8594 -0.0634
   27MOL   H35013402   5.960   0.180   0.911  0.5164 -0.2614  0.3855
   27MOL   H35113403   6.110   0.236   0.988  1.6664 -2.1247  2.5592
   27MOL   C35213404   5.994   0.922   1.591  0.6687 -0.5571 -0.1760
   27MOL   C35313405   5.918   0.985   1.707 -0.2595 -0.1088 -0.7252
   27MOL   O35413406   5.844   1.095   1.667  0.1450 -0.5154 -0.3460
   27MOL   C35513407   5.726   1.131   1.742 -1.1756  0.4673 -0.3224
   27MOL   C35613408   5.681   1.265   1.690  0.3563  0.3996 -0.8188
   27MOL   C35713409   5.621   1.261   1.545  0.0256 -0.0372  0.3934
   27MOL   C35813410   5.539   1.385   1.507  0.5332 -0.7988 -0.2262
   27MOL   C35913411   5.390   1.357   1.548 -0.6631 -0.3859 -0.2859
   27MOL   C36013412   5.313   1.492   1.553  0.6084 -0.2956 -0.2300
   27MOL   H36113413   6.055   0.835   1.617  0.6912 -0.2481  0.8131
   27MOL   H36213414   6.060   0.986   1.533  1.1095  0.0059  0.9325
   27MOL   H36313415   5.848   0.915   1.754  0.6790 -1.7423 -1.7031
   27MOL   H36413416   5.743   1.133   1.850 -2.2064 -0.5806 -0.1222
   27MOL   H36513417   5.644   1.061   1.726 -0.5221 -0.0297 -1.5554
   27MOL   H36613418   5.766   1.332   1.683  2.2352 -1.7397  0.4829
   27MOL   H36713419   5.604   1.301   1.758  0.4899  0.0605 -0.4811
   27MOL   H36813420   5.694   1.234   1.468 -0.2841 -2.5685  0.9423
   27MOL   H36913421   5.549   1.178   1.542  1.5207 -1.4594  2.5431
   27MOL   H37013422   5.567   1.479   1.554 -0.7871 -1.1610  1.3448
   27MOL   H37113423   5.547   1.392   1.398  0.8665 -0.9843 -0.2146
   27MOL   H37213424   5.342   1.292   1.474 -3.3922  1.2706 -0.0234
   27MOL   H37313425   5.373   1.315   1.647  0.3797 -0.9769 -0.3414
   27MOL   H37413426   5.216   1.468   1.596  0.1938  0.9391 -0.4333
   27MOL   H37513427   5.358   1.562   1.623 -1.8813 -1.4885  2.6615
   27MOL   H37613428   5.290   1.546   1.460 -1.4593 -0.5245  0.1158
   27MOL   C37713429   6.012   1.030   1.822  0.0017  0.0464 -0.3257
   27MOL   C37813430   6.075   0.919   1.902  0.5589 -0.5120 -0.2872
   27MOL   O37913431   6.090   0.959   2.036  1.0543 -0.1802  0.2393
   27MOL   C38013432   5.974   0.944   2.118 -0.2345  0.0030  0.1999
   27MOL   C38113433   6.026   0.947   2.256 -0.0090  0.4167 -0.4930
   27MOL   C38213434   5.909   0.962   2.358 -0.5844 -0.2793 -0.4057
   27MOL   C38313435   5.824   0.832   2.359 -0.2281 -0.2346 -0.5520
   27MOL   C38413436   5.729   0.841   2.481  0.8733  0.5413 -0.7982
   27MOL   C38513437   5.661   0.705   2.510  0.4618 -0.2444 -0.4911
   27MOL   H38613438   6.085   1.096   1.775  0.4374 -1.6079 -2.0369
   27MOL   H38713439   5.949   1.090   1.887 -0.7766  1.0101 -1.9380
   27MOL   H38813440   6.015   0.829   1.900 -0.6303  0.2844 -0.8713
   27MOL   H38913441   5.921   0.851   2.100  0.8820 -0.7951  1.0560
   27MOL   H39013442   5.901   1.026   2.114 -0.4897 -0.3070 -1.9078
   27MOL   H39113443   6.091   1.034   2.254 -1.4105  1.5984  2.2954
   27MOL   H39213444   6.089   0.862   2.284 -0.5890 -0.2146 -1.0766
   27MOL   H39313445   5.952   0.973   2.457 -0.6556 -0.8266 -0.3138
   27MOL   H39413446   5.859   1.059   2.347  0.2291  0.2361  0.3518
   27MOL   H39513447   5.757   0.830   2.273 -0.1627  2.2639 -0.6948
   27MOL   H39613448   5.874   0.736   2.374 -0.1610 -0.1491 -0.2280
   27MOL   H39713449   5.788   0.863   2.570 -0.3113  1.3810 -0.2057
   27MOL   H39813450   5.648   0.914   2.473  0.2827  0.0263  0.4125
   27MOL   H39913451   5.736   0.629   2.530  0.6959 -0.2250 -1.2539
   27MOL   H40013452   5.608   0.711   2.604  0.7260 -1.8222 -0.2374
   27MOL   H40113453   5.586   0.675   2.437  0.0997 -1.8656  0.5468
   27MOL   C40213454   6.219   0.891   1.863 -0.6904  0.0869  0.7667
   27MOL   C40313455   6.293   0.773   1.931  0.1215 -0.0854 -0.4398
   27MOL   O40413456   6.429   0.778   1.886 -0.2328 -0.0949 -0.3825
   27MOL   C40513457   6.505   0.846   1.979  0.2371  0.5886 -0.6148
   27MOL   C40613458   6.640   0.870   1.908 -0.1248  0.6749  0.0011
   27MOL   C40713459   6.713   0.987   1.969  0.2046 -0.7439  0.2229
   27MOL   C40813460   6.842   1.013   1.890 -0.3928  0.8136 -0.2563
   27MOL   C40913461   6.924   1.130   1.946 -0.4679 -0.3061  0.1065
   27MOL   C41013462   7.049   1.161   1.864 -0.0609  0.0626 -0.1301
   27MOL   H41113463   6.275   0.984   1.873  0.4822 -0.5430  0.1580
   27MOL   H41213464   6.223   0.888   1.754 -1.8304  0.2133  0.7185
   27MOL   H41313465   6.275   0.774   2.038  0.4561 -1.5023 -0.3567
   27MOL   H41413466   6.536   0.781   2.061  0.5039  0.0578 -1.1263
   27MOL   H41513467   6.448   0.934   2.007  0.4851  0.4668  0.2773
   27MOL   H41613468   6.611   0.901   1.807  2.4888  0.6435 -0.7904
   27MOL   H41713469   6.690   0.774   1.896 -0.4431  0.7277 -1.9852
   27MOL   H41813470   6.656   1.080   1.963 -0.4006 -1.1101  0.2448
   27MOL   H41913471   6.722   0.962   2.075  0.7781 -1.5273 -0.0070
   27MOL   H42013472   6.898   0.922   1.869 -1.0082  0.2278  0.5754
   27MOL   H42113473   6.805   1.049   1.794  0.0815  0.6298 -0.5110
   27MOL   H42213474   6.869   1.223   1.952  0.1798  0.2373 -2.0545
   27MOL   H42313475   6.950   1.118   2.051  0.3271  0.8583  0.0510
   27MOL   H42413476   7.118   1.078   1.854  0.5761  0.5206  0.3792
   27MOL   H42513477   7.025   1.194   1.762  1.0901  1.2262 -0.0361
   27MOL   H42613478   7.107   1.243   1.906 -1.7705  0.2229  2.0456
   27MOL   C42713479   6.245   0.636   1.878  0.2438  0.9796  0.1763
   27MOL   C42813480   6.286   0.519   1.973  0.2541  0.9334  0.3344
   27MOL   O42913481   6.201   0.534   2.085  0.1376  0.0548  0.2297
   27MOL   C43013482   6.244   0.467   2.205  0.1701 -0.1295  0.5488
   27MOL   C43113483   6.127   0.477   2.303  0.0710 -0.7360 -0.1193
   27MOL   C43213484   6.008   0.397   2.256 -0.1097  0.2113  0.1219
   27MOL   C43313485   5.888   0.401   2.348 -0.2031 -0.8349  0.0602
   27MOL   C43413486   5.772   0.305   2.321  0.1628 -0.2086 -0.3046
   27MOL   C43513487   5.650   0.328   2.416  0.1446 -0.1432  0.1114
   27MOL   H43613488   6.137   0.635   1.864  0.1979  0.8881  0.5269
   27MOL   H43713489   6.277   0.623   1.775  1.3018  0.8156  0.5239
   27MOL   H43813490   6.389   0.526   2.008  0.5805 -0.9007 -0.2046
   27MOL   H43913491   6.331   0.524   2.238  0.1647 -0.5402  1.2759
   27MOL   H44013492   6.272   0.365   2.180 -0.1958  0.0483 -0.6208
   27MOL   H44113493   6.095   0.579   2.325  1.2406 -0.4804  0.4086
   27MOL   H44213494   6.170   0.451   2.400  0.3176 -1.3582 -0.3939
   27MOL   H44313495   5.969   0.444   2.166  1.1194  2.0236  0.5049
   27MOL   H44413496   6.043   0.295   2.238  0.8403  0.6139 -0.3651
   27MOL   H44513497   5.926   0.368   2.444 -1.2423 -0.5788  0.5679
   27MOL   H44613498   5.854   0.505   2.355  2.3181 -0.0142  0.8676
   27MOL   H44713499   5.730   0.316   2.221 -0.7177 -0.1531  0.0661
   27MOL   H44813500   5.802   0.200   2.327  1.5971  0.2421  0.8110
   27MOL   H44913501   5.681   0.308   2.518 -1.3097  3.3854  1.2896
   27MOL   H45013502   5.610   0.429   2.411  2.2840  0.7155 -0.6081
   27MOL   H45113503   5.569   0.257   2.398  1.2322 -2.3577  3.4329
   27MOL   C45213504   6.254   0.387   1.892 -0.0170  0.6164 -0.5039
   27MOL   C45313505   6.362   0.324   1.804 -1.0554 -0.4142 -0.1736
   27MOL   O45413506   6.295   0.235   1.705 -0.1260  0.3542  0.3863
   27MOL   C45513507   6.237   0.289   1.590 -0.1207 -0.0670 -0.1183
   27MOL   C45613508   6.299   0.229   1.464 -0.5060  0.0570 -0.6237
   27MOL   C45713509   6.243   0.095   1.430 -0.0428 -0.5639 -0.0208
   27MOL   C45813510   6.298   0.052   1.294  0.0130  0.5718 -0.3161
   27MOL   C45913511   6.225   7.708   1.231  0.6371 -0.4957  0.0037
   27MOL   C46013512   6.301   7.640   1.114 -0.4956 -0.6146  0.1953
   27MOL   H46113513   6.220   0.311   1.962 -0.8087  1.2185 -0.2326
   27MOL   H46213514   6.166   0.411   1.834 -1.0521 -1.1886  0.2810
   27MOL   H46313515   6.411   0.400   1.744 -0.6382  0.0171  0.6974
   27MOL   H46413516   6.245   0.398   1.596  1.6548 -0.2039  0.2885
   27MOL   H46513517   6.130   0.271   1.604  0.1791 -1.2803  0.6261
   27MOL   H46613518   6.407   0.222   1.466 -0.4629  0.9872  0.6884
   27MOL   H46713519   6.280   0.304   1.388 -0.1715  2.4961  1.6445
   27MOL   H46813520   6.264   0.017   1.504 -0.8578 -0.1680  0.6323
   27MOL   H46913521   6.135   0.094   1.427 -0.1554 -0.5860  2.4559
   27MOL   H47013522   6.290   0.133   1.221 -1.2375  0.1551 -0.6480
   27MOL   H47113523   6.403   0.022   1.297 -0.4090 -0.7652  2.3289
   27MOL   H47213524   6.203   7.637   1.310  1.2241  2.0402  2.5086
   27MOL   H47313525   6.131   7.731   1.179 -0.2076  0.8906  2.1022
   27MOL   H47413526   6.379   7.573   1.152  0.0215  0.7669  1.6296
   27MOL   H47513527   6.230   7.591   1.048 -2.5179 -0.8768  2.4978
   27MOL   H47613528   6.354   7.719   1.060 -1.4432 -0.4908 -0.5541
   27MOL   C47713529   6.478   0.247   1.868 -0.1652  0.4073 -0.1268
   27MOL   C47813530   6.580   0.332   1.942  0.5210 -0.7073 -0.0814
   27MOL   O47913531   6.712   0.281   1.935 -0.0136 -0.0811  0.3601
   27MOL   C48013532   6.732   0.143   1.953  0.1078  0.4745  0.1390
   27MOL   C48113533   6.853   0.138   2.038 -0.1345  0.7007  0.0281
   27MOL   C48213534   6.987   0.162   1.964  0.1789 -0.0792 -0.6341
   27MOL   C48313535   7.102   0.183   2.063  0.1201 -0.5665  0.7252
   27MOL   C48413536   7.236   0.218   2.003  0.2076 -0.3340  0.4594
   27MOL   C48513537   7.329   0.275   2.103 -0.2669 -0.2671  0.1480
   27MOL   H48613538   6.454   0.159   1.927 -0.3361  0.3331 -0.3071
   27MOL   H48713539   6.526   0.196   1.784 -0.6455 -0.4426  0.1135
   27MOL   H48813540   6.578   0.427   1.889 -1.8405  0.5416  2.1635
   27MOL   H48913541   6.754   0.095   1.858 -0.3806  2.5929 -1.0617
   27MOL   H49013542   6.663   0.085   2.015  1.8549 -1.2942  0.4976
   27MOL   H49113543   6.861   0.040   2.085 -0.4182  0.1440 -1.0791
   27MOL   H49213544   6.832   0.208   2.119 -1.4604 -0.2034  0.4799
   27MOL   H49313545   7.014   0.092   1.885  1.9357  0.7744 -0.8087
   27MOL   H49413546   6.979   0.260   1.916  1.4066 -0.3204 -1.3594
   27MOL   H49513547   7.083   0.269   2.127  1.7768  0.0206  0.4588
   27MOL   H49613548   7.100   0.088   2.116  1.1856  0.9256  3.6061
   27MOL   H49713549   7.278   0.129   1.957  2.4003  0.5734  0.6597
   27MOL   H49813550   7.230   0.288   1.920 -1.8562 -0.3384  0.5736
   27MOL   H49913551   7.285   0.351   2.167 -0.2992 -0.7595  0.7133
   27MOL   H50013552   7.375   0.205   2.172  0.2798 -0.8351 -0.7806
   27MOL   H50113553   7.417   0.321   2.060 -0.1280 -0.0740  0.6370
   27MOL   H50213554   6.546   0.331   2.045 -1.4445 -1.5533 -0.7080
   28MOL     C113555   2.842   0.249   4.571 -0.1507  0.4391 -0.9700
   28MOL     C213556   2.893   0.108   4.599  0.1701 -0.0591 -0.0029
   28MOL     O313557   2.947   0.105   4.730 -0.7738 -0.7998  0.1262
   28MOL     C413558   2.851   0.099   4.841  0.0637  0.4679  0.0630
   28MOL     C513559   2.948   0.065   4.959  0.6568 -0.7972  0.4037
   28MOL     C613560   3.041   0.184   4.997  0.7231 -0.0820  0.0734
   28MOL     C713561   3.156   0.153   5.080  0.0779 -0.4634 -0.6016
   28MOL     C813562   3.113   0.103   5.221 -0.2041 -0.0444  0.4499
   28MOL     C913563   3.234   0.041   5.297  0.1803  0.9546 -0.4382
   28MOL    H1013564   2.794   0.271   4.476 -2.6281  0.4126  0.2246
   28MOL    H1113565   2.761   0.253   4.645  1.0767  0.4960  0.3905
   28MOL    H1213566   2.805   0.044   4.592  1.0222 -1.4559  1.6585
   28MOL    H1313567   2.788   0.014   4.816  0.8953 -0.1665  0.1139
   28MOL    H1413568   2.789   0.188   4.854  0.1701  0.1472  3.0193
   28MOL    H1513569   3.012   7.760   4.926  3.3589  2.3625 -2.6268
   28MOL    H1613570   2.889   0.031   5.044 -2.3425 -1.0833 -1.7100
   28MOL    H1713571   3.082   0.229   4.907 -1.3273  0.4535 -0.6292
   28MOL    H1813572   2.977   0.254   5.051  0.6765  0.3360 -0.5198
   28MOL    H1913573   3.219   0.076   5.035 -1.0614 -0.3653 -2.4047
   28MOL    H2013574   3.223   0.238   5.081 -1.5368  0.8362  2.0813
   28MOL    H2113575   3.040   0.023   5.208 -0.4241  0.4013 -1.1414
   28MOL    H2213576   3.083   0.184   5.287  1.1995  1.4029 -0.6479
   28MOL    H2313577   3.273   7.727   5.254 -3.2189  0.5694 -2.9059
   28MOL    H2413578   3.317   0.111   5.305  1.3165 -0.2992 -1.2462
   28MOL    H2513579   3.215   0.020   5.403 -1.0207 -1.5668 -1.1232
   28MOL    H2613580   2.916   0.318   4.610 -0.7232  0.1184  0.7638
   28MOL    C2713581   3.002   0.062   4.505 -0.2677  0.1952 -0.1200
   28MOL    C2813582   2.955   0.008   4.367 -0.4944 -0.0484 -0.3176
   28MOL    O2913583   2.871   0.096   4.300  0.6432  0.3146  0.0629
   28MOL    C3013584   2.738   0.048   4.277 -0.4100  0.3101 -0.6367
   28MOL    C3113585   2.659   0.134   4.171  0.9002  0.1159  0.1728
   28MOL    C3213586   2.651   0.276   4.225  0.4517  0.4849 -0.2274
   28MOL    C3313587   2.606   0.382   4.128 -0.1143  0.6490 -0.4143
   28MOL    C3413588   2.599   0.509   4.202  0.1578  0.5254  0.0232
   28MOL    C3513589   2.580   0.635   4.110 -0.3609  0.8944  0.1821
   28MOL    H3613590   3.076   0.140   4.490  0.1919  0.4767  3.3327
   28MOL    H3713591   3.058   7.755   4.544 -1.1312 -0.1264  0.4433
   28MOL    H3813592   2.914   7.685   4.376  0.5834 -0.5533 -0.9053
   28MOL    H3913593   2.691   0.049   4.375 -0.6042  1.3637 -0.7332
   28MOL    H4013594   2.753   7.723   4.241  1.5946  0.4355 -0.2390
   28MOL    H4113595   2.561   0.102   4.137  0.9776  1.2824 -1.1778
   28MOL    H4213596   2.725   0.127   4.085 -0.9910  1.2379 -1.3978
   28MOL    H4313597   2.577   0.279   4.305  3.5029  0.8331  2.6993
   28MOL    H4413598   2.744   0.315   4.266  1.8186 -1.4416 -1.4121
   28MOL    H4513599   2.671   0.376   4.041 -0.1840 -2.2504 -0.3238
   28MOL    H4613600   2.510   0.353   4.084 -1.5914  1.3694  2.2137
   28MOL    H4713601   2.512   0.504   4.268  0.4005 -1.9716  0.2026
   28MOL    H4813602   2.685   0.526   4.265 -0.3615  1.1977  0.5571
   28MOL    H4913603   2.480   0.636   4.067 -1.4256  0.3701  2.5586
   28MOL    H5013604   2.579   0.711   4.188  1.8080  1.2574 -0.1168
   28MOL    H5113605   2.661   0.654   4.039 -0.0684 -1.0868 -0.0459
   28MOL    C5213606   3.083   7.760   4.268 -0.3486 -0.1451  0.2989
   28MOL    C5313607   3.060   7.669   4.147 -0.0650 -0.0140  0.3217
   28MOL    O5413608   3.089   7.745   4.037  0.3527  0.3322 -0.0687
   28MOL    C5513609   2.997   0.066   3.993 -0.8587  0.0011  0.0585
   28MOL    C5613610   3.076   0.153   3.901 -0.3041 -0.1311 -0.0120
   28MOL    C5713611   2.978   0.244   3.824  0.0030 -0.0113  0.4255
   28MOL    C5813612   2.934   0.374   3.893  0.0498  0.1982  0.2926
   28MOL    C5913613   2.844   0.467   3.803 -0.4426  0.1897 -0.5218
   28MOL    C6013614   2.932   0.574   3.736 -0.4993 -0.0920  0.0707
   28MOL    H6113615   3.155   7.705   4.328 -0.0089  0.8245  0.7901
   28MOL    H6213616   3.126   0.079   4.241 -1.7315  0.2724 -0.4545
   28MOL    H6313617   2.957   7.633   4.139 -0.2565  0.4790  0.5210
   28MOL    H6413618   2.959   0.120   4.080  0.4378 -0.3445  0.8585
   28MOL    H6513619   2.909   0.021   3.947  0.3182  0.6291 -2.8554
   28MOL    H6613620   3.130   0.086   3.833 -2.5903  0.6757 -2.7370
   28MOL    H6713621   3.149   0.215   3.952 -0.1215  0.1373 -0.5948
   28MOL    H6813622   3.023   0.260   3.726 -1.9903  0.2781 -0.4605
   28MOL    H6913623   2.885   0.195   3.795  0.1301  0.1314 -0.2353
   28MOL    H7013624   2.872   0.341   3.977 -0.5144  1.1025  0.2314
   28MOL    H7113625   3.013   0.431   3.941 -1.8660  1.8517  1.5937
   28MOL    H7213626   2.782   0.413   3.731  0.9438 -0.9162 -0.8981
   28MOL    H7313627   2.770   0.508   3.871 -1.8551 -1.6555 -0.9163
   28MOL    H7413628   2.866   0.624   3.664 -0.7083  0.2210  0.4802
   28MOL    H7513629   2.962   0.645   3.812 -0.5513  0.1278 -0.1124
   28MOL    H7613630   3.018   0.525   3.690  0.3945 -1.3222  2.9658
   28MOL    C7713631   3.143   7.541   4.136  0.3580  0.4072 -1.2106
   28MOL    C7813632   3.099   7.426   4.225  0.2943  0.2585  0.3150
   28MOL    O7913633   3.170   7.320   4.167 -0.0825 -0.0274  0.3314
   28MOL    C8013634   3.249   7.243   4.257 -0.8704  0.0956  0.0423
   28MOL    C8113635   3.303   7.116   4.183  0.4823  0.0613  0.2855
   28MOL    C8213636   3.200   7.000   4.189 -0.5952  0.1405  0.1102
   28MOL    C8313637   3.219   6.892   4.089  0.1667  1.0457  0.2932
   28MOL    C8413638   3.340   6.805   4.121  0.4859 -0.1901  0.4300
   28MOL    C8513639   3.378   6.719   4.007 -0.1038  0.0702 -0.3255
   28MOL    H8613640   3.248   7.561   4.158  0.5873 -0.9415 -1.0273
   28MOL    H8713641   3.131   7.499   4.036  1.5067  0.9906 -1.6030
   28MOL    H8813642   3.137   7.452   4.324  0.8074  0.1205  0.1510
   28MOL    H8913643   3.186   7.203   4.337 -0.6690 -1.7885 -0.7134
   28MOL    H9013644   3.331   7.301   4.299  0.3357 -1.3175 -0.3291
   28MOL    H9113645   3.386   7.080   4.244  0.2697  1.2113  1.2740
   28MOL    H9213646   3.349   7.125   4.085 -0.3249 -2.7947 -0.3931
   28MOL    H9313647   3.215   6.945   4.281 -1.6624 -0.5986 -0.1479
   28MOL    H9413648   3.097   7.034   4.183 -0.2053  1.1681 -1.1255
   28MOL    H9513649   3.137   6.820   4.093  2.6074 -1.7740  1.1422
   28MOL    H9613650   3.233   6.934   3.989 -0.9662 -0.2218 -0.4150
   28MOL    H9713651   3.421   6.867   4.158 -0.0922  1.8846 -1.6772
   28MOL    H9813652   3.307   6.735   4.198 -0.4670 -0.5233 -0.2717
   28MOL    H9913653   3.434   6.778   3.934  1.4372  0.0070  0.7796
   28MOL   H10013654   3.439   6.633   4.032 -0.2891 -0.3610 -1.3165
   28MOL   H10113655   3.288   6.673   3.966  0.5587 -1.7486  0.2234
   28MOL   C10213656   2.949   7.397   4.235  0.4531  0.4170  0.2417
   28MOL   C10313657   2.904   7.308   4.357 -0.5707  0.3687  0.1169
   28MOL   O10413658   2.931   7.386   4.475 -0.2280  0.0850 -0.2098
   28MOL   C10513659   2.999   7.311   4.576  0.2467  0.5376 -0.2179
   28MOL   C10613660   3.067   7.406   4.673 -0.5534  0.5379  0.7615
   28MOL   C10713661   2.977   7.480   4.782 -0.2765  0.5616 -0.5137
   28MOL   C10813662   2.932   7.391   4.906  0.0227 -0.1647  0.3167
   28MOL   C10913663   2.853   7.473   5.013 -0.2315  0.2801 -0.7979
   28MOL   C11013664   2.716   7.526   4.971  0.0101 -0.2078  0.0880
   28MOL   H11113665   2.883   7.482   4.252  0.7605  0.7616 -0.2597
   28MOL   H11213666   2.917   7.355   4.140  0.8794  1.2875 -0.2899
   28MOL   H11313667   2.968   7.220   4.361 -2.1894 -0.8149  0.6138
   28MOL   H11413668   3.072   7.237   4.541  0.9737  0.7641  0.7903
   28MOL   H11513669   2.934   7.238   4.624  0.9485  0.1017  0.0768
   28MOL   H11613670   3.127   7.479   4.618 -0.0914 -1.6383 -1.7056
   28MOL   H11713671   3.126   7.340   4.735 -0.6439  2.1183  2.5948
   28MOL   H11813672   3.038   7.564   4.815  3.2730 -2.5221  1.1978
   28MOL   H11913673   2.887   7.524   4.740 -1.0344 -1.3441 -0.9240
   28MOL   H12013674   2.878   7.301   4.875 -1.3676 -0.1178  2.4574
   28MOL   H12113675   3.025   7.355   4.950 -0.2877 -1.2326  0.1008
   28MOL   H12213676   2.841   7.403   5.095  1.6502 -0.7412 -1.3709
   28MOL   H12313677   2.917   7.545   5.063 -1.4193  0.7191  0.0932
   28MOL   H12413678   2.718   7.585   4.879 -0.0417 -0.9115 -0.3667
   28MOL   H12513679   2.656   7.435   4.967 -0.4515  0.0720  0.6720
   28MOL   H12613680   2.669   7.593   5.043  2.6533 -0.1220  1.8046
   28MOL   C12713681   2.754   7.267   4.374  0.2733 -1.1173  0.3166
   28MOL   C12813682   2.693   7.193   4.255  0.4567 -0.8210  0.2354
   28MOL   O12913683   2.557   7.181   4.266 -0.2208  0.2345  0.0728
   28MOL   C13013684   2.500   7.173   4.138 -0.6033 -0.5013 -0.7517
   28MOL   C13113685   2.346   7.177   4.160  0.4142 -0.3091 -0.3758
   28MOL   C13213686   2.278   7.046   4.214 -0.5831 -0.4843 -0.6995
   28MOL   C13313687   2.123   7.042   4.209  0.0400  0.2887 -0.4308
   28MOL   C13413688   2.068   7.069   4.069 -1.0382 -0.2120  0.2487
   28MOL   C13513689   1.914   7.048   4.063 -0.3121 -0.5134 -0.1244
   28MOL   H13613690   2.729   7.222   4.470 -3.6556  0.5952  0.1998
   28MOL   H13713691   2.700   7.361   4.379  0.3121 -1.1647  1.9712
   28MOL   H13813692   2.719   7.263   4.175 -1.4272 -2.7048 -2.0819
   28MOL   H13913693   2.536   7.091   4.076 -0.4679 -0.8141 -0.2559
   28MOL   H14013694   2.524   7.267   4.089 -1.4667 -1.4068 -2.9820
   28MOL   H14113695   2.311   7.191   4.057 -1.0069  0.5362  0.2204
   28MOL   H14213696   2.319   7.267   4.215  0.8359 -0.1645 -0.4037
   28MOL   H14313697   2.296   6.952   4.163  0.2111 -2.2563  2.6902
   28MOL   H14413698   2.324   7.029   4.312  0.2903 -2.7752 -1.4718
   28MOL   H14513699   2.092   6.948   4.255  3.0970  0.8538  2.9449
   28MOL   H14613700   2.094   7.126   4.271  3.4339 -0.0765  1.7784
   28MOL   H14713701   2.094   7.161   4.017 -1.3133 -0.5621 -0.5192
   28MOL   H14813702   2.111   6.990   4.008 -1.1797 -1.5090  1.7968
   28MOL   H14913703   1.851   7.115   4.121  0.0275  0.3067 -0.6921
   28MOL   H15013704   1.887   7.047   3.958  0.1968  0.5423 -0.2729
   28MOL   H15113705   1.900   6.948   4.104  0.0784  0.9302  3.8235
   28MOL   C15213706   2.774   7.061   4.233  0.1856  0.1760 -0.6551
   28MOL   C15313707   2.708   6.931   4.297  0.0611  0.6971  0.3495
   28MOL   O15413708   2.784   6.815   4.249  0.0252  0.0440  0.1182
   28MOL   C15513709   2.730   6.750   4.139 -0.1441  0.0757  0.5050
   28MOL   C15613710   2.831   6.652   4.085 -0.5965  0.4342  0.0016
   28MOL   C15713711   2.889   6.563   4.191 -0.5541  0.4534 -0.5533
   28MOL   C15813712   2.986   6.449   4.131 -0.0616  0.1521 -0.5312
   28MOL   C15913713   3.085   6.397   4.239  0.0279 -0.4672  0.1421
   28MOL   C16013714   3.027   6.331   4.358  0.1789  0.3377  0.6771
   28MOL   H16113715   2.774   7.047   4.125 -0.1356 -1.3738 -0.4543
   28MOL   H16213716   2.875   7.059   4.273  0.0632 -0.9627 -0.4019
   28MOL   H16313717   2.601   6.936   4.278  0.2309  1.4923 -0.4287
   28MOL   H16413718   2.713   6.822   4.059  2.4515 -0.5475 -0.6689
   28MOL   H16513719   2.633   6.708   4.162 -1.1974  1.4122 -1.4175
   28MOL   H16613720   2.910   6.716   4.045  0.9383 -1.5078 -0.1221
   28MOL   H16713721   2.782   6.588   4.012 -2.4249  2.3722 -0.5175
   28MOL   H16813722   2.952   6.618   4.261  0.9543 -0.9585 -0.7553
   28MOL   H16913723   2.823   6.513   4.263  0.1985  0.5943  0.2461
   28MOL   H17013724   2.939   6.357   4.098  1.0029 -0.3938 -0.5478
   28MOL   H17113725   3.039   6.495   4.048 -0.1973  0.9964 -0.1574
   28MOL   H17213726   3.144   6.317   4.193 -0.3060 -0.8925  0.4547
   28MOL   H17313727   3.150   6.482   4.257  1.8396 -1.6849 -0.3995
   28MOL   H17413728   2.956   6.403   4.399  0.7559  1.0948  0.3547
   28MOL   H17513729   2.965   6.246   4.329 -1.5956  2.2513 -1.3207
   28MOL   H17613730   3.103   6.302   4.430  0.1775 -0.6495  0.2940
   28MOL   C17713731   2.731   6.926   4.456 -0.1123  0.2522  0.5640
   28MOL   C17813732   2.657   6.805   4.519  0.5493 -0.0071 -0.1141
   28MOL   O17913733   2.732   6.736   4.620  0.3926 -0.4050 -0.3533
   28MOL   C18013734   2.851   6.672   4.571  0.2147 -0.4006  0.1773
   28MOL   C18113735   2.921   6.585   4.680  0.3455 -0.1454  0.1687
   28MOL   C18213736   2.840   6.455   4.707  0.5707  0.2284 -0.8054
   28MOL   C18313737   2.921   6.367   4.805  0.3100 -0.1958  0.0990
   28MOL   C18413738   2.884   6.219   4.779 -0.3627 -0.2165  0.2578
   28MOL   C18513739   2.930   6.144   4.897 -0.3443 -0.0160  0.3654
   28MOL   H18613740   2.837   6.926   4.482 -0.0138  3.1043  0.2755
   28MOL   H18713741   2.703   7.015   4.512 -2.1419  1.2803 -1.9537
   28MOL   H18813742   2.633   6.741   4.434 -0.5108  1.7156 -1.1460
   28MOL   H18913743   2.930   6.745   4.551 -1.5476  1.1800 -1.1268
   28MOL   H19013744   2.822   6.616   4.482  0.4563  0.3064 -0.3543
   28MOL   H19113745   2.929   6.650   4.767  3.1098  0.2045 -0.2906
   28MOL   H19213746   3.020   6.562   4.640  0.7426  0.7653  0.6302
   28MOL   H19313747   2.746   6.469   4.759 -0.4139 -1.3339 -2.1237
   28MOL   H19413748   2.808   6.398   4.620  1.5414  1.9194 -2.3021
   28MOL   H19513749   3.028   6.370   4.786  0.0932  1.9016 -0.9434
   28MOL   H19613750   2.904   6.396   4.909 -1.0552  0.7517 -0.3822
   28MOL   H19713751   2.778   6.198   4.765 -0.9253  3.2401 -1.1549
   28MOL   H19813752   2.942   6.184   4.693 -1.1150  0.6476 -0.6137
   28MOL   H19913753   3.037   6.158   4.914 -0.2284 -0.0217 -0.3811
   28MOL   H20013754   2.879   6.179   4.987 -0.3229  1.4343 -0.1762
   28MOL   H20113755   2.920   6.036   4.893 -1.7676  0.0821  0.8865
   28MOL   C20213756   2.533   6.859   4.586  0.0457 -0.3469  0.2978
   28MOL   C20313757   2.448   6.745   4.627 -0.1710  0.3172 -0.0924
   28MOL   O20413758   2.382   6.701   4.506  0.0735 -0.2492 -0.4800
   28MOL   C20513759   2.375   6.557   4.497  0.0193  0.2258 -0.2288
   28MOL   C20613760   2.282   6.507   4.384  0.3039  0.0646 -0.2561
   28MOL   C20713761   2.126   6.559   4.396 -0.5381  0.0103  0.4797
   28MOL   C20813762   2.112   6.699   4.336  0.5609 -0.0740 -0.3449
   28MOL   C20913763   1.971   6.749   4.360 -0.0965  0.4047  0.2074
   28MOL   C21013764   1.883   6.705   4.244 -0.3723 -0.0477 -0.1102
   28MOL   H21113765   2.570   6.925   4.664 -0.6472 -0.5802  0.8320
   28MOL   H21213766   2.481   6.932   4.524 -0.5793 -0.0299  1.1917
   28MOL   H21313767   2.505   6.658   4.660 -1.3871 -0.1287  0.8796
   28MOL   H21413768   2.329   6.517   4.587  1.1944 -0.0425  0.2587
   28MOL   H21513769   2.477   6.525   4.475  0.0053 -0.7614  1.0974
   28MOL   H21613770   2.288   6.399   4.391 -0.4330  0.0005 -0.5403
   28MOL   H21713771   2.318   6.541   4.287  1.2149  3.1167  1.0713
   28MOL   H21813772   2.081   6.481   4.335 -0.0927 -1.4881  2.0264
   28MOL   H21913773   2.080   6.552   4.495 -0.3661  1.5412  0.6783
   28MOL   H22013774   2.180   6.774   4.378  1.3721 -0.5013 -0.9026
   28MOL   H22113775   2.142   6.701   4.232 -1.7444 -1.1149 -1.0678
   28MOL   H22213776   1.933   6.705   4.452  1.4964  1.0631  1.2025
   28MOL   H22313777   1.974   6.858   4.372  1.1762  0.1318  2.6671
   28MOL   H22413778   1.777   6.731   4.243 -0.9512 -2.3177 -0.0448
   28MOL   H22513779   1.926   6.737   4.150  0.2113 -0.0459  0.1521
   28MOL   H22613780   1.888   6.597   4.247  0.3233 -0.0978 -2.6707
   28MOL   C22713781   2.334   6.770   4.731 -0.4813  0.7670 -0.6610
   28MOL   C22813782   2.397   6.798   4.877 -0.3758  0.5789 -0.5327
   28MOL   O22913783   2.305   6.836   4.978  0.0271 -0.3667  0.0933
   28MOL   C23013784   2.337   6.962   5.036  0.2733  0.4502 -0.4890
   28MOL   C23113785   2.279   6.966   5.179 -0.5984 -0.5922 -0.8510
   28MOL   C23213786   2.323   7.085   5.264 -0.0955 -0.3611  0.5262
   28MOL   C23313787   2.248   7.098   5.403 -0.2590  0.1661  0.1406
   28MOL   C23413788   2.298   7.230   5.474 -0.4671 -0.2722 -0.1549
   28MOL   C23513789   2.232   7.352   5.418  0.3625 -0.5714  0.6037
   28MOL   H23613790   2.272   6.854   4.700  0.4156  1.3687 -0.8660
   28MOL   H23713791   2.275   6.679   4.732 -2.1333  1.8146 -1.0853
   28MOL   H23813792   2.467   6.880   4.863  0.0500  0.2399 -0.3856
   28MOL   H23913793   2.285   7.037   4.977 -2.2784 -1.5691 -0.9169
   28MOL   H24013794   2.444   6.982   5.043  0.1585  0.7290  0.5142
   28MOL   H24113795   2.304   6.875   5.233  3.5690  1.0675  0.2002
   28MOL   H24213796   2.170   6.966   5.185 -0.6533  0.3793 -1.7712
   28MOL   H24313797   2.430   7.070   5.279 -0.4704 -0.2713  3.7690
   28MOL   H24413798   2.309   7.173   5.201  1.3826  1.1210  2.2002
   28MOL   H24513799   2.142   7.098   5.378  0.3825 -0.4409 -2.7601
   28MOL   H24613800   2.259   7.010   5.467  0.6278  0.5884  0.5841
   28MOL   H24713801   2.275   7.233   5.580 -1.7197 -0.9341 -0.4101
   28MOL   H24813802   2.407   7.237   5.468 -0.2434  0.0225  3.1878
   28MOL   H24913803   2.264   7.381   5.318  0.5012 -0.8890  0.5560
   28MOL   H25013804   2.124   7.341   5.429  0.4279 -0.4644  1.4164
   28MOL   H25113805   2.248   7.447   5.469  0.1141 -0.4430  0.4451
   28MOL   C25213806   2.491   6.686   4.930 -0.4298  0.3047 -0.0234
   28MOL   C25313807   2.518   6.669   5.081  0.4154  0.8634 -0.4874
   28MOL   O25413808   2.635   6.591   5.113 -0.2491 -0.2885 -0.0223
   28MOL   C25513809   2.764   6.648   5.086  0.6228 -0.2781 -0.2000
   28MOL   C25613810   2.868   6.558   5.151  0.0996 -0.3750 -0.9598
   28MOL   C25713811   3.005   6.609   5.100 -0.6961  0.8680 -0.1524
   28MOL   C25813812   3.126   6.544   5.156  0.1018  0.7394 -0.1233
   28MOL   C25913813   3.247   6.630   5.132  0.5191  0.4808 -0.8477
   28MOL   C26013814   3.382   6.575   5.176 -0.7724  0.1267  0.0988
   28MOL   H26113815   2.460   6.590   4.887  1.9404  0.3662 -2.0175
   28MOL   H26213816   2.584   6.701   4.875 -0.2551 -0.5488  0.0284
   28MOL   H26313817   2.519   6.773   5.114 -0.9698  1.1099 -1.1913
   28MOL   H26413818   2.774   6.750   5.121  0.4964 -1.1053  2.3239
   28MOL   H26513819   2.784   6.636   4.979  2.6048  3.2089 -0.2727
   28MOL   H26613820   2.855   6.453   5.129 -0.8135 -0.0060 -2.2568
   28MOL   H26713821   2.855   6.559   5.259  3.2208 -0.1772 -0.5403
   28MOL   H26813822   3.013   6.597   4.992 -0.6751 -0.5217 -0.0037
   28MOL   H26913823   3.004   6.716   5.122  1.9313  0.4905  2.0996
   28MOL   H27013824   3.116   6.522   5.262  0.9281  0.0263 -0.1855
   28MOL   H27113825   3.145   6.442   5.121 -1.7846  0.0479  0.8277
   28MOL   H27213826   3.258   6.666   5.029  0.0047  0.8855 -0.7623
   28MOL   H27313827   3.226   6.713   5.199  2.3350  0.5544 -0.3445
   28MOL   H27413828   3.403   6.486   5.116 -1.0719 -0.0873  0.3102
   28MOL   H27513829   3.468   6.637   5.152 -0.3401 -1.4292 -2.6929
   28MOL   H27613830   3.393   6.548   5.281  0.6785 -0.2555 -0.1424
   28MOL   C27713831   2.402   6.604   5.167  0.0193 -0.4001  0.2664
   28MOL   C27813832   2.422   6.603   5.324  0.3337 -0.1983 -0.4207
   28MOL   O27913833   2.444   6.737   5.362  0.9216  0.1507  0.3267
   28MOL   C28013834   2.521   6.761   5.481  0.0045  0.6016  0.0606
   28MOL   C28113835   2.672   6.765   5.445 -0.1122  0.6090 -0.3871
   28MOL   C28213836   2.767   6.766   5.569  0.8718 -0.5208  0.4697
   28MOL   C28313837   2.914   6.762   5.522  0.4342 -0.6437  0.1379
   28MOL   C28413838   3.008   6.804   5.633  0.3426 -0.4341  0.4370
   28MOL   C28513839   3.000   6.950   5.674  0.5868 -0.1791 -0.3840
   28MOL   H28613840   2.306   6.652   5.149 -0.6475 -1.6920  0.3433
   28MOL   H28713841   2.402   6.502   5.127  2.7836 -0.3412  0.0256
   28MOL   H28813842   2.514   6.552   5.354 -0.5459 -1.1614  0.6955
   28MOL   H28913843   2.490   6.694   5.561  2.3297 -0.4392  0.1227
   28MOL   H29013844   2.493   6.860   5.517 -1.4408  0.2033  0.0735
   28MOL   H29113845   2.692   6.850   5.379  5.0080 -0.5820 -0.5772
   28MOL   H29213846   2.689   6.675   5.386  0.3175 -0.4676  1.3452
   28MOL   H29313847   2.753   6.851   5.636 -0.5788 -0.5616  0.2290
   28MOL   H29413848   2.749   6.682   5.636 -1.0370 -0.6216 -0.1440
   28MOL   H29513849   2.928   6.658   5.494  0.7428 -0.4318 -0.5257
   28MOL   H29613850   2.949   6.820   5.436  0.6342 -3.6147 -1.8335
   28MOL   H29713851   2.990   6.726   5.707 -1.7080 -2.5372 -2.1735
   28MOL   H29813852   3.114   6.803   5.608  0.3370  0.3064  0.3792
   28MOL   H29913853   2.904   6.965   5.725  0.0745  0.1518 -1.4349
   28MOL   H30013854   3.074   6.962   5.753 -0.4852  1.2799  0.4221
   28MOL   H30113855   3.011   7.018   5.590  1.6151 -0.3363 -0.3797
   28MOL   C30213856   2.308   6.543   5.405 -0.3512 -0.2725  0.3824
   28MOL   C30313857   2.323   6.395   5.416 -0.1290 -0.0511  0.9924
   28MOL   O30413858   2.337   6.337   5.285  0.2035 -0.3142 -0.1481
   28MOL   C30513859   2.432   6.236   5.279 -0.2742  0.2187 -0.6613
   28MOL   C30613860   2.449   6.183   5.139  0.4960 -0.1046  0.7997
   28MOL   C30713861   2.530   6.054   5.127  0.5897  0.2470 -0.1894
   28MOL   C30813862   2.564   6.010   4.981  0.2344  0.3389 -0.0737
   28MOL   C30913863   2.440   5.951   4.903  0.2827  0.6538  0.0794
   28MOL   C31013864   2.474   5.876   4.773  0.0207  0.6821  0.0551
   28MOL   H31113865   2.286   6.592   5.500  1.6018 -0.0744  0.7532
   28MOL   H31213866   2.216   6.559   5.350  0.4201  0.8195 -0.6152
   28MOL   H31313867   2.408   6.368   5.479 -0.0846 -0.0201  0.9454
   28MOL   H31413868   2.391   6.163   5.349  1.0053  0.9560  0.8644
   28MOL   H31513869   2.526   6.272   5.320  0.8721  1.8997 -4.4738
   28MOL   H31613870   2.483   6.261   5.071  1.3514 -0.7548  0.4843
   28MOL   H31713871   2.344   6.158   5.120 -0.2196  1.8936  1.8914
   28MOL   H31813872   2.619   6.077   5.185  0.7993 -3.2626  0.9651
   28MOL   H31913873   2.473   5.973   5.172 -1.3382  0.1164 -2.7425
   28MOL   H32013874   2.600   6.099   4.930 -1.6464  0.8435 -0.5841
   28MOL   H32113875   2.645   5.938   4.986  0.9181  1.0995 -0.1322
   28MOL   H32213876   2.392   5.878   4.969  2.4102 -0.3584  0.5705
   28MOL   H32313877   2.364   6.027   4.884 -0.0235  0.3187 -0.0610
   28MOL   H32413878   2.389   5.816   4.739 -0.3376  0.6200  1.0261
   28MOL   H32513879   2.497   5.929   4.681 -0.4460  0.4850 -0.1762
   28MOL   H32613880   2.554   5.803   4.785 -1.0377 -0.3726  0.8314
   28MOL   C32713881   2.205   6.330   5.484  0.2274 -0.0965 -0.0931
   28MOL   C32813882   2.194   6.363   5.639  0.2966 -0.1569  0.1663
   28MOL   O32913883   2.078   6.298   5.687 -0.1558 -0.1179  0.1819
   28MOL   C33013884   1.953   6.366   5.664 -0.5237  0.5490 -1.2788
   28MOL   C33113885   1.846   6.296   5.754  0.7652  0.3152 -0.3403
   28MOL   C33213886   1.837   6.144   5.734 -0.1284 -0.4163 -0.1131
   28MOL   C33313887   1.722   6.081   5.821  0.3129 -0.9445  0.1442
   28MOL   C33413888   1.729   5.926   5.831 -0.3514  0.0186  0.4959
   28MOL   C33513889   1.615   5.873   5.926  0.0656  0.4133 -0.2955
   28MOL   H33613890   2.218   6.224   5.464  3.4968  0.0388  0.9610
   28MOL   H33713891   2.121   6.380   5.436  0.3466  0.4888  0.3022
   28MOL   H33813892   2.187   6.470   5.655  1.3439 -0.0633  0.0210
   28MOL   H33913893   1.921   6.356   5.560 -3.3520  1.0761 -0.4908
   28MOL   H34013894   1.971   6.471   5.687  0.7867 -0.1932  1.2234
   28MOL   H34113895   1.744   6.333   5.743  0.4747  0.6180  2.7864
   28MOL   H34213896   1.877   6.315   5.857  1.6476 -0.5341 -0.4410
   28MOL   H34313897   1.820   6.123   5.629  0.0440 -2.7837  0.3155
   28MOL   H34413898   1.934   6.102   5.759 -1.0215 -2.3787  0.0939
   28MOL   H34513899   1.741   6.122   5.920  1.1675  3.4699 -1.7320
   28MOL   H34613900   1.626   6.118   5.784  1.0530  1.0455  0.1455
   28MOL   H34713901   1.722   5.877   5.734  0.6159  0.4135  0.2247
   28MOL   H34813902   1.827   5.894   5.865  0.4931  0.8152 -1.1233
   28MOL   H34913903   1.611   5.923   6.022  0.0595  0.2638 -0.2174
   28MOL   H35013904   1.521   5.886   5.872 -1.7029 -2.0203  2.0376
   28MOL   H35113905   1.615   5.764   5.936 -0.6781  0.2343 -1.9564
   28MOL   C35213906   2.317   6.305   5.721 -0.1147  0.1006 -0.6400
   28MOL   C35313907   2.315   6.362   5.862 -0.1940 -0.8185  0.0045
   28MOL   O35413908   2.311   6.504   5.847 -0.4997 -0.3298 -0.4059
   28MOL   C35513909   2.260   6.587   5.944 -0.6382 -0.2376 -0.1898
   28MOL   C35613910   2.289   6.722   5.885  0.6572  0.0234  0.1148
   28MOL   C35713911   2.438   6.765   5.864 -0.6933  0.0364 -0.3027
   28MOL   C35813912   2.505   6.803   5.990  0.0571 -0.2660  0.3858
   28MOL   C35913913   2.637   6.880   5.969  0.9048  0.1769  0.5908
   28MOL   C36013914   2.744   6.842   6.076 -0.2344  0.5084 -0.2352
   28MOL   H36113915   2.300   6.198   5.733 -2.5403  0.6402  1.1881
   28MOL   H36213916   2.413   6.326   5.674  0.4538  0.3879  0.6404
   28MOL   H36313917   2.225   6.337   5.919 -0.9942  0.8614 -0.4720
   28MOL   H36413918   2.314   6.595   6.038  0.8773 -1.3190 -0.9573
   28MOL   H36513919   2.159   6.549   5.963 -0.3002 -1.2829 -0.4580
   28MOL   H36613920   2.242   6.796   5.949 -0.2321 -1.1062  0.7805
   28MOL   H36713921   2.252   6.730   5.783  0.2582  0.6571  0.3083
   28MOL   H36813922   2.506   6.690   5.822 -0.7201 -0.9099  1.3121
   28MOL   H36913923   2.436   6.847   5.792 -1.3496  0.9336  0.7318
   28MOL   H37013924   2.428   6.848   6.054 -2.0641 -1.5729 -1.1679
   28MOL   H37113925   2.539   6.712   6.039 -1.7053 -0.3163  1.6039
   28MOL   H37213926   2.672   6.855   5.869 -0.2199  1.5632 -0.1746
   28MOL   H37313927   2.615   6.987   5.975  2.5300  0.5876 -0.1753
   28MOL   H37413928   2.826   6.913   6.064  0.9801 -0.7982  0.2580
   28MOL   H37513929   2.700   6.871   6.171  0.1632 -0.3302  0.2097
   28MOL   H37613930   2.786   6.742   6.072 -0.5143  0.4461 -3.1910
   28MOL   C37713931   2.436   6.318   5.947 -0.5470  0.0602  0.5947
   28MOL   C37813932   2.415   6.173   6.006  0.2283 -0.2600  0.5623
   28MOL   O37913933   2.316   6.173   6.107 -0.5420  0.1654  0.1565
   28MOL   C38013934   2.206   6.089   6.074 -0.7449  0.1124  0.0700
   28MOL   C38113935   2.104   6.096   6.196 -0.1645 -0.3627 -0.6994
   28MOL   C38213936   2.025   6.234   6.210  0.5608 -0.4365 -0.0577
   28MOL   C38313937   1.896   6.233   6.296 -0.0802 -0.7287  0.0116
   28MOL   C38413938   1.795   6.148   6.229  0.8507 -0.2874 -0.0660
   28MOL   C38513939   1.668   6.154   6.320  0.4718 -0.4102  0.3061
   28MOL   H38613940   2.529   6.314   5.890 -0.1479 -2.0185  1.3271
   28MOL   H38713941   2.470   6.379   6.031 -1.6388 -0.1501  1.2025
   28MOL   H38813942   2.397   6.101   5.926 -2.8780 -1.6025  2.3405
   28MOL   H38913943   2.244   5.992   6.042  0.9518  1.7363 -3.0313
   28MOL   H39013944   2.151   6.113   5.983  0.0398 -1.8030 -0.9420
   28MOL   H39113945   2.143   6.065   6.293 -3.5498 -0.2442  0.7428
   28MOL   H39213946   2.026   6.021   6.178 -2.2602  1.3175  1.1400
   28MOL   H39313947   2.091   6.306   6.259  0.4242  0.7001 -1.5370
   28MOL   H39413948   2.014   6.276   6.110  2.5921 -0.7604 -0.4497
   28MOL   H39513949   1.910   6.219   6.403 -0.8365 -0.6238  0.1239
   28MOL   H39613950   1.853   6.333   6.287 -0.3975 -0.9225 -0.6948
   28MOL   H39713951   1.770   6.180   6.128  2.4610 -2.0205 -1.0539
   28MOL   H39813952   1.826   6.044   6.224  1.4489 -0.2135  1.8077
   28MOL   H39913953   1.684   6.136   6.427  1.7093 -1.2867 -0.0108
   28MOL   H40013954   1.620   6.249   6.300 -2.7430 -2.0806 -0.2804
   28MOL   H40113955   1.595   6.080   6.286  0.2257 -0.6864  1.3915
   28MOL   C40213956   2.549   6.134   6.088  0.2231 -0.5175 -0.8920
   28MOL   C40313957   2.548   5.989   6.136 -0.2653  0.6383  1.3340
   28MOL   O40413958   2.629   5.974   6.255  0.6161 -0.7355 -0.1501
   28MOL   C40513959   2.558   5.991   6.377 -0.6542 -0.1077  1.0447
   28MOL   C40613960   2.655   6.013   6.494 -0.1966 -0.3152  0.0449
   28MOL   C40713961   2.689   6.158   6.509 -0.5505 -0.4243  0.3450
   28MOL   C40813962   2.737   6.189   6.651 -0.6829  0.1680  0.3268
   28MOL   C40913963   2.872   6.137   6.696  0.8590  0.2826 -0.3927
   28MOL   C41013964   2.990   6.169   6.602 -0.2958 -0.4380 -0.5496
   28MOL   H41113965   2.558   6.200   6.175  0.0531 -1.5312 -0.0944
   28MOL   H41213966   2.637   6.152   6.027  0.6752  3.4351  0.7889
   28MOL   H41313967   2.449   5.954   6.165 -0.8865  0.4825 -0.8843
   28MOL   H41413968   2.502   5.900   6.396 -2.6518  0.5452 -1.4070
   28MOL   H41513969   2.483   6.071   6.374 -0.8321 -0.2580  1.5489
   28MOL   H41613970   2.736   5.944   6.470 -0.3933 -0.4009 -0.3786
   28MOL   H41713971   2.625   5.966   6.588 -1.1219 -1.6082 -0.8936
   28MOL   H41813972   2.764   6.190   6.436 -1.8155  1.6230 -0.0840
   28MOL   H41913973   2.597   6.214   6.492 -2.0459 -2.8587  0.2674
   28MOL   H42013974   2.737   6.295   6.675 -0.8226  0.0530  0.8391
   28MOL   H42113975   2.679   6.127   6.720  1.4397 -2.7299 -0.3949
   28MOL   H42213976   2.884   6.173   6.798 -0.1466  0.9952 -0.5309
   28MOL   H42313977   2.879   6.030   6.719 -0.7400 -0.2546 -2.2456
   28MOL   H42413978   2.995   6.268   6.555  0.2128 -0.0865  0.2419
   28MOL   H42513979   3.085   6.150   6.651 -0.1565  0.5942 -0.4123
   28MOL   H42613980   2.979   6.105   6.514 -3.2649 -0.0327 -0.5239
   28MOL   C42713981   2.593   5.891   6.025 -0.1524  0.2059 -0.0927
   28MOL   C42813982   2.597   5.742   6.074 -0.0314 -0.2880 -0.3792
   28MOL   O42913983   2.461   5.706   6.083 -0.9318  0.1571 -0.2662
   28MOL   C43013984   2.430   5.624   6.192  0.0485 -0.2700  0.0057
   28MOL   C43113985   2.291   5.554   6.169 -0.3848 -0.5290 -0.0745
   28MOL   C43213986   2.180   5.657   6.209 -0.9627  0.3350 -0.0069
   28MOL   C43313987   2.036   5.613   6.200  0.5558 -0.4798 -0.3824
   28MOL   C43413988   1.945   5.722   6.276  0.1204  0.5821  0.0271
   28MOL   C43513989   1.803   5.698   6.223 -0.7803 -0.3501  0.1035
   28MOL   H43613990   2.532   5.905   5.936  0.2251  0.8430 -0.2583
   28MOL   H43713991   2.691   5.926   5.993  0.0561 -0.1217  0.1927
   28MOL   H43813992   2.652   5.748   6.168  1.2323 -0.2641 -1.1105
   28MOL   H43913993   2.427   5.691   6.277 -0.5899 -0.5950  0.2434
   28MOL   H44013994   2.504   5.547   6.213  0.9071  0.4940 -0.1758
   28MOL   H44113995   2.291   5.467   6.235 -0.8737 -0.4083  0.0918
   28MOL   H44213996   2.283   5.518   6.067  1.4213  0.1880 -0.4912
   28MOL   H44313997   2.194   5.682   6.314 -1.5011 -0.8979  0.3652
   28MOL   H44413998   2.197   5.751   6.157 -0.7338 -1.3369 -3.0419
   28MOL   H44513999   2.025   5.607   6.092 -0.7451 -0.4999 -0.2622
   28MOL   H44614000   2.015   5.521   6.254 -1.1743 -0.1697 -0.5043
   28MOL   H44714001   1.958   5.715   6.384 -0.1026  1.4519  0.1097
   28MOL   H44814002   1.974   5.825   6.258  1.2075  0.0903 -1.0648
   28MOL   H44914003   1.799   5.694   6.114  0.7038  0.9556 -0.0281
   28MOL   H45014004   1.765   5.602   6.257  1.0823 -1.0748  0.2026
   28MOL   H45114005   1.743   5.779   6.265  0.0944  0.1110  0.4948
   28MOL   C45214006   2.674   5.644   5.991 -0.9861 -0.0542 -0.0647
   28MOL   C45314007   2.824   5.673   5.969  0.1319 -0.2270 -0.4945
   28MOL   O45414008   2.867   5.561   5.893 -0.1591  0.0225  0.3959
   28MOL   C45514009   2.931   5.606   5.779 -0.6333 -0.4801 -0.0654
   28MOL   C45614010   2.970   5.487   5.692  0.2287  0.4948  0.1554
   28MOL   C45714011   3.088   5.421   5.761  0.4139  0.3848  0.3185
   28MOL   C45814012   3.124   5.282   5.704  0.0725  0.5539  0.3639
   28MOL   C45914013   3.276   5.240   5.711 -0.2737 -0.0464  0.2126
   28MOL   C46014014   3.338   5.214   5.846  0.3501 -0.4913 -0.5593
   28MOL   H46114015   2.668   5.547   6.040  1.7920 -1.3304 -2.1103
   28MOL   H46214016   2.634   5.631   5.891 -0.2291 -6.0463  0.2311
   28MOL   H46314017   2.825   5.768   5.914  1.1038  1.0752  1.7374
   28MOL   H46414018   3.017   5.664   5.812 -2.4797  1.7117  1.0796
   28MOL   H46514019   2.858   5.666   5.725  0.1577 -1.8667 -2.7265
   28MOL   H46614020   2.991   5.520   5.590 -2.6951  0.1684 -0.6243
   28MOL   H46714021   2.891   5.412   5.692 -0.2076  0.9361 -0.9041
   28MOL   H46814022   3.174   5.487   5.744 -0.3638  1.1254 -0.8214
   28MOL   H46914023   3.054   5.396   5.861 -2.3682 -0.1980 -0.7341
   28MOL   H47014024   3.075   5.205   5.764 -0.6845  1.6176  1.1284
   28MOL   H47114025   3.096   5.276   5.599 -1.4761  2.9667  0.6067
   28MOL   H47214026   3.292   5.156   5.644  0.4518  0.7072 -0.5790
   28MOL   H47314027   3.331   5.316   5.655 -0.1328  1.2072  2.0202
   28MOL   H47414028   3.300   5.122   5.891 -0.3170  0.8439  1.6938
   28MOL   H47514029   3.445   5.211   5.828  0.4151  3.1206 -0.9582
   28MOL   H47614030   3.327   5.295   5.919  0.1966  0.8154 -2.0253
   28MOL   C47714031   2.912   5.712   6.090  0.4179 -1.0397 -0.2180
   28MOL   C47814032   2.917   5.608   6.204  0.0508  0.0262  0.5207
   28MOL   O47914033   3.015   5.649   6.301  0.4433  0.3270 -0.1873
   28MOL   C48014034   3.001   5.585   6.423  0.1910 -0.9649  0.3506
   28MOL   C48114035   3.098   5.631   6.529 -0.5404  0.2863  0.2488
   28MOL   C48214036   3.063   5.769   6.583  0.0914 -0.7966 -0.2155
   28MOL   C48314037   3.138   5.793   6.719 -0.5583 -0.3643  0.7354
   28MOL   C48414038   3.282   5.849   6.700  0.4492  0.5330 -0.4736
   28MOL   C48514039   3.357   5.873   6.831 -0.0795  0.0774  0.2500
   28MOL   H48614040   3.012   5.723   6.049  0.1040  3.3850 -0.0160
   28MOL   H48714041   2.870   5.805   6.127 -0.5496  0.2540 -4.3570
   28MOL   H48814042   2.813   5.610   6.236 -0.0159  3.3310  0.2910
   28MOL   H48914043   3.024   5.479   6.408 -0.8207 -1.0432 -0.7130
   28MOL   H49014044   2.900   5.597   6.464 -0.5233 -1.2680 -1.2637
   28MOL   H49114045   3.200   5.619   6.493  0.1820 -1.7690  2.7630
   28MOL   H49214046   3.092   5.559   6.612  3.9740 -1.2604 -0.5987
   28MOL   H49314047   3.092   5.851   6.518 -1.0688  0.6959  1.1223
   28MOL   H49414048   2.954   5.765   6.584  0.0725 -1.7260 -2.3032
   28MOL   H49514049   3.081   5.870   6.771 -0.6504  0.2137 -0.2062
   28MOL   H49614050   3.129   5.705   6.782  3.0313 -0.3579  1.3775
   28MOL   H49714051   3.344   5.789   6.634  0.7689 -0.8606  1.0594
   28MOL   H49814052   3.268   5.946   6.653  0.8069  0.8974  0.1750
   28MOL   H49914053   3.456   5.913   6.808 -0.3323  1.7987  2.0623
   28MOL   H50014054   3.297   5.944   6.888  1.1171  1.4462 -0.1700
   28MOL   H50114055   3.356   5.776   6.880 -2.4216  0.1063  0.3008
   28MOL   H50214056   2.947   5.510   6.168  0.1457 -0.2440  1.3252
   29MOL     C114057   3.727   6.889   4.364 -0.2510 -0.4550 -0.4246
   29MOL     C214058   3.694   6.748   4.419 -0.7380 -0.3636 -0.4003
   29MOL     O314059   3.794   6.702   4.511 -0.0999 -0.7674  0.2744
   29MOL     C414060   3.780   6.753   4.644  0.4845 -1.2276  0.6599
   29MOL     C514061   3.873   6.681   4.740  0.0925  0.2278 -0.0212
   29MOL     C614062   3.878   6.530   4.739 -0.3211  0.1343 -0.0539
   29MOL     C714063   3.738   6.466   4.756  0.5104  0.1182 -0.7112
   29MOL     C814064   3.691   6.458   4.897  0.0669 -0.4947  0.2306
   29MOL     C914065   3.774   6.401   5.010  0.0493 -0.1274 -0.1250
   29MOL    H1014066   3.757   6.951   4.449  1.4371 -0.3152 -1.1094
   29MOL    H1114067   3.817   6.882   4.304  0.9722  0.3001  1.2741
   29MOL    H1214068   3.592   6.757   4.456 -0.5376  0.6819 -0.0674
   29MOL    H1314069   3.675   6.740   4.670 -0.6378  1.7844 -2.0104
   29MOL    H1414070   3.808   6.858   4.644 -2.7820 -0.2607 -1.3739
   29MOL    H1514071   3.846   6.724   4.836 -0.1325  1.8323 -0.7764
   29MOL    H1614072   3.973   6.716   4.711 -0.0893  0.8150  0.0490
   29MOL    H1714073   3.924   6.493   4.647 -0.6260 -1.1317  0.2948
   29MOL    H1814074   3.937   6.501   4.826 -2.5524 -0.1040  1.4098
   29MOL    H1914075   3.655   6.514   4.704 -0.2466  0.7376  1.0424
   29MOL    H2014076   3.737   6.365   4.716  0.9924 -0.8010  1.5031
   29MOL    H2114077   3.612   6.386   4.877 -1.1295  0.8709 -0.0854
   29MOL    H2214078   3.641   6.551   4.927  2.0602 -0.0296  2.2872
   29MOL    H2314079   3.789   6.293   5.004 -2.0890 -0.3552 -1.9577
   29MOL    H2414080   3.870   6.452   5.011 -0.7130  1.3306 -0.7431
   29MOL    H2514081   3.726   6.419   5.106 -1.2377 -2.0649 -0.3850
   29MOL    H2614082   3.655   6.953   4.313  0.3761  2.5219  2.2382
   29MOL    C2714083   3.692   6.634   4.317 -0.1437 -0.5290  0.0955
   29MOL    C2814084   3.638   6.502   4.375  0.0745 -0.0238  0.9653
   29MOL    O2914085   3.501   6.535   4.410 -0.0453  0.2229 -0.3409
   29MOL    C3014086   3.437   6.444   4.501  0.0911  0.1933  0.2628
   29MOL    C3114087   3.301   6.499   4.551  0.5216 -0.2871  0.5621
   29MOL    C3214088   3.310   6.596   4.673  0.5259  0.0611  0.2012
   29MOL    C3314089   3.351   6.745   4.653 -0.1590  0.0708  0.0245
   29MOL    C3414090   3.259   6.814   4.551  0.6723 -0.2224  0.3904
   29MOL    C3514091   3.245   6.967   4.573  0.1583  0.2221  0.7860
   29MOL    H3614092   3.640   6.666   4.226 -0.1241  3.7464  1.4680
   29MOL    H3714093   3.793   6.612   4.281 -0.1819  0.7922 -0.8532
   29MOL    H3814094   3.697   6.468   4.461  1.4293 -0.0246  0.0540
   29MOL    H3914095   3.504   6.410   4.581 -1.0138 -2.5712  0.0700
   29MOL    H4014096   3.421   6.349   4.449  1.4867  0.6982 -1.1431
   29MOL    H4114097   3.231   6.420   4.578 -0.7110  1.3134  2.2038
   29MOL    H4214098   3.255   6.542   4.463 -0.3641 -0.6313  0.8483
   29MOL    H4314099   3.210   6.587   4.716 -0.4224  0.8838 -1.7615
   29MOL    H4414100   3.383   6.557   4.743  1.2357  2.1673  0.6801
   29MOL    H4514101   3.319   6.782   4.750 -0.3471 -1.0769  0.4099
   29MOL    H4614102   3.457   6.770   4.642  0.1612 -0.9811  0.6153
   29MOL    H4714103   3.286   6.789   4.448 -2.6604 -1.2465 -0.3199
   29MOL    H4814104   3.155   6.781   4.551  0.5896  0.0235 -0.1786
   29MOL    H4914105   3.215   6.996   4.673  0.4535  0.6899  0.7397
   29MOL    H5014106   3.345   7.010   4.567 -0.6353  2.0723  0.5412
   29MOL    H5114107   3.163   7.005   4.512 -0.2415 -0.5233  0.8572
   29MOL    C5214108   3.651   6.392   4.260 -0.0517 -0.5107  0.2252
   29MOL    C5314109   3.701   6.254   4.315 -0.9382  1.0484 -0.0888
   29MOL    O5414110   3.698   6.167   4.206  0.2997  0.1457 -0.2503
   29MOL    C5514111   3.585   6.080   4.190 -0.3910 -0.3267  0.2840
   29MOL    C5614112   3.603   5.982   4.069 -0.3661  0.4121  0.2415
   29MOL    C5714113   3.730   5.897   4.092  0.2352  0.7156 -0.2035
   29MOL    C5814114   3.763   5.810   3.969 -0.3348  0.2884  0.2083
   29MOL    C5914115   3.915   5.779   3.968  0.5924  0.9002  0.5169
   29MOL    C6014116   3.959   5.704   4.102 -0.5667 -0.1429  0.5584
   29MOL    H6114117   3.734   6.421   4.196  1.2444 -1.3927  1.4474
   29MOL    H6214118   3.556   6.389   4.206 -0.8132 -0.2415  1.5208
   29MOL    H6314119   3.633   6.219   4.393  2.0271  0.1754  2.2172
   29MOL    H6414120   3.496   6.142   4.189 -1.4674 -1.8548  0.4022
   29MOL    H6514121   3.575   6.022   4.281 -0.0472 -0.2548  0.3695
   29MOL    H6614122   3.618   6.038   3.977  1.7096 -3.3810 -1.8256
   29MOL    H6714123   3.515   5.918   4.057 -1.0256  1.2180  0.6830
   29MOL    H6814124   3.814   5.966   4.101  1.9377 -1.1423 -1.4314
   29MOL    H6914125   3.729   5.847   4.188  1.8932  0.3767 -0.3616
   29MOL    H7014126   3.708   5.716   3.969 -0.6868  0.4931 -0.6571
   29MOL    H7114127   3.739   5.865   3.878 -2.3588 -0.8911 -0.0019
   29MOL    H7214128   3.935   5.723   3.877 -1.7029 -0.7886  1.0001
   29MOL    H7314129   3.974   5.871   3.971  1.2064  0.4685  2.6151
   29MOL    H7414130   3.903   5.612   4.118  0.3305 -0.8727 -0.4298
   29MOL    H7514131   4.067   5.689   4.100 -0.5426  0.0881  0.1421
   29MOL    H7614132   3.947   5.768   4.189  3.8997 -0.8204  1.7774
   29MOL    C7714133   3.847   6.256   4.372  0.2355  0.1601 -0.1295
   29MOL    C7814134   3.898   6.127   4.441  0.3700  0.7384 -0.0175
   29MOL    O7914135   3.848   6.140   4.570 -0.4238 -0.2743  0.4765
   29MOL    C8014136   3.802   6.011   4.615 -1.2459 -0.6230 -0.2255
   29MOL    C8114137   3.765   6.026   4.762 -0.5151 -0.5549  0.7128
   29MOL    C8214138   3.736   5.891   4.844 -0.2584 -0.1872  0.0088
   29MOL    C8314139   3.696   5.907   4.989 -0.0083 -0.1143  0.1201
   29MOL    C8414140   3.712   5.779   5.076 -0.3033  0.6755 -0.6837
   29MOL    C8514141   3.679   5.811   5.224  0.4232  0.1577 -0.1576
   29MOL    H8614142   3.866   6.349   4.425 -0.6094  0.6333 -0.6609
   29MOL    H8714143   3.901   6.266   4.278 -0.6685  0.4022 -0.6212
   29MOL    H8814144   3.859   6.040   4.389  1.7048 -0.7966  1.5190
   29MOL    H8914145   3.878   5.934   4.601  1.0701  1.4974  0.2948
   29MOL    H9014146   3.715   5.982   4.557 -1.8166 -1.2520  0.9326
   29MOL    H9114147   3.679   6.093   4.767 -0.5635 -0.6431  1.0720
   29MOL    H9214148   3.835   6.086   4.821  0.9711 -0.1476 -1.4062
   29MOL    H9314149   3.676   5.821   4.785 -1.1656 -1.2552  2.1237
   29MOL    H9414150   3.834   5.848   4.863  1.3096  3.5309  0.6130
   29MOL    H9514151   3.768   5.977   5.034 -0.5665  0.9810 -0.6660
   29MOL    H9614152   3.597   5.953   4.993 -0.3338 -0.7751 -0.3288
   29MOL    H9714153   3.652   5.702   5.027  1.1635 -0.4448 -0.7380
   29MOL    H9814154   3.817   5.752   5.068 -0.7023 -1.8967  1.8898
   29MOL    H9914155   3.737   5.758   5.299 -0.0039  1.3689  1.0589
   29MOL   H10014156   3.697   5.915   5.251 -0.4294 -0.1076  1.5296
   29MOL   H10114157   3.573   5.797   5.246  0.2325  3.3102  1.3082
   29MOL   C10214158   4.049   6.117   4.451  0.0720 -0.3491  0.0794
   29MOL   C10314159   4.126   6.110   4.311 -0.4372 -0.4869 -0.5561
   29MOL   O10414160   4.123   6.230   4.230  0.3201  0.3789 -0.7412
   29MOL   C10514161   4.129   6.194   4.089  0.8672 -0.0060  0.1564
   29MOL   C10614162   4.114   6.323   4.014 -0.2691 -0.9234  0.2055
   29MOL   C10714163   4.124   6.304   3.868  0.1895 -0.1114 -0.1658
   29MOL   C10814164   4.109   6.424   3.778  0.4282 -0.0941  0.2938
   29MOL   C10914165   4.135   6.394   3.625 -0.0862 -0.2065  0.5889
   29MOL   C11014166   4.149   6.525   3.557  0.0395 -0.4129 -0.7060
   29MOL   H11114167   4.092   6.202   4.504 -1.1200  0.1445  0.2498
   29MOL   H11214168   4.062   6.031   4.517  0.6075 -2.5672 -2.7892
   29MOL   H11314169   4.087   6.020   4.263  0.2559 -1.1781  0.1497
   29MOL   H11414170   4.047   6.130   4.057  1.6143 -0.5456 -0.6920
   29MOL   H11514171   4.217   6.134   4.066  1.0592  0.0977  0.6084
   29MOL   H11614172   4.199   6.380   4.052 -2.0703  3.4837 -1.9836
   29MOL   H11714173   4.026   6.382   4.041  0.3515  0.5262 -0.8895
   29MOL   H11814174   4.221   6.263   3.841 -0.0057 -1.0813  0.5644
   29MOL   H11914175   4.062   6.220   3.836  1.4018 -1.6276  1.4124
   29MOL   H12014176   4.008   6.464   3.786  0.4657  0.1311 -0.3139
   29MOL   H12114177   4.179   6.501   3.810 -0.1188  0.1071  1.0042
   29MOL   H12214178   4.232   6.346   3.613  0.8827  1.1391  2.8591
   29MOL   H12314179   4.062   6.332   3.572 -0.0280 -0.7780  1.1767
   29MOL   H12414180   4.164   6.521   3.449  0.0951 -1.4098 -0.6646
   29MOL   H12514181   4.054   6.580   3.556  1.0395  1.3933  0.6997
   29MOL   H12614182   4.217   6.596   3.603 -0.2676 -0.8506  0.4266
   29MOL   C12714183   4.283   6.099   4.335  0.4158  0.3056  0.2179
   29MOL   C12814184   4.323   5.957   4.384 -0.7607 -0.0832 -0.4357
   29MOL   O12914185   4.447   5.949   4.449 -0.5335 -0.1471  0.3110
   29MOL   C13014186   4.450   6.013   4.579  0.7944 -0.6244  0.6084
   29MOL   C13114187   4.567   5.986   4.671 -0.2424  0.4035  0.4161
   29MOL   C13214188   4.591   6.084   4.789 -0.5840  0.2025  0.5252
   29MOL   C13314189   4.640   6.019   4.917 -0.5310 -0.4386  0.2320
   29MOL   C13414190   4.693   6.116   5.015 -0.1976  0.2645 -0.7140
   29MOL   C13514191   4.586   6.201   5.085  0.3001 -0.1871 -0.2757
   29MOL   H13614192   4.343   6.124   4.248 -0.5909 -2.1836 -1.2324
   29MOL   H13714193   4.302   6.174   4.412  0.3289 -0.7642  1.2926
   29MOL   H13814194   4.247   5.910   4.446  0.1665 -0.7664  0.1959
   29MOL   H13914195   4.359   5.984   4.632 -0.0541 -0.5105 -0.7567
   29MOL   H14014196   4.440   6.121   4.564 -2.9686 -0.7530  1.5514
   29MOL   H14114197   4.659   5.988   4.613 -0.3233 -0.4427  0.2504
   29MOL   H14214198   4.573   5.879   4.693 -0.3609  0.3645  0.2589
   29MOL   H14314199   4.653   6.167   4.755 -1.1584  0.6682  0.5996
   29MOL   H14414200   4.496   6.136   4.804 -0.8187  0.1417 -0.7605
   29MOL   H14514201   4.566   5.955   4.965  0.7303 -1.2367  1.1233
   29MOL   H14614202   4.721   5.950   4.894  0.1027  0.1368  0.7544
   29MOL   H14714203   4.746   6.055   5.088 -0.7558 -0.5379 -0.9730
   29MOL   H14814204   4.758   6.188   4.965  0.2739  0.8146  0.6760
   29MOL   H14914205   4.630   6.258   5.166 -0.7494  0.7875 -0.3787
   29MOL   H15014206   4.536   6.267   5.014 -0.3241 -0.3882 -0.0283
   29MOL   H15114207   4.511   6.131   5.122  0.1510 -0.9832 -2.0031
   29MOL   C15214208   4.345   5.870   4.254 -0.1388 -0.0970  0.1958
   29MOL   C15314209   4.354   5.721   4.286  0.2218 -0.4514  0.2836
   29MOL   O15414210   4.240   5.684   4.358 -0.5354  0.2416 -0.4648
   29MOL   C15514211   4.255   5.620   4.481  0.0659  0.6972 -0.1337
   29MOL   C15614212   4.117   5.614   4.552  0.2416 -0.3608 -0.1039
   29MOL   C15714213   4.036   5.491   4.519  0.4802  0.1200 -0.2535
   29MOL   C15814214   3.918   5.460   4.614  0.2086 -0.3152  0.0716
   29MOL   C15914215   3.834   5.581   4.629 -0.2994  0.5258 -0.3342
   29MOL   C16014216   3.705   5.556   4.714 -0.1413 -0.0545  1.0021
   29MOL   H16114217   4.258   5.888   4.191 -1.9744 -0.8526  2.4224
   29MOL   H16214218   4.426   5.917   4.200  0.5600 -0.1395  1.1851
   29MOL   H16314219   4.443   5.705   4.347  2.1567 -2.0302 -2.8697
   29MOL   H16414220   4.322   5.686   4.536  1.3714 -0.8394  0.1420
   29MOL   H16514221   4.310   5.526   4.479 -0.0593  0.6162  0.1870
   29MOL   H16614222   4.067   5.709   4.534  0.7526 -0.3419 -1.5594
   29MOL   H16714223   4.144   5.611   4.657  0.3717 -0.8111 -0.1456
   29MOL   H16814224   3.995   5.497   4.418 -3.0456  2.5083  1.2242
   29MOL   H16914225   4.107   5.408   4.518  0.2612 -0.0690 -0.1360
   29MOL   H17014226   3.861   5.379   4.569 -2.6032  2.1131 -0.8768
   29MOL   H17114227   3.951   5.420   4.710 -0.0059 -0.7409 -0.0296
   29MOL   H17214228   3.893   5.666   4.664 -2.6991  1.8330  0.6588
   29MOL   H17314229   3.807   5.617   4.530  0.2383 -1.2725 -1.1629
   29MOL   H17414230   3.662   5.457   4.697  2.1445 -0.5706 -2.2880
   29MOL   H17514231   3.718   5.587   4.817  2.3148  0.3327  0.6005
   29MOL   H17614232   3.627   5.627   4.685 -2.3351 -3.8009 -2.9369
   29MOL   C17714233   4.363   5.632   4.157 -0.1147 -0.1409 -0.3225
   29MOL   C17814234   4.402   5.487   4.172  0.2281 -0.0320  0.6544
   29MOL   O17914235   4.347   5.423   4.066 -0.2933  0.2066 -0.1683
   29MOL   C18014236   4.219   5.372   4.083 -0.6356 -0.1120 -0.8151
   29MOL   C18114237   4.197   5.253   3.986  0.1042 -0.7523  0.1430
   29MOL   C18214238   4.049   5.214   3.967 -0.3956  0.0617  0.2762
   29MOL   C18314239   4.044   5.068   3.930  0.3628 -0.2165  0.2234
   29MOL   C18414240   3.908   5.024   3.874 -0.2778  0.3088 -0.2818
   29MOL   C18514241   3.898   4.873   3.832 -0.4359 -0.4597 -0.2885
   29MOL   H18614242   4.274   5.643   4.095 -0.9814 -0.6565  0.8064
   29MOL   H18714243   4.446   5.669   4.097  1.5347 -0.4282  1.6929
   29MOL   H18814244   4.356   5.451   4.264  1.9926 -0.6002  1.3461
   29MOL   H18914245   4.148   5.445   4.045 -0.2866  0.7258  0.1297
   29MOL   H19014246   4.194   5.335   4.183  2.1112 -1.5082 -0.5849
   29MOL   H19114247   4.259   5.170   4.020 -0.8630 -1.4042  0.3358
   29MOL   H19214248   4.237   5.271   3.886 -1.4238 -2.4023 -0.8017
   29MOL   H19314249   3.986   5.224   4.055 -1.4716 -0.1661 -0.4597
   29MOL   H19414250   3.996   5.279   3.897  0.3180  0.0450 -0.2913
   29MOL   H19514251   4.103   5.047   3.841 -0.7367 -0.1912 -0.5220
   29MOL   H19614252   4.062   5.002   4.015 -1.8465 -0.5971  0.4366
   29MOL   H19714253   3.814   5.063   3.915 -1.3474  0.4798 -2.8022
   29MOL   H19814254   3.908   5.075   3.778  1.4439 -0.6920 -0.8391
   29MOL   H19914255   3.986   4.838   3.779 -1.2630 -1.5436 -0.9681
   29MOL   H20014256   3.881   4.815   3.923  2.1340 -1.0097 -0.1325
   29MOL   H20114257   3.816   4.869   3.760 -0.3248 -1.5596 -0.3678
   29MOL   C20214258   4.555   5.476   4.195  0.6644 -0.6084 -0.2287
   29MOL   C20314259   4.597   5.334   4.227 -0.0422  0.3744  0.0083
   29MOL   O20414260   4.734   5.333   4.279 -0.4600 -0.2458 -0.4233
   29MOL   C20514261   4.737   5.349   4.419  0.2988  0.3873  0.6146
   29MOL   C20614262   4.884   5.334   4.465 -0.5748  0.2917 -0.5965
   29MOL   C20714263   4.969   5.441   4.402  0.4402  0.1966  0.4443
   29MOL   C20814264   5.115   5.419   4.418  0.0771 -0.3739  0.4211
   29MOL   C20914265   5.166   5.475   4.550 -0.1489 -0.1402  0.3489
   29MOL   C21014266   5.318   5.474   4.558 -0.3221 -0.0409  0.3695
   29MOL   H21114267   4.615   5.512   4.111 -0.7407  1.0589 -0.5483
   29MOL   H21214268   4.584   5.547   4.273 -1.2595  0.0739 -0.1046
   29MOL   H21314269   4.527   5.291   4.298 -0.4216  0.2044 -0.4690
   29MOL   H21414270   4.669   5.285   4.474  0.1504  0.3459  0.3860
   29MOL   H21514271   4.694   5.444   4.449 -0.8467 -0.3555  1.3679
   29MOL   H21614272   4.930   5.239   4.437  1.6126  0.6846  1.5280
   29MOL   H21714273   4.898   5.347   4.572 -0.6955  0.0120 -0.5459
   29MOL   H21814274   4.954   5.435   4.294 -2.1456  1.7541  0.6631
   29MOL   H21914275   4.943   5.536   4.448 -2.2860 -0.2321 -0.1424
   29MOL   H22014276   5.150   5.319   4.393 -0.8816  0.2736 -4.1038
   29MOL   H22114277   5.164   5.478   4.340  1.0512 -0.4912  0.9435
   29MOL   H22214278   5.128   5.576   4.566  1.2547  0.7681 -1.8108
   29MOL   H22314279   5.134   5.406   4.628 -1.6633 -0.4031 -0.4787
   29MOL   H22414280   5.335   5.520   4.656  0.3480  1.6948 -0.5545
   29MOL   H22514281   5.358   5.373   4.567 -3.3092 -1.3506 -0.4901
   29MOL   H22614282   5.367   5.523   4.475 -2.9940  1.8165 -0.1705
   29MOL   C22714283   4.602   5.222   4.115 -0.3274 -0.7822  0.2845
   29MOL   C22814284   4.591   5.085   4.195  0.3444  0.0363 -0.1689
   29MOL   O22914285   4.456   5.067   4.237  0.8573 -0.3251 -0.1729
   29MOL   C23014286   4.451   5.005   4.368 -0.7990 -0.1804 -0.5571
   29MOL   C23114287   4.309   4.989   4.423  0.2254 -0.1270  0.3960
   29MOL   C23214288   4.256   5.117   4.485 -0.2775 -0.4088  0.0502
   29MOL   C23314289   4.118   5.104   4.548  0.3680 -0.5168 -0.4170
   29MOL   C23414290   3.994   5.116   4.458  0.0873 -0.2058  0.3568
   29MOL   C23514291   3.935   4.986   4.424 -0.1646 -0.5585 -0.4830
   29MOL   H23614292   4.521   5.218   4.042 -1.0488  0.1037  1.0301
   29MOL   H23714293   4.696   5.230   4.060 -0.8561  1.3406 -0.3438
   29MOL   H23814294   4.653   5.078   4.285 -0.0485  0.1499  0.1136
   29MOL   H23914295   4.508   5.056   4.445 -1.6921 -0.3220  0.2024
   29MOL   H24014296   4.501   4.909   4.364 -1.2793 -0.6279  2.9746
   29MOL   H24114297   4.311   4.914   4.502 -0.1194  0.2757  0.7881
   29MOL   H24214298   4.247   4.947   4.344  0.1400  1.1613 -0.2348
   29MOL   H24314299   4.320   5.151   4.567 -0.3354 -1.0873  0.3757
   29MOL   H24414300   4.253   5.194   4.407 -0.5769 -1.2443 -0.7737
   29MOL   H24514301   4.115   5.009   4.601 -0.5523  0.9274  2.2488
   29MOL   H24614302   4.108   5.192   4.612  1.3631 -1.1899  0.6830
   29MOL   H24714303   3.922   5.191   4.491  0.8776 -0.2968  2.3535
   29MOL   H24814304   4.024   5.155   4.360  0.3575 -0.3609  0.3777
   29MOL   H24914305   4.003   4.931   4.360  0.8223  1.0001 -0.8155
   29MOL   H25014306   3.915   4.926   4.512 -1.7801  0.5705 -0.0476
   29MOL   H25114307   3.841   4.992   4.369 -0.3239 -1.6393 -0.3206
   29MOL   C25214308   4.619   4.982   4.095  0.6612 -0.8575  0.3569
   29MOL   C25314309   4.765   4.973   4.030  0.5817 -0.0608  0.0031
   29MOL   O25414310   4.764   4.847   3.959 -0.2855  0.1823  0.0457
   29MOL   C25514311   4.711   4.855   3.830  0.3080  0.1346 -0.4340
   29MOL   C25614312   4.734   4.708   3.772 -0.5372  0.2757  0.1242
   29MOL   C25714313   4.666   4.691   3.637 -0.2090  0.4253  0.3969
   29MOL   C25814314   4.650   4.554   3.570 -0.7630 -0.3056  0.0629
   29MOL   C25914315   4.565   4.443   3.635 -0.0396  0.1735 -0.3269
   29MOL   C26014316   4.542   4.322   3.545 -1.0228 -0.0800 -0.3980
   29MOL   H26114317   4.600   4.887   4.145 -0.5618 -0.0715  1.4221
   29MOL   H26214318   4.542   4.977   4.018  1.2509 -2.2947 -0.1563
   29MOL   H26314319   4.777   5.055   3.959 -2.1772 -2.4953 -3.4681
   29MOL   H26414320   4.749   4.930   3.760  1.3333 -0.6400 -0.7196
   29MOL   H26514321   4.604   4.870   3.840  0.0474 -2.1515  0.5613
   29MOL   H26614322   4.688   4.633   3.837  2.2049 -0.5375  1.1664
   29MOL   H26714323   4.842   4.696   3.768 -0.5860  0.4604 -3.3322
   29MOL   H26814324   4.565   4.730   3.646  0.0081  1.2696 -0.7576
   29MOL   H26914325   4.712   4.754   3.561 -0.7891 -1.1608 -1.3105
   29MOL   H27014326   4.618   4.558   3.466 -0.6037 -1.9373 -0.0692
   29MOL   H27114327   4.754   4.521   3.563 -0.5985 -0.5216  2.6658
   29MOL   H27214328   4.616   4.420   3.729  0.6754  2.7211 -0.0485
   29MOL   H27314329   4.469   4.487   3.659 -0.1629 -0.2103 -0.1104
   29MOL   H27414330   4.630   4.262   3.519  0.0703  1.2696  0.1188
   29MOL   H27514331   4.466   4.256   3.586 -0.2299 -1.5427 -1.2659
   29MOL   H27614332   4.502   4.358   3.451 -0.6885 -0.2115 -0.5928
   29MOL   C27714333   4.872   4.958   4.141  0.1025 -0.2506  0.0020
   29MOL   C27814334   5.018   4.950   4.103  0.0396  0.1702 -0.2812
   29MOL   O27914335   5.029   5.028   3.990 -0.2037 -0.7775 -0.0595
   29MOL   C28014336   5.145   4.996   3.912 -0.1142  0.0440  0.3594
   29MOL   C28114337   5.100   5.048   3.778 -0.2764  0.0840  0.9268
   29MOL   C28214338   5.222   5.070   3.679 -0.3697 -0.8679 -0.1814
   29MOL   C28314339   5.194   5.154   3.558  0.7822  0.1428  0.6998
   29MOL   C28414340   5.306   5.170   3.451  0.0231  0.1080  0.2054
   29MOL   C28514341   5.270   5.259   3.327 -0.6563 -0.7589  0.4367
   29MOL   H28614342   4.859   5.047   4.202  0.1320 -0.8041  0.8236
   29MOL   H28714343   4.846   4.885   4.218  0.1283  2.8331  3.0715
   29MOL   H28814344   5.041   4.847   4.078  0.8220  0.8040 -2.2821
   29MOL   H28914345   5.180   4.892   3.910  1.1024  0.4322  0.7056
   29MOL   H29014346   5.232   5.057   3.938  0.6665 -0.2133 -1.5424
   29MOL   H29114347   5.041   5.140   3.783  0.3203  0.4732  0.9082
   29MOL   H29214348   5.032   4.978   3.729 -0.4862  1.2868 -0.5195
   29MOL   H29314349   5.308   5.105   3.737 -0.9483 -1.6189  1.1333
   29MOL   H29414350   5.256   4.975   3.638  1.3039 -0.9936  1.4151
   29MOL   H29514351   5.108   5.103   3.515  0.4451 -0.9022  2.5351
   29MOL   H29614352   5.165   5.257   3.583  3.1808  1.0456 -0.1426
   29MOL   H29714353   5.398   5.207   3.496  1.0169 -1.5453 -0.4255
   29MOL   H29814354   5.326   5.072   3.407 -4.6346 -1.4914  1.3715
   29MOL   H29914355   5.352   5.278   3.258 -2.9680 -0.1576 -2.2177
   29MOL   H30014356   5.216   5.197   3.256 -2.4495  1.0250  0.2364
   29MOL   H30114357   5.224   5.356   3.346  1.6858  0.2627  1.0685
   29MOL   C30214358   5.123   5.008   4.212 -0.4820 -0.3185  0.1219
   29MOL   C30314359   5.138   4.930   4.347 -0.0567  0.4789 -0.3473
   29MOL   O30414360   5.014   4.914   4.410  0.2302  0.1477 -0.5910
   29MOL   C30514361   4.992   4.802   4.492  0.1026 -0.2616  0.0050
   29MOL   C30614362   4.840   4.819   4.533 -0.4012  0.0288  0.2026
   29MOL   C30714363   4.814   4.938   4.632  0.4679  0.2160 -0.9299
   29MOL   C30814364   4.672   4.917   4.698 -0.4221  0.4117  0.3506
   29MOL   C30914365   4.656   5.020   4.816  0.0252 -0.5556  0.2914
   29MOL   C31014366   4.516   5.011   4.881  0.4952  0.3942 -0.2058
   29MOL   H31114367   5.225   5.009   4.175 -0.4043 -0.6747  0.3258
   29MOL   H31214368   5.103   5.115   4.226 -1.4482 -0.2927 -1.2768
   29MOL   H31314369   5.171   4.830   4.317  1.8429  1.2165 -0.7654
   29MOL   H31414370   5.058   4.808   4.578  1.5830 -1.2252 -1.0481
   29MOL   H31514371   5.004   4.707   4.440  1.4613  0.3251 -0.7860
   29MOL   H31614372   4.813   4.725   4.582 -0.6558 -0.0177 -0.0277
   29MOL   H31714373   4.778   4.824   4.444 -1.2735 -1.1505  0.7314
   29MOL   H31814374   4.880   4.932   4.718  0.0025 -2.0145 -0.7051
   29MOL   H31914375   4.808   5.032   4.577  0.2791  0.1970 -0.9449
   29MOL   H32014376   4.594   4.933   4.623  0.0759 -0.2299 -0.3093
   29MOL   H32114377   4.655   4.816   4.737  1.0570  0.4347  1.0790
   29MOL   H32214378   4.734   4.996   4.888  1.6296  0.2847 -1.1301
   29MOL   H32314379   4.669   5.118   4.770 -0.2445 -0.1551  1.0639
   29MOL   H32414380   4.495   5.077   4.966  0.6458  0.5056 -0.2555
   29MOL   H32514381   4.430   5.018   4.814  0.5064  1.2425 -0.1391
   29MOL   H32614382   4.505   4.908   4.915 -0.1282  0.9157  1.2658
   29MOL   C32714383   5.237   4.985   4.450 -1.1863 -0.0959  0.4416
   29MOL   C32814384   5.389   4.960   4.421  0.2303 -0.6910 -0.4226
   29MOL   O32914385   5.425   5.041   4.303  0.1827  0.6179 -0.3671
   29MOL   C33014386   5.428   5.189   4.316 -0.2170  0.0235 -0.3662
   29MOL   C33114387   5.460   5.268   4.179  0.5325 -0.4131  0.1075
   29MOL   C33214388   5.330   5.293   4.105  0.0014 -0.3961 -0.1605
   29MOL   C33314389   5.333   5.415   4.016  0.7419 -0.3906  0.6681
   29MOL   C33414390   5.216   5.422   3.910 -0.0077  0.8365 -0.1304
   29MOL   C33514391   5.225   5.545   3.820 -0.3773 -0.0255  0.6057
   29MOL   H33614392   5.211   4.938   4.544 -1.5548 -0.9091 -0.0588
   29MOL   H33714393   5.205   5.087   4.472 -1.1554  0.4639 -1.9547
   29MOL   H33814394   5.392   4.853   4.402 -1.1086 -1.1371  1.7047
   29MOL   H33914395   5.516   5.217   4.375  0.0550  0.5751 -1.0171
   29MOL   H34014396   5.340   5.227   4.367  1.3882 -0.6593  3.0318
   29MOL   H34114397   5.533   5.216   4.117 -1.6064 -3.3960  0.0060
   29MOL   H34214398   5.513   5.361   4.202  0.1748 -0.7716  2.6037
   29MOL   H34314399   5.304   5.208   4.042 -0.8072  0.4952 -1.0574
   29MOL   H34414400   5.249   5.317   4.173  0.4479 -0.4402  0.3939
   29MOL   H34514401   5.318   5.500   4.082  3.6943  2.3423 -2.0238
   29MOL   H34614402   5.424   5.433   3.959  0.2718 -0.2100 -0.0396
   29MOL   H34714403   5.222   5.333   3.846 -0.6589  1.7295 -1.4703
   29MOL   H34814404   5.121   5.422   3.964 -0.0368 -1.7285 -0.0975
   29MOL   H34914405   5.199   5.623   3.891 -1.5239  0.1709 -0.0125
   29MOL   H35014406   5.327   5.565   3.786 -0.6936  1.0837  0.3070
   29MOL   H35114407   5.151   5.538   3.740 -0.2765 -0.5487  0.5536
   29MOL   C35214408   5.476   4.985   4.545 -0.0219 -0.5474  0.0890
   29MOL   C35314409   5.628   4.988   4.538  0.5242 -0.2753  0.4495
   29MOL   O35414410   5.671   4.857   4.498  0.4336  0.1555  0.4272
   29MOL   C35514411   5.767   4.849   4.392 -0.4112 -0.3117 -0.0539
   29MOL   C35614412   5.785   4.701   4.362 -0.5569  0.1931 -0.3299
   29MOL   C35714413   5.651   4.638   4.329  0.1177  0.5419 -0.0864
   29MOL   C35814414   5.661   4.489   4.287  0.3874  0.1285  0.1987
   29MOL   C35914415   5.725   4.473   4.155 -0.4781 -0.5150 -0.4237
   29MOL   C36014416   5.821   4.361   4.123 -0.2396 -0.0621  0.0782
   29MOL   H36114417   5.447   5.085   4.576 -0.9272 -0.6334 -0.4660
   29MOL   H36214418   5.430   4.922   4.621  0.2593  3.0459  3.4190
   29MOL   H36314419   5.659   5.062   4.465 -0.5267 -0.3409 -0.0822
   29MOL   H36414420   5.867   4.879   4.425  0.5823 -2.0438 -1.4048
   29MOL   H36514421   5.745   4.904   4.300 -0.1441  1.3989  0.8800
   29MOL   H36614422   5.820   4.651   4.452  0.8613 -0.6869 -1.3516
   29MOL   H36714423   5.864   4.683   4.289 -0.2222 -0.9729  0.3119
   29MOL   H36814424   5.583   4.651   4.414  0.3918  1.1418  0.0440
   29MOL   H36914425   5.612   4.695   4.245 -0.0014 -0.4691 -0.7292
   29MOL   H37014426   5.732   4.455   4.363 -0.0769 -3.4778 -0.9180
   29MOL   H37114427   5.564   4.439   4.293  0.2719  0.4484  1.1592
   29MOL   H37214428   5.643   4.449   4.088 -0.3533 -0.8720 -0.4489
   29MOL   H37314429   5.773   4.559   4.108  1.7709 -2.4213 -1.6630
   29MOL   H37414430   5.909   4.350   4.187  0.7861 -1.6312 -1.5376
   29MOL   H37514431   5.763   4.269   4.119  0.0070 -0.1581 -2.9045
   29MOL   H37614432   5.850   4.371   4.018 -0.2285  1.2266  0.1963
   29MOL   C37714433   5.691   5.029   4.671 -0.3486 -0.6874 -0.8415
   29MOL   C37814434   5.660   5.171   4.734  0.1896 -0.0558  0.1784
   29MOL   O37914435   5.664   5.270   4.631 -0.2436 -0.0605 -0.2004
   29MOL   C38014436   5.797   5.311   4.595  0.1546 -0.1514  0.9903
   29MOL   C38114437   5.796   5.398   4.471  0.2288  0.4535 -0.0036
   29MOL   C38214438   5.755   5.538   4.501  0.3844  0.2744 -0.3355
   29MOL   C38314439   5.758   5.633   4.382 -0.1771 -0.4185  0.1305
   29MOL   C38414440   5.659   5.596   4.276 -0.2926  0.3894 -0.7500
   29MOL   C38514441   5.674   5.694   4.161  0.3440 -0.6498 -0.4327
   29MOL   H38614442   5.665   4.951   4.742 -1.7312 -0.4858 -1.1234
   29MOL   H38714443   5.799   5.021   4.656 -0.1679  1.4130 -0.7440
   29MOL   H38814444   5.553   5.161   4.747  0.2544  1.4237  2.1090
   29MOL   H38914445   5.866   5.227   4.583 -1.1786 -1.1409  0.0851
   29MOL   H39014446   5.851   5.360   4.676  1.6254 -0.1380  0.0179
   29MOL   H39114447   5.744   5.349   4.389 -0.5725 -0.9184  1.3070
   29MOL   H39214448   5.898   5.404   4.435  0.3233  0.7652  0.3140
   29MOL   H39314449   5.653   5.543   4.540  0.2690 -0.1379 -0.5836
   29MOL   H39414450   5.819   5.571   4.583  0.0128  0.0430  0.0495
   29MOL   H39514451   5.725   5.732   4.414  2.2425  0.2687  0.6393
   29MOL   H39614452   5.863   5.637   4.353 -0.2118 -0.8527 -0.0454
   29MOL   H39714453   5.676   5.498   4.232 -0.6380  0.5045 -1.1460
   29MOL   H39814454   5.555   5.591   4.310  0.0466  1.2370  0.4422
   29MOL   H39914455   5.626   5.790   4.179  1.0505 -0.1293 -1.3201
   29MOL   H40014456   5.776   5.729   4.149  0.9154 -0.6616  3.5641
   29MOL   H40114457   5.625   5.658   4.071  1.2194 -1.6429 -0.5178
   29MOL   C40214458   5.741   5.213   4.867  0.2943  0.1975  0.1485
   29MOL   C40314459   5.683   5.339   4.940  0.5220  0.4208  0.3557
   29MOL   O40414460   5.725   5.343   5.079  0.0030 -0.2163 -0.1426
   29MOL   C40514461   5.861   5.365   5.098 -0.2184  0.4185  0.3347
   29MOL   C40614462   5.884   5.468   5.211 -0.3942 -1.2086 -0.5540
   29MOL   C40714463   5.831   5.427   5.353 -0.5927  0.6740  0.3288
   29MOL   C40814464   5.907   5.309   5.409 -0.1587  0.3876  0.2877
   29MOL   C40914465   5.895   5.311   5.557 -0.1121 -0.1721 -0.2976
   29MOL   C41014466   5.937   5.179   5.620  0.2465  0.1116  0.4091
   29MOL   H41114467   5.847   5.218   4.845  0.5114 -2.3575  0.5037
   29MOL   H41214468   5.713   5.126   4.926 -0.4095  0.4738  0.2368
   29MOL   H41314469   5.715   5.433   4.894 -0.4117  1.3990  1.6413
   29MOL   H41414470   5.909   5.393   5.005  0.5520 -0.5187  0.4309
   29MOL   H41514471   5.910   5.272   5.129 -0.3511  0.4432  0.6152
   29MOL   H41614472   5.838   5.559   5.174 -0.0007 -0.4975  0.6677
   29MOL   H41714473   5.991   5.489   5.218 -0.6017  0.4362 -1.9199
   29MOL   H41814474   5.844   5.508   5.425  0.1902 -1.8280  3.1045
   29MOL   H41914475   5.723   5.414   5.348 -0.5744  0.6946 -0.1569
   29MOL   H42014476   5.879   5.212   5.367  1.2111 -1.0697  2.6683
   29MOL   H42114477   6.012   5.317   5.384  0.6350  0.4677  3.4208
   29MOL   H42214478   5.967   5.386   5.590  5.1137 -3.3419 -3.8321
   29MOL   H42314479   5.800   5.345   5.599  0.5565 -0.2373  1.2845
   29MOL   H42414480   5.900   5.178   5.723 -1.4077 -0.5684 -0.1736
   29MOL   H42514481   5.895   5.094   5.568  1.1780  0.2530 -0.5724
   29MOL   H42614482   6.044   5.161   5.620  0.2170 -0.1884  2.2338
   29MOL   C42714483   5.530   5.352   4.938  0.2039 -0.2245 -0.2453
   29MOL   C42814484   5.465   5.468   5.019 -0.1261  0.2879  0.2750
   29MOL   O42914485   5.488   5.586   4.944  0.6795  0.2921 -0.2916
   29MOL   C43014486   5.571   5.680   5.006  0.0877 -0.0280 -0.2848
   29MOL   C43114487   5.586   5.808   4.931 -0.4473 -0.3647  0.0925
   29MOL   C43214488   5.453   5.890   4.942  0.3626 -0.3715  0.5874
   29MOL   C43314489   5.469   6.026   4.872 -0.1596  0.2570  0.3314
   29MOL   C43414490   5.333   6.104   4.850 -0.7955  0.4120  0.3586
   29MOL   C43514491   5.358   6.227   4.759  0.0283  0.3649  0.1393
   29MOL   H43614492   5.503   5.360   4.832 -1.6307 -0.3544  0.1937
   29MOL   H43714493   5.499   5.251   4.961  0.1122 -0.3216 -0.7857
   29MOL   H43814494   5.505   5.465   5.120  2.7694 -3.0114 -0.8636
   29MOL   H43914495   5.668   5.631   5.014 -0.1528 -0.9330 -2.5319
   29MOL   H44014496   5.522   5.702   5.101  0.8883  1.0176 -0.0992
   29MOL   H44114497   5.620   5.782   4.831 -0.7677 -2.0786  0.4188
   29MOL   H44214498   5.666   5.866   4.977 -0.7395 -1.4860  2.0601
   29MOL   H44314499   5.377   5.822   4.903 -0.1047 -1.5345  3.4207
   29MOL   H44414500   5.432   5.902   5.048  1.3071  1.5191  0.5870
   29MOL   H44514501   5.548   6.091   4.911 -2.4306  1.5640  2.9327
   29MOL   H44614502   5.510   5.997   4.776  0.0007  1.3932  0.0546
   29MOL   H44714503   5.247   6.043   4.824 -1.4766  1.5197 -0.0202
   29MOL   H44814504   5.308   6.145   4.948 -1.2844 -1.2226  0.9284
   29MOL   H44914505   5.260   6.276   4.760  0.1334  0.5702  1.4842
   29MOL   H45014506   5.437   6.298   4.782 -1.6647  2.4716 -0.2853
   29MOL   H45114507   5.371   6.194   4.656  0.1260 -1.2163  0.6454
   29MOL   C45214508   5.313   5.446   5.015 -0.0146 -0.3703 -0.2325
   29MOL   C45314509   5.229   5.543   5.096  0.4564  0.5066 -0.1691
   29MOL   O45414510   5.237   5.524   5.236 -0.6182 -0.0212  0.2050
   29MOL   C45514511   5.323   5.608   5.309 -0.2094  1.2744  0.5823
   29MOL   C45614512   5.298   5.575   5.461  0.2154  0.5554  0.6647
   29MOL   C45714513   5.400   5.652   5.549  0.0376 -0.0735 -0.5843
   29MOL   C45814514   5.394   5.632   5.700 -0.0212 -0.1744  0.2357
   29MOL   C45914515   5.525   5.650   5.776 -0.1070 -0.3421 -0.1085
   29MOL   C46014516   5.500   5.664   5.930 -0.5388 -0.1537 -0.7551
   29MOL   H46114517   5.289   5.450   4.909 -1.8488  0.0210  0.1916
   29MOL   H46214518   5.290   5.346   5.052  3.6499 -0.7986  1.1591
   29MOL   H46314519   5.259   5.642   5.062  0.3254  0.1987 -1.2255
   29MOL   H46414520   5.308   5.716   5.296 -1.8519  0.9073 -0.7938
   29MOL   H46514521   5.424   5.583   5.279 -0.4979 -1.1829  1.5884
   29MOL   H46614522   5.300   5.470   5.492 -0.9700  0.7608  1.4475
   29MOL   H46714523   5.200   5.614   5.484  0.2764  2.0602 -1.4864
   29MOL   H46814524   5.503   5.631   5.521  0.2476  0.0057  0.1307
   29MOL   H46914525   5.391   5.758   5.526  1.2147 -0.0217 -0.8081
   29MOL   H47014526   5.318   5.695   5.748  0.9190 -0.4464  2.1251
   29MOL   H47114527   5.364   5.528   5.716  1.8551 -0.6906  0.4753
   29MOL   H47214528   5.600   5.575   5.753 -0.3261 -0.8053  0.6971
   29MOL   H47314529   5.563   5.748   5.745 -0.2498 -0.5428 -0.9398
   29MOL   H47414530   5.448   5.751   5.968  0.4026 -0.7112  1.9060
   29MOL   H47514531   5.454   5.578   5.980 -0.0906 -0.6083 -1.1124
   29MOL   H47614532   5.593   5.681   5.984 -0.6398  0.0025 -0.6316
   29MOL   C47714533   5.083   5.519   5.065  0.0943  0.2181 -0.1887
   29MOL   C47814534   5.045   5.564   4.924  0.7946  0.1349  0.2935
   29MOL   O47914535   4.908   5.581   4.915  0.2404  0.3114  0.0107
   29MOL   C48014536   4.862   5.592   4.776 -0.4935 -0.2552 -0.8580
   29MOL   C48114537   4.714   5.597   4.771 -0.1115 -0.2791 -0.2173
   29MOL   C48214538   4.644   5.458   4.775 -0.1040 -0.5862 -0.4122
   29MOL   C48314539   4.488   5.465   4.753  0.2032  0.3620  0.3156
   29MOL   C48414540   4.418   5.338   4.794  0.5761 -0.1361 -0.1807
   29MOL   C48514541   4.265   5.351   4.803  0.7869 -0.1816 -0.4973
   29MOL   H48614542   5.057   5.417   5.095  0.7924 -0.6432 -2.4055
   29MOL   H48714543   5.026   5.585   5.130 -0.2497 -0.6109  0.3591
   29MOL   H48814544   5.108   5.648   4.894  0.3665  0.2622 -0.2590
   29MOL   H48914545   4.893   5.514   4.707  0.0700 -1.0526  0.2836
   29MOL   H49014546   4.905   5.689   4.749 -2.5877  0.6249 -1.1740
   29MOL   H49114547   4.687   5.655   4.683 -1.6923 -2.8280 -1.4877
   29MOL   H49214548   4.673   5.659   4.850 -1.9817 -1.1236 -0.4801
   29MOL   H49314549   4.694   5.389   4.707 -0.1343 -1.8302  0.8047
   29MOL   H49414550   4.659   5.428   4.879 -0.1055 -0.7654 -0.4633
   29MOL   H49514551   4.443   5.541   4.818  2.5778  3.3315 -1.3468
   29MOL   H49614552   4.472   5.492   4.649  0.3793 -2.2420 -0.4198
   29MOL   H49714553   4.447   5.259   4.725  0.0341 -1.4729  1.0877
   29MOL   H49814554   4.463   5.308   4.889 -0.0944 -2.2064 -0.4795
   29MOL   H49914555   4.242   5.407   4.894  2.3019 -1.5047  0.7121
   29MOL   H50014556   4.225   5.415   4.725  1.9803  1.3649  0.1260
   29MOL   H50114557   4.216   5.254   4.802 -0.5984  0.5175 -2.4152
   29MOL   H50214558   5.061   5.483   4.852 -0.2364  0.3937 -0.2402
   30MOL     C114559   2.584   3.541   2.168 -0.1014  0.9555 -0.0645
   30MOL     C214560   2.454   3.454   2.184 -0.3125 -0.1620 -0.0962
   30MOL     O314561   2.457   3.344   2.103 -0.1812  0.5902 -0.1439
   30MOL     C414562   2.537   3.240   2.148 -0.3647  0.5467  0.6406
   30MOL     C514563   2.543   3.146   2.030  0.0838 -0.3303  0.1907
   30MOL     C614564   2.411   3.085   1.990  0.4534  0.0915  0.0178
   30MOL     C714565   2.416   2.979   1.877 -0.3273 -0.0611 -0.0704
   30MOL     C814566   2.272   2.943   1.828 -0.8014 -0.3528 -0.1074
   30MOL     C914567   2.262   2.823   1.733 -0.1774 -0.5091  0.4703
   30MOL    H1014568   2.607   3.554   2.062 -0.1545 -0.6436 -0.2843
   30MOL    H1114569   2.581   3.643   2.206  0.4074  0.9391  0.0243
   30MOL    H1214570   2.441   3.427   2.289 -0.9843 -0.7230 -0.3152
   30MOL    H1314571   2.496   3.204   2.242  1.7668  2.0287  2.1903
   30MOL    H1414572   2.638   3.275   2.169 -0.7644  3.3045 -1.6824
   30MOL    H1514573   2.608   3.062   2.056  0.7408  0.3804  0.8846
   30MOL    H1614574   2.570   3.189   1.934  2.4365  1.3041  1.5317
   30MOL    H1714575   2.369   3.039   2.080  1.2633  1.1477  0.9496
   30MOL    H1814576   2.338   3.164   1.975 -2.2299 -2.4574 -0.7729
   30MOL    H1914577   2.478   3.026   1.801 -0.4265  1.8249  0.9952
   30MOL    H2014578   2.455   2.886   1.919 -0.3515 -0.3057 -0.5727
   30MOL    H2114579   2.230   3.029   1.775 -0.5292 -0.2387 -0.1388
   30MOL    H2214580   2.210   2.929   1.917 -0.2815 -1.8328  0.0348
   30MOL    H2314581   2.160   2.813   1.696  0.3160  0.1637 -1.0808
   30MOL    H2414582   2.327   2.843   1.648 -2.4243  0.5617 -1.0417
   30MOL    H2514583   2.303   2.732   1.778 -0.1117 -0.3739  0.6858
   30MOL    H2614584   2.666   3.487   2.216 -0.9763 -0.5996 -0.2940
   30MOL    C2714585   2.342   3.546   2.142  0.0528 -0.0674  0.3039
   30MOL    C2814586   2.203   3.489   2.156 -0.1766 -0.2304  0.5265
   30MOL    O2914587   2.180   3.487   2.301 -0.1452 -0.3893 -0.1867
   30MOL    C3014588   2.142   3.361   2.363 -0.2208  0.1691  0.4859
   30MOL    C3114589   2.133   3.371   2.516 -0.3942  0.0993 -0.3826
   30MOL    C3214590   2.135   3.230   2.591  0.0452  0.5022  0.1884
   30MOL    C3314591   2.153   3.246   2.743  0.5048 -0.6880 -0.2433
   30MOL    C3414592   2.178   3.115   2.822 -0.0708  0.0582 -0.4766
   30MOL    C3514593   2.172   3.127   2.974  0.6766  0.1984  0.3900
   30MOL    H3614594   2.347   3.638   2.200 -0.7027 -0.4990  1.0704
   30MOL    H3714595   2.363   3.594   2.046 -1.1386  0.4233  0.2795
   30MOL    H3814596   2.197   3.388   2.117 -2.0082  0.1317 -0.1904
   30MOL    H3914597   2.224   3.290   2.355 -0.4061  0.2422 -3.0831
   30MOL    H4014598   2.057   3.315   2.312 -0.5005 -0.8034  1.8057
   30MOL    H4114599   2.047   3.432   2.545  0.2200  0.7834  0.0111
   30MOL    H4214600   2.210   3.436   2.557 -1.8467  2.1303 -0.7925
   30MOL    H4314601   2.049   3.172   2.558  1.1357  0.1100 -2.0632
   30MOL    H4414602   2.219   3.176   2.547 -0.1828 -0.6624  1.1240
   30MOL    H4514603   2.234   3.316   2.760  0.5272 -0.7886  0.0760
   30MOL    H4614604   2.061   3.296   2.773  0.1240 -1.0953 -0.7221
   30MOL    H4714605   2.106   3.048   2.776 -0.6652  0.3650 -0.0061
   30MOL    H4814606   2.275   3.077   2.790 -0.7700 -1.9030 -0.3646
   30MOL    H4914607   2.181   3.035   3.032  2.8456  1.8986  2.8571
   30MOL    H5014608   2.256   3.194   2.995  1.3436 -0.6509  0.4607
   30MOL    H5114609   2.082   3.176   3.009  0.4860  1.5568 -1.8601
   30MOL    C5214610   2.105   3.578   2.083 -0.3208  0.3540 -0.2340
   30MOL    C5314611   2.078   3.541   1.935  0.0665 -0.3990  0.8193
   30MOL    O5414612   2.006   3.423   1.954 -0.4197  0.3907  0.3151
   30MOL    C5514613   2.048   3.324   1.860 -0.2087  0.0320 -0.1222
   30MOL    C5614614   1.974   3.193   1.880 -0.5360 -0.1992 -0.7252
   30MOL    C5714615   1.984   3.145   2.024 -0.1313 -0.3680 -0.3158
   30MOL    C5814616   1.902   3.029   2.083 -0.3018 -0.1601  0.0343
   30MOL    C5914617   1.940   3.015   2.229 -0.4292 -0.3186 -0.0224
   30MOL    C6014618   1.880   2.887   2.293  0.1680 -0.2701 -0.2583
   30MOL    H6114619   2.141   3.681   2.094  0.0613  0.1008  0.9971
   30MOL    H6214620   2.007   3.571   2.130  0.4123 -0.9474  1.1395
   30MOL    H6314621   2.170   3.530   1.877  0.8435  2.5543  1.3885
   30MOL    H6414622   2.154   3.304   1.876 -0.8053 -0.1057  4.3167
   30MOL    H6514623   2.033   3.358   1.758  1.5157 -0.7720 -0.6673
   30MOL    H6614624   2.028   3.121   1.817 -2.8176 -3.0368  0.4535
   30MOL    H6714625   1.875   3.218   1.842 -0.1799  0.9666 -0.8969
   30MOL    H6814626   2.091   3.134   2.043 -0.1099  2.1473  1.2675
   30MOL    H6914627   1.972   3.229   2.093 -3.0067 -1.6611  0.8513
   30MOL    H7014628   1.796   3.053   2.070 -0.4709 -0.8975  0.0473
   30MOL    H7114629   1.919   2.936   2.028 -2.2463  0.8067 -2.2911
   30MOL    H7214630   2.047   2.998   2.242  0.1960  0.4173 -3.5228
   30MOL    H7314631   1.924   3.107   2.283  1.0868  0.9656 -1.6642
   30MOL    H7414632   1.922   2.790   2.266  1.6689  0.6265 -1.1946
   30MOL    H7514633   1.892   2.898   2.401  1.5284 -3.6563  0.0178
   30MOL    H7614634   1.773   2.872   2.277  0.2887 -0.8358 -0.5562
   30MOL    C7714635   1.994   3.645   1.863  0.1312  0.3065  0.2741
   30MOL    C7814636   2.028   3.660   1.709 -0.4456  0.2650  0.1012
   30MOL    O7914637   2.139   3.742   1.695  0.8138  0.4768  0.1912
   30MOL    C8014638   2.215   3.731   1.572  0.3172 -0.2767  0.2913
   30MOL    C8114639   2.322   3.841   1.559  0.0909  0.5332 -0.1343
   30MOL    C8214640   2.435   3.816   1.665 -0.2182 -0.3514  0.3556
   30MOL    C8314641   2.543   3.918   1.638 -0.2004 -0.1839 -0.5536
   30MOL    C8414642   2.654   3.888   1.734 -0.2206  0.0278 -0.4146
   30MOL    C8514643   2.750   4.007   1.725 -0.0658 -0.2583 -0.0683
   30MOL    H8614644   2.005   3.741   1.914  3.1075  0.2852 -0.2395
   30MOL    H8714645   1.892   3.608   1.872  0.4181 -0.3498  0.8960
   30MOL    H8814646   2.046   3.559   1.672  0.1705  0.2876  0.3297
   30MOL    H8914647   2.152   3.752   1.485  1.1702  2.3596  0.2605
   30MOL    H9014648   2.242   3.627   1.553 -0.1670 -0.3675  0.0697
   30MOL    H9114649   2.296   3.946   1.553  0.1778  0.4884 -1.5295
   30MOL    H9214650   2.363   3.829   1.459  1.3766 -1.4095  0.5861
   30MOL    H9314651   2.379   3.828   1.757 -1.5153 -2.2901 -0.1614
   30MOL    H9414652   2.478   3.716   1.671  1.5027  0.2219 -1.4829
   30MOL    H9514653   2.573   3.916   1.533  1.0368  3.6156 -0.3580
   30MOL    H9614654   2.507   4.019   1.658  2.4142  1.2678 -2.7878
   30MOL    H9714655   2.622   3.866   1.835  3.2007 -2.0097  0.2969
   30MOL    H9814656   2.714   3.807   1.691  0.8875 -0.2861  1.6517
   30MOL    H9914657   2.743   4.059   1.630 -0.7202  0.0513  0.1491
   30MOL   H10014658   2.730   4.078   1.806  1.7559 -0.5945  0.6977
   30MOL   H10114659   2.851   3.966   1.731  1.5353  3.4201 -0.2453
   30MOL   C10214660   1.914   3.734   1.628 -0.4933  0.1750  0.8448
   30MOL   C10314661   1.783   3.660   1.607 -0.4704  0.0204  0.2983
   30MOL   O10414662   1.687   3.755   1.558  0.4479 -0.3674  0.1307
   30MOL   C10514663   1.611   3.816   1.661  0.6089 -0.3394  0.6538
   30MOL   C10614664   1.509   3.916   1.596  0.2450  0.1595 -0.0439
   30MOL   C10714665   1.570   4.011   1.495  0.5009  0.3013 -0.3846
   30MOL   C10814666   1.460   4.076   1.411 -0.1425  0.0935 -0.3888
   30MOL   C10914667   1.503   4.210   1.349 -0.1508 -0.4101 -0.0286
   30MOL   C11014668   1.507   4.320   1.456 -0.8788 -0.1301 -0.6286
   30MOL   H11114669   1.896   3.825   1.686 -0.1240  1.0443 -0.3984
   30MOL   H11214670   1.950   3.781   1.537 -0.0169  0.7899  1.3415
   30MOL   H11314671   1.740   3.613   1.695 -1.4474  3.0443  1.4713
   30MOL   H11414672   1.673   3.877   1.727  2.0156 -0.5457 -0.4562
   30MOL   H11514673   1.564   3.739   1.721  2.4702 -1.5953  0.5592
   30MOL   H11614674   1.450   3.962   1.676  0.0595  0.4805 -0.3627
   30MOL   H11714675   1.436   3.859   1.538  0.8004  0.3072 -0.9025
   30MOL   H11814676   1.634   4.078   1.553  0.9460 -0.6806  0.2952
   30MOL   H11914677   1.637   3.965   1.423  0.0526 -0.6130 -0.2363
   30MOL   H12014678   1.432   3.998   1.341 -0.4296  0.3015 -0.5043
   30MOL   H12114679   1.371   4.101   1.468  0.4517  0.5853  0.3298
   30MOL   H12214680   1.596   4.191   1.296 -1.4301 -2.2217 -1.6852
   30MOL   H12314681   1.431   4.241   1.273 -0.2017  0.6832  0.4562
   30MOL   H12414682   1.414   4.377   1.450 -1.4816 -0.9485  0.7391
   30MOL   H12514683   1.505   4.277   1.556 -0.1908 -0.5170 -0.7791
   30MOL   H12614684   1.590   4.390   1.446 -1.6949  0.7050 -1.6736
   30MOL   C12714685   1.809   3.558   1.493  0.1417  0.0231  0.2355
   30MOL   C12814686   1.678   3.483   1.457 -0.5646  0.4351  0.8129
   30MOL   O12914687   1.670   3.381   1.561  0.4928  0.3253 -0.0131
   30MOL   C13014688   1.562   3.397   1.652  0.5421 -0.1732 -0.2131
   30MOL   C13114689   1.612   3.325   1.778  0.7038 -0.2258  0.5472
   30MOL   C13214690   1.492   3.264   1.858  0.1268  0.5099  0.7219
   30MOL   C13314691   1.536   3.178   1.976 -0.0499  0.5359  0.9521
   30MOL   C13414692   1.412   3.134   2.063  0.3775 -0.0650 -0.0916
   30MOL   C13514693   1.469   3.067   2.189  0.5360 -0.6606  0.2193
   30MOL   H13614694   1.843   3.603   1.400  0.4528 -0.4461  0.1234
   30MOL   H13714695   1.883   3.484   1.523  0.0450  0.8101  2.5500
   30MOL   H13814696   1.599   3.558   1.465 -2.1252 -0.7951 -2.2196
   30MOL   H13914697   1.468   3.355   1.617 -0.6531  1.7957  0.5184
   30MOL   H14014698   1.537   3.502   1.665 -1.4217 -0.5846 -0.6376
   30MOL   H14114699   1.681   3.381   1.840  2.4203 -1.1701 -0.4469
   30MOL   H14214700   1.671   3.239   1.746 -0.5262 -0.9593  0.2174
   30MOL   H14314701   1.429   3.347   1.890 -2.3495 -1.3616  0.9431
   30MOL   H14414702   1.441   3.199   1.786  0.1865  0.5243  0.6669
   30MOL   H14514703   1.598   3.093   1.948 -2.5521 -1.0375  0.0894
   30MOL   H14614704   1.596   3.243   2.040 -0.6400  1.3085  0.7290
   30MOL   H14714705   1.337   3.209   2.091  0.5848  0.2629 -0.4007
   30MOL   H14814706   1.364   3.053   2.008 -0.6368 -1.5415  2.8506
   30MOL   H14914707   1.523   2.976   2.167  2.3774  0.4079  0.2059
   30MOL   H15014708   1.532   3.136   2.246 -0.1772  0.3362 -0.1670
   30MOL   H15114709   1.380   3.050   2.250  1.7289  0.6089  2.4203
   30MOL   C15214710   1.672   3.414   1.320  0.0746 -0.7153 -0.0629
   30MOL   C15314711   1.544   3.329   1.290 -0.8341  0.3317 -0.7289
   30MOL   O15414712   1.430   3.420   1.292  0.2196 -0.0591 -0.4005
   30MOL   C15514713   1.303   3.377   1.349  0.2577  0.0656  0.5515
   30MOL   C15614714   1.191   3.493   1.356  0.7243 -0.6136 -0.6477
   30MOL   C15714715   1.237   3.621   1.426  0.0340 -0.6903  0.3640
   30MOL   C15814716   1.124   3.722   1.467  0.3637 -0.1087 -0.3989
   30MOL   C15914717   1.150   3.853   1.543 -0.1924 -0.2687 -0.2528
   30MOL   C16014718   1.023   3.942   1.541  0.3494  0.0952 -0.3992
   30MOL   H16114719   1.683   3.493   1.247 -2.4662 -0.5847 -0.3313
   30MOL   H16214720   1.757   3.346   1.311  1.4233  0.9543 -0.0679
   30MOL   H16314721   1.533   3.256   1.370 -0.2522  1.2824  0.2277
   30MOL   H16414722   1.330   3.347   1.451  0.2135 -1.5419  0.0993
   30MOL   H16514723   1.257   3.294   1.296  2.0322  0.2652 -1.3711
   30MOL   H16614724   1.101   3.451   1.401  0.5500  1.3044  0.8728
   30MOL   H16714725   1.165   3.518   1.254 -3.3203  0.6588  0.5965
   30MOL   H16814726   1.285   3.602   1.522  1.3031  0.5577 -0.0104
   30MOL   H16914727   1.314   3.667   1.363  0.2942  0.0168  1.1827
   30MOL   H17014728   1.059   3.739   1.382  0.3603  1.2603 -0.1478
   30MOL   H17114729   1.061   3.666   1.535 -0.9548 -0.5146 -1.9373
   30MOL   H17214730   1.177   3.824   1.644  0.0906 -1.2706 -0.6081
   30MOL   H17314731   1.234   3.903   1.493 -2.6215  0.5325 -3.7484
   30MOL   H17414732   1.019   3.981   1.439 -1.3361 -2.0641 -1.1917
   30MOL   H17514733   0.929   3.888   1.552  0.7146 -0.9337 -2.0792
   30MOL   H17614734   1.030   4.031   1.604 -0.4247  0.1721 -0.4102
   30MOL   C17714735   1.556   3.255   1.153  1.5067  0.4155  0.3936
   30MOL   C17814736   1.423   3.178   1.098 -0.1232 -0.4275  0.3480
   30MOL   O17914737   1.447   3.158   0.957 -0.3524 -0.2294  0.7749
   30MOL   C18014738   1.384   3.240   0.864  0.5954 -0.4606  0.4573
   30MOL   C18114739   1.409   3.195   0.723  0.2781  0.5853 -0.3889
   30MOL   C18214740   1.396   3.047   0.692 -0.7162 -0.1771  0.4039
   30MOL   C18314741   1.430   3.002   0.547  0.4318 -0.4957 -0.2066
   30MOL   C18414742   1.321   3.059   0.454  0.2888 -0.7667 -0.4933
   30MOL   C18514743   1.334   3.016   0.307 -0.5051 -0.1375  0.3378
   30MOL   H18614744   1.584   3.321   1.071 -1.4729  0.4129 -0.6970
   30MOL   H18714745   1.642   3.189   1.149  0.2832 -1.0743 -2.0250
   30MOL   H18814746   1.327   3.229   1.102 -0.9373 -1.8954 -0.1221
   30MOL   H18914747   1.421   3.343   0.868  1.5303 -0.5747 -3.3700
   30MOL   H19014748   1.276   3.249   0.876  0.2242 -0.2639 -2.6085
   30MOL   H19114749   1.512   3.217   0.696  0.4558 -0.0947 -0.2856
   30MOL   H19214750   1.356   3.254   0.649 -0.0817 -0.1761 -0.7471
   30MOL   H19314751   1.475   3.002   0.751  0.3770  0.2508 -0.7163
   30MOL   H19414752   1.311   2.992   0.733 -1.0636  0.4587  0.5566
   30MOL   H19514753   1.527   3.043   0.519 -0.1736  2.2824  1.5745
   30MOL   H19614754   1.433   2.894   0.530  0.4209 -0.2993 -1.4730
   30MOL   H19714755   1.225   3.025   0.494  0.9369  1.2146  2.9847
   30MOL   H19814756   1.329   3.167   0.451 -0.0573 -0.7524 -0.9352
   30MOL   H19914757   1.316   2.908   0.302 -1.0700  0.0465 -2.6197
   30MOL   H20014758   1.264   3.067   0.241  0.2980  1.0597  0.4071
   30MOL   H20114759   1.434   3.037   0.267 -0.9748 -1.0397 -1.3619
   30MOL   C20214760   1.402   3.046   1.178 -0.5796  0.1554  0.1272
   30MOL   C20314761   1.276   2.965   1.145 -0.0517  0.2446 -0.4276
   30MOL   O20414762   1.167   3.048   1.178 -0.2270 -0.2170  0.4814
   30MOL   C20514763   1.069   3.062   1.079  0.4278 -0.4028  0.2226
   30MOL   C20614764   0.942   3.129   1.136  0.4548  0.5091 -0.7290
   30MOL   C20714765   0.885   3.061   1.270 -0.0787  0.1885 -0.2507
   30MOL   C20814766   0.851   2.913   1.262 -0.1946  0.8507  0.4938
   30MOL   C20914767   0.845   2.835   1.384  0.2896 -0.2322  0.8126
   30MOL   C21014768   0.816   2.685   1.358  0.6067 -0.0995 -0.3848
   30MOL   H21114769   1.487   2.981   1.161  0.1587  1.5849 -1.8681
   30MOL   H21214770   1.398   3.066   1.286 -0.4527  2.3176 -0.2509
   30MOL   H21314771   1.277   2.946   1.038  3.3102  2.2522 -0.8258
   30MOL   H21414772   1.044   2.963   1.040  0.0499  0.3993 -1.6657
   30MOL   H21514773   1.112   3.121   0.998 -0.9836 -1.8949 -1.6921
   30MOL   H21614774   0.864   3.145   1.061 -0.5240 -0.1757  0.1377
   30MOL   H21714775   0.980   3.224   1.172  2.0615 -1.6403  3.5543
   30MOL   H21814776   0.957   3.068   1.351 -0.6424  0.4529  0.2321
   30MOL   H21914777   0.803   3.124   1.305 -0.8645 -0.7791 -0.3428
   30MOL   H22014778   0.752   2.907   1.215  0.9888 -0.6148 -1.8817
   30MOL   H22114779   0.919   2.855   1.199 -0.6462  1.1643 -0.2968
   30MOL   H22214780   0.944   2.829   1.430  0.3705  0.9584  0.7923
   30MOL   H22314781   0.778   2.885   1.453 -1.6412 -1.5824 -0.0421
   30MOL   H22414782   0.712   2.669   1.328  0.6686 -1.7136  0.2057
   30MOL   H22514783   0.889   2.636   1.293 -1.1955 -0.6397 -2.0527
   30MOL   H22614784   0.826   2.630   1.452  1.2496 -1.3860 -1.1838
   30MOL   C22714785   1.265   2.832   1.225 -0.1628  0.3515  0.4074
   30MOL   C22814786   1.358   2.724   1.157  0.2693 -0.5106 -0.3594
   30MOL   O22914787   1.398   2.642   1.261  0.2350 -0.4401  0.2596
   30MOL   C23014788   1.524   2.684   1.313 -0.5538 -0.0431 -0.1962
   30MOL   C23114789   1.558   2.578   1.415  0.6490 -0.3822  0.6840
   30MOL   C23214790   1.595   2.438   1.368 -0.0196 -0.2911 -1.5411
   30MOL   C23314791   1.650   2.350   1.489 -0.2699 -0.2727 -0.1727
   30MOL   C23414792   1.541   2.313   1.598 -0.1312  0.6091 -0.4338
   30MOL   C23514793   1.601   2.218   1.695 -0.9134 -0.7153 -0.0144
   30MOL   H23614794   1.297   2.839   1.329 -2.3160  1.5691  1.0122
   30MOL   H23714795   1.165   2.791   1.241 -0.4552  1.3795  1.2811
   30MOL   H23814796   1.444   2.769   1.108 -0.1773 -0.4581 -1.1006
   30MOL   H23914797   1.523   2.784   1.357  0.8466  0.8526 -2.1731
   30MOL   H24014798   1.599   2.684   1.235  0.3515 -0.1155  0.6646
   30MOL   H24114799   1.477   2.565   1.486  2.5244  0.8112  3.1005
   30MOL   H24214800   1.638   2.613   1.480 -1.6497  3.8509  1.3883
   30MOL   H24314801   1.514   2.381   1.324  0.6581 -0.8876 -2.0357
   30MOL   H24414802   1.675   2.438   1.293  0.1270 -0.2079 -1.3872
   30MOL   H24514803   1.693   2.260   1.443 -1.6338 -1.3273  0.5734
   30MOL   H24614804   1.746   2.389   1.524 -0.0172 -1.3196  0.3403
   30MOL   H24714805   1.502   2.401   1.648  0.9169  1.5071 -1.1845
   30MOL   H24814806   1.447   2.275   1.558 -1.3168 -0.7144  3.4000
   30MOL   H24914807   1.665   2.271   1.766 -0.8305 -0.3855 -0.3347
   30MOL   H25014808   1.524   2.167   1.754 -1.9582 -1.6856 -2.1768
   30MOL   H25114809   1.660   2.133   1.660 -0.8054 -0.3475 -0.7127
   30MOL   C25214810   1.270   2.638   1.064 -0.1693  0.4690  0.5093
   30MOL   C25314811   1.346   2.529   0.980  0.7992  0.1403 -0.0123
   30MOL   O25414812   1.359   2.591   0.850 -0.3926 -0.5900 -0.6698
   30MOL   C25514813   1.481   2.593   0.781 -0.1245 -0.0180  0.0250
   30MOL   C25614814   1.447   2.629   0.634  0.0354  0.8243 -0.2522
   30MOL   C25714815   1.355   2.527   0.557 -0.3210 -0.1997  0.6277
   30MOL   C25814816   1.442   2.422   0.485 -0.0852 -0.4312  0.7457
   30MOL   C25914817   1.355   2.326   0.404 -0.4065  1.0712  0.2273
   30MOL   C26014818   1.437   2.238   0.312 -0.1066 -0.1954 -0.6225
   30MOL   H26114819   1.198   2.589   1.130  0.9218 -0.1277  1.2700
   30MOL   H26214820   1.200   2.694   1.002 -0.8546 -2.0736 -1.0823
   30MOL   H26314821   1.443   2.514   1.029  2.1117 -1.7206 -2.9912
   30MOL   H26414822   1.522   2.492   0.786  0.5557  0.2804  0.5603
   30MOL   H26514823   1.553   2.662   0.824  0.7006 -0.6583 -0.3106
   30MOL   H26614824   1.530   2.664   0.572  0.3522  0.1940 -0.1877
   30MOL   H26714825   1.388   2.720   0.641 -1.2043 -0.1307  2.2758
   30MOL   H26814826   1.277   2.477   0.615  0.8201 -2.4160  0.3038
   30MOL   H26914827   1.304   2.585   0.480 -0.5268 -1.8699 -0.5319
   30MOL   H27014828   1.519   2.473   0.427  0.0195 -0.7785  0.5726
   30MOL   H27114829   1.490   2.368   0.567 -0.1403 -0.1462  0.9644
   30MOL   H27214830   1.294   2.276   0.480  3.0791 -2.5173  0.8082
   30MOL   H27314831   1.292   2.390   0.341  0.6237  1.0851 -0.8065
   30MOL   H27414832   1.490   2.306   0.245 -0.2031  1.0590  0.5697
   30MOL   H27514833   1.509   2.179   0.369  0.0912 -0.6063 -1.2827
   30MOL   H27614834   1.367   2.183   0.249  0.9692  1.1076 -3.0278
   30MOL   C27714835   1.280   2.393   0.961 -0.7024 -0.1303 -0.4031
   30MOL   C27814836   1.290   2.308   1.086  1.0135 -0.7109  0.2809
   30MOL   O27914837   1.189   2.351   1.177 -0.0800  0.2576 -0.4107
   30MOL   C28014838   1.194   2.300   1.310  0.4505  0.1552 -0.0960
   30MOL   C28114839   1.117   2.393   1.404 -0.8326 -0.1401  0.0958
   30MOL   C28214840   1.121   2.356   1.552 -0.2147  0.4394 -0.7707
   30MOL   C28314841   1.027   2.450   1.634  0.2140  0.3984 -0.8499
   30MOL   C28414842   1.011   2.412   1.779 -0.3983 -0.1616 -0.3773
   30MOL   C28514843   0.900   2.496   1.847  0.3343  0.6785 -0.2611
   30MOL   H28614844   1.175   2.397   0.931 -0.9368  0.0380  0.4057
   30MOL   H28714845   1.344   2.348   0.885  0.7295 -0.5457  1.0244
   30MOL   H28814846   1.390   2.325   1.124  0.1484  4.1148  0.7003
   30MOL   H28914847   1.298   2.282   1.335 -0.2604  0.0910  2.9189
   30MOL   H29014848   1.136   2.208   1.316 -1.2204  1.2091  0.2605
   30MOL   H29114849   1.012   2.392   1.376 -0.6426  1.9843 -0.8114
   30MOL   H29214850   1.149   2.495   1.381 -2.7624  0.5084  0.1722
   30MOL   H29314851   1.086   2.253   1.566 -0.8666  0.7420 -0.1221
   30MOL   H29414852   1.222   2.366   1.590 -0.9643 -3.0407  2.5061
   30MOL   H29514853   1.060   2.554   1.628  0.1312  0.3912 -1.3910
   30MOL   H29614854   0.924   2.453   1.597 -0.0621 -0.0284 -0.1328
   30MOL   H29714855   0.986   2.307   1.790 -0.4322 -0.0962  0.1732
   30MOL   H29814856   1.101   2.425   1.840 -2.0373  0.0393  2.0352
   30MOL   H29914857   0.901   2.602   1.818 -0.3180  0.9509  0.7027
   30MOL   H30014858   0.802   2.459   1.817 -0.0487 -0.3281  2.1609
   30MOL   H30114859   0.906   2.491   1.956  2.3323 -2.1703 -0.4451
   30MOL   C30214860   1.273   2.155   1.052 -0.0806 -0.5550  0.0376
   30MOL   C30314861   1.329   2.052   1.152  0.6905 -0.1931  0.2782
   30MOL   O30414862   1.472   2.062   1.139 -0.4520 -0.3079  0.2459
   30MOL   C30514863   1.546   2.042   1.257  0.4522 -0.2651  0.7577
   30MOL   C30614864   1.700   2.047   1.248 -1.1900  0.8201  0.2802
   30MOL   C30714865   1.770   1.939   1.162  0.9737  0.6655 -0.6749
   30MOL   C30814866   1.774   1.802   1.232 -0.0652  0.1294 -0.0546
   30MOL   C30914867   1.846   1.694   1.153  0.0937  0.0132 -0.0096
   30MOL   C31014868   1.842   1.550   1.210 -0.0371  0.3623 -0.2444
   30MOL   H31114869   1.167   2.132   1.057 -0.2670 -0.0871 -1.4416
   30MOL   H31214870   1.304   2.131   0.950 -1.5645 -1.8492 -0.1360
   30MOL   H31314871   1.298   2.071   1.255 -0.9877  1.5815 -0.5353
   30MOL   H31414872   1.519   1.942   1.291  2.0249 -0.6667  0.8725
   30MOL   H31514873   1.510   2.112   1.332 -1.2522  0.2191 -0.4969
   30MOL   H31614874   1.743   2.049   1.349 -0.5686 -0.8270  0.0691
   30MOL   H31714875   1.734   2.141   1.206 -2.3814  0.2048 -2.0923
   30MOL   H31814876   1.722   1.928   1.065 -1.4116 -0.7168  0.6080
   30MOL   H31914877   1.868   1.984   1.143  0.6269  1.3772 -0.7707
   30MOL   H32014878   1.824   1.821   1.327  0.4637  1.1747 -0.5320
   30MOL   H32114879   1.676   1.761   1.253 -0.2638  0.8608  0.4578
   30MOL   H32214880   1.804   1.699   1.052 -1.8164  0.6680  0.7887
   30MOL   H32314881   1.947   1.732   1.156  0.5709 -1.0167 -2.0516
   30MOL   H32414882   1.749   1.503   1.179 -0.6159 -0.6207  2.8243
   30MOL   H32514883   1.930   1.495   1.176  0.6106  0.9176  0.5029
   30MOL   H32614884   1.849   1.554   1.319 -0.9285  0.5329 -0.1941
   30MOL   C32714885   1.294   1.912   1.110 -0.2859  0.2400  0.0833
   30MOL   C32814886   1.163   1.855   1.166 -0.2666 -1.1592  0.1201
   30MOL   O32914887   1.155   1.722   1.116 -0.3587  0.4609 -0.0471
   30MOL   C33014888   1.058   1.686   1.027 -0.1636  0.3251  0.1356
   30MOL   C33114889   1.068   1.541   0.993  0.1730  0.0050  0.1421
   30MOL   C33214890   1.173   1.542   0.876 -0.2017 -0.6721  0.3487
   30MOL   C33314891   1.222   1.396   0.854  0.1117  1.1170  0.4763
   30MOL   C33414892   1.331   1.381   0.748 -0.0689  0.7294  0.2194
   30MOL   C33514893   1.289   1.377   0.597  0.1307  0.3672  0.4220
   30MOL   H33614894   1.373   1.846   1.147  0.1488  0.2930 -0.7520
   30MOL   H33714895   1.289   1.895   1.003  0.1827 -1.1163  0.2689
   30MOL   H33814896   1.075   1.911   1.134  0.3399  0.0986  0.5945
   30MOL   H33914897   1.053   1.750   0.939  0.0087 -0.4319 -0.4337
   30MOL   H34014898   0.959   1.691   1.073 -1.6151 -0.5533 -2.8209
   30MOL   H34114899   0.973   1.496   0.965  0.8090 -0.7246 -0.8976
   30MOL   H34214900   1.096   1.471   1.072  1.5664  1.9460  1.4453
   30MOL   H34314901   1.123   1.587   0.790  0.5479  0.3480  0.4290
   30MOL   H34414902   1.261   1.602   0.901 -0.2090 -0.8072  0.6983
   30MOL   H34514903   1.282   1.366   0.940  0.6723 -1.1577 -0.6942
   30MOL   H34614904   1.149   1.319   0.830 -0.1457  0.9060  1.8766
   30MOL   H34714905   1.398   1.466   0.761  2.3839 -1.0130 -0.5653
   30MOL   H34814906   1.386   1.289   0.769  0.0167 -0.1301 -3.3007
   30MOL   H34914907   1.370   1.399   0.527 -0.7696 -0.0778 -0.7764
   30MOL   H35014908   1.232   1.290   0.565  1.6217 -0.3346 -0.3776
   30MOL   H35114909   1.227   1.466   0.589 -0.9904 -0.4434 -0.0339
   30MOL   C35214910   1.152   1.840   1.321 -0.0431  0.0911 -0.0401
   30MOL   C35314911   1.016   1.794   1.371  0.8060  0.6527 -0.7386
   30MOL   O35414912   1.009   1.845   1.504  0.0413 -0.1424 -0.2359
   30MOL   C35514913   0.957   1.975   1.504 -0.3699  0.1917 -0.1862
   30MOL   C35614914   0.811   1.951   1.560  0.0020 -0.0581  0.1498
   30MOL   C35714915   0.734   2.079   1.581  0.2835 -0.1186 -0.1691
   30MOL   C35814916   0.599   2.039   1.618  1.3405  0.4978 -0.4485
   30MOL   C35914917   0.491   2.146   1.640 -0.3426 -0.0667 -0.4821
   30MOL   C36014918   0.352   2.089   1.666  0.7267 -0.3657 -0.1970
   30MOL   H36114919   1.226   1.771   1.361  1.3751  0.9045 -1.2130
   30MOL   H36214920   1.177   1.939   1.359  0.7287 -0.7155  1.5998
   30MOL   H36314921   0.946   1.834   1.298  1.7298 -0.0152 -2.0050
   30MOL   H36414922   0.954   2.020   1.405  1.6772  1.9224  0.5077
   30MOL   H36514923   1.015   2.035   1.574 -0.3852  1.7279 -1.4536
   30MOL   H36614924   0.811   1.889   1.649 -2.6897 -0.5688 -0.1675
   30MOL   H36714925   0.772   1.887   1.481 -1.0403 -1.2249  1.6007
   30MOL   H36814926   0.768   2.143   1.663 -2.6499  0.4989  0.6159
   30MOL   H36914927   0.730   2.140   1.490  0.2616  0.1181 -0.0111
   30MOL   H37014928   0.557   1.980   1.536 -0.7456  1.0971  0.1549
   30MOL   H37114929   0.591   1.969   1.701 -1.2425  2.5572  1.1020
   30MOL   H37214930   0.524   2.224   1.709  2.1058 -0.6965 -0.8933
   30MOL   H37314931   0.475   2.201   1.548  0.7304  0.6709 -0.2324
   30MOL   H37414932   0.351   2.034   1.760  0.1941  0.1014  0.0731
   30MOL   H37514933   0.280   2.169   1.685  1.5984  0.2454  0.5922
   30MOL   H37614934   0.328   2.027   1.580 -1.7365  3.2869 -2.3120
   30MOL   C37714935   1.004   1.646   1.365  0.2190  0.0619 -0.0539
   30MOL   C37814936   0.866   1.594   1.407  0.1613  0.2326  0.8031
   30MOL   O37914937   0.755   1.671   1.353 -0.1546 -0.3956  0.7054
   30MOL   C38014938   0.697   1.624   1.234  0.4236 -0.0126 -0.1660
   30MOL   C38114939   0.612   1.743   1.178  0.7424 -0.6825  0.4327
   30MOL   C38214940   0.510   1.789   1.275 -0.2291  0.6533 -0.0415
   30MOL   C38314941   0.441   1.924   1.242 -0.4565  0.8662 -0.6191
   30MOL   C38414942   0.342   1.906   1.120  0.1213 -0.1277 -0.3084
   30MOL   C38514943   0.237   2.017   1.107  0.1195  0.6173 -0.3134
   30MOL   H38614944   1.024   1.610   1.264 -0.3300  0.3621 -0.2715
   30MOL   H38714945   1.083   1.605   1.429 -0.2747 -0.0322  0.5032
   30MOL   H38814946   0.859   1.490   1.373 -0.4414  0.3513  0.5620
   30MOL   H38914947   0.636   1.537   1.256  0.6643 -0.9418 -2.9960
   30MOL   H39014948   0.781   1.591   1.173 -0.9063  1.9437 -3.1585
   30MOL   H39114949   0.560   1.715   1.086 -0.0526 -1.3683  1.0900
   30MOL   H39214950   0.664   1.837   1.161 -2.3560  1.8542  4.2543
   30MOL   H39314951   0.430   1.717   1.287  0.9434 -1.1717 -2.6989
   30MOL   H39414952   0.555   1.797   1.374  0.5687 -0.9846 -0.2657
   30MOL   H39514953   0.379   1.953   1.327  0.5496  0.0593  0.4001
   30MOL   H39614954   0.514   2.004   1.226  3.3715 -2.6753 -1.6103
   30MOL   H39714955   0.408   1.914   1.034 -0.3988  0.4363 -0.6582
   30MOL   H39814956   0.306   1.804   1.111  2.5291 -0.9989 -0.5778
   30MOL   H39914957   0.281   2.115   1.091 -1.0261  1.2203  0.1290
   30MOL   H40014958   0.174   1.999   1.019  0.2547 -2.9811  0.2318
   30MOL   H40114959   0.176   2.009   1.197  0.2295  1.6434 -0.1488
   30MOL   C40214960   0.867   1.583   1.564 -0.3151  0.0625  0.4689
   30MOL   C40314961   0.755   1.501   1.626  0.1370  0.5308 -0.0648
   30MOL   O40414962   0.745   1.369   1.569 -0.0494 -0.3400  0.2198
   30MOL   C40514963   0.800   1.260   1.647  0.5824 -0.7347  0.5881
   30MOL   C40614964   0.743   1.137   1.573  0.3595  0.7168  0.6198
   30MOL   C40714965   0.778   0.996   1.622  0.1371 -0.5716  0.3172
   30MOL   C40814966   0.695   0.887   1.566  0.0467  0.5404 -0.1827
   30MOL   C40914967   0.679   0.756   1.660 -0.8057  0.0429  0.0739
   30MOL   C41014968   0.614   0.633   1.583  0.4445 -0.4141 -0.4611
   30MOL   H41114969   0.868   1.682   1.611 -1.5849  0.3238 -0.0206
   30MOL   H41214970   0.966   1.544   1.585  0.2734  1.2977  0.0064
   30MOL   H41314971   0.767   1.500   1.734 -0.1955  2.4646  0.0072
   30MOL   H41414972   0.761   1.259   1.749  3.0766 -0.6459  1.5549
   30MOL   H41514973   0.908   1.267   1.648  0.6244 -1.2545 -0.2532
   30MOL   H41614974   0.768   1.137   1.467 -0.4237  0.9761  0.4281
   30MOL   H41714975   0.634   1.145   1.571 -0.0177 -3.4696 -1.0763
   30MOL   H41814976   0.883   0.985   1.596  0.3078 -3.3937  1.8797
   30MOL   H41914977   0.767   0.997   1.731 -2.1774 -1.0060  0.1234
   30MOL   H42014978   0.594   0.927   1.551  0.3278  1.0689 -0.6625
   30MOL   H42114979   0.735   0.859   1.469 -1.3382 -0.4162 -0.5050
   30MOL   H42214980   0.779   0.734   1.697 -0.3885 -1.3583 -1.8227
   30MOL   H42314981   0.617   0.785   1.745 -1.9929 -1.1307 -0.3652
   30MOL   H42414982   0.524   0.669   1.534  1.5481  1.3889 -1.1991
   30MOL   H42514983   0.680   0.590   1.508 -1.3555 -4.1578  0.0125
   30MOL   H42614984   0.592   0.555   1.656  0.5455 -0.1245 -0.1208
   30MOL   C42714985   0.617   1.571   1.607 -0.5192 -0.2412  0.2688
   30MOL   C42814986   0.480   1.519   1.667 -0.3776  0.5600  0.3971
   30MOL   O42914987   0.472   1.540   1.807  1.1037  0.3117  0.0210
   30MOL   C43014988   0.493   1.420   1.882  0.1741  0.8541  0.1479
   30MOL   C43114989   0.479   1.457   2.027  0.4462  0.3945  0.3137
   30MOL   C43214990   0.343   1.516   2.076  0.1265  0.2843 -1.1660
   30MOL   C43314991   0.350   1.552   2.220  0.3531  0.2879 -0.7691
   30MOL   C43414992   0.402   1.444   2.320  0.7153  0.2281 -0.2383
   30MOL   C43514993   0.327   1.448   2.460 -0.2594 -0.2352 -0.3641
   30MOL   H43614994   0.623   1.676   1.634 -0.2348  0.4854 -2.5167
   30MOL   H43714995   0.607   1.566   1.499  1.7225  1.8794 -0.0897
   30MOL   H43814996   0.465   1.411   1.657 -0.0605  0.3419  2.0791
   30MOL   H43914997   0.594   1.380   1.869 -0.0143  0.3588  0.1869
   30MOL   H44014998   0.414   1.346   1.870  0.2978  0.6283  0.7300
   30MOL   H44114999   0.557   1.529   2.053  0.3319  0.7545 -0.3244
   30MOL   H44215000   0.501   1.365   2.082 -1.2526  0.6182  1.4147
   30MOL   H44315001   0.331   1.603   2.011 -2.2700  3.6917  3.5860
   30MOL   H44415002   0.257   1.454   2.052 -0.5002  0.3914  0.7263
   30MOL   H44515003   0.423   1.629   2.243 -0.7691  1.0504  0.3757
   30MOL   H44615004   0.247   1.564   2.257  0.8597 -1.6450  1.4338
   30MOL   H44715005   0.383   1.343   2.283 -0.0372  0.1085  0.4500
   30MOL   H44815006   0.509   1.457   2.335  0.3353  1.3924  1.5751
   30MOL   H44915007   0.251   1.370   2.463  1.3147 -1.7518  1.6406
   30MOL   H45015008   0.398   1.429   2.540 -2.2779 -0.9734  1.2936
   30MOL   H45115009   0.276   1.541   2.484  2.3426  1.4170 -1.0120
   30MOL   C45215010   0.358   1.591   1.604  0.9720  0.2704  0.0135
   30MOL   C45315011   0.219   1.563   1.653  0.5488  0.1059 -0.3116
   30MOL   O45415012   0.130   1.583   1.546  0.2785 -0.1780 -0.0761
   30MOL   C45515013   0.053   1.471   1.508 -0.1880 -0.0158  0.3379
   30MOL   C45615014   0.020   1.492   1.362 -0.5015  0.1486 -0.0467
   30MOL   C45715015   7.725   1.380   1.284 -0.1286 -0.4316  0.3977
   30MOL   C45815016   7.693   1.422   1.138  0.1181  0.1384  0.2985
   30MOL   C45915017   7.623   1.319   1.052 -0.2047 -0.9305  0.0407
   30MOL   C46015018   7.555   1.380   0.927  0.1602 -0.4450 -0.1293
   30MOL   H46115019   0.379   1.697   1.617 -1.6826  1.0158 -1.2997
   30MOL   H46215020   0.363   1.564   1.499 -0.1647 -1.2999  0.3386
   30MOL   H46315021   0.207   1.459   1.685  1.5840  0.1055  0.0866
   30MOL   H46415022   7.745   1.460   1.574  0.4670 -0.7126  1.0750
   30MOL   H46515023   0.107   1.376   1.506  2.5806  1.5165 -0.4597
   30MOL   H46615024   0.114   1.520   1.314  1.2716  1.9064  4.2044
   30MOL   H46715025   7.729   1.576   1.367 -0.9864 -0.3076  1.5596
   30MOL   H46815026   0.013   1.294   1.270 -0.4091 -0.6077  0.1610
   30MOL   H46915027   7.629   1.361   1.332 -1.6177  0.4361 -2.1111
   30MOL   H47015028   7.632   1.511   1.146  0.3207  0.3867 -0.9431
   30MOL   H47115029   0.002   1.455   1.080 -0.1803  0.1524 -0.1382
   30MOL   H47215030   7.695   1.242   1.022  1.4701  0.2579  0.9113
   30MOL   H47315031   7.542   1.275   1.110  0.4324  0.4322  2.0237
   30MOL   H47415032   7.513   1.299   0.869 -0.9939  0.5385 -0.6835
   30MOL   H47515033   7.479   1.456   0.945 -0.3313 -0.6815 -1.1979
   30MOL   H47615034   7.632   1.427   0.866  2.1958 -0.5896  2.2566
   30MOL   C47715035   0.183   1.663   1.765  0.5052 -0.1774  0.3712
   30MOL   C47815036   0.050   1.637   1.843 -0.2855  0.6524  0.9334
   30MOL   O47915037   0.031   1.744   1.928 -0.1732 -0.3662 -0.3444
   30MOL   C48015038   7.691   1.725   2.005 -0.7886 -0.0698 -0.3646
   30MOL   C48115039   7.670   1.856   2.086  0.1862  0.3837  0.3698
   30MOL   C48215040   7.561   1.843   2.191 -0.2080  0.3680 -0.0302
   30MOL   C48315041   7.528   1.976   2.270 -0.2553  0.2831  0.6329
   30MOL   C48415042   7.478   1.949   2.415 -0.1009 -1.0269 -0.7507
   30MOL   C48515043   7.399   2.062   2.488  0.2402  0.1196 -0.0281
   30MOL   H48615044   0.264   1.672   1.836 -0.7112  1.5453  1.5606
   30MOL   H48715045   0.184   1.763   1.723 -0.6175  0.4194  1.7378
   30MOL   H48815046   7.739   1.618   1.781  0.2607 -1.6586  0.8161
   30MOL   H48915047   7.703   1.633   2.063 -0.3126  0.6224  0.6634
   30MOL   H49015048   7.610   1.708   1.935  0.8888 -2.9531 -1.6750
   30MOL   H49115049   7.639   1.929   2.012  4.1411  0.5863 -1.2232
   30MOL   H49215050   7.760   1.903   2.125  0.9453  0.2289 -1.1698
   30MOL   H49315051   7.468   1.802   2.150  0.4156 -2.6273  1.4060
   30MOL   H49415052   7.599   1.766   2.257  0.0492 -0.5776 -1.2735
   30MOL   H49515053   7.623   2.030   2.269  0.7490 -1.4065 -1.4155
   30MOL   H49615054   7.460   2.031   2.205  0.2303 -0.3416 -0.4099
   30MOL   H49715055   7.421   1.856   2.412 -0.7319 -0.6437 -0.7832
   30MOL   H49815056   7.558   1.928   2.485  0.6847  1.8221 -0.7065
   30MOL   H49915057   7.367   2.048   2.591 -2.0813  2.3916 -0.3740
   30MOL   H50015058   7.460   2.153   2.486  0.5176 -0.0301  1.0564
   30MOL   H50115059   7.318   2.089   2.420  1.8046  0.8176 -1.6716
   30MOL   H50215060   0.062   1.544   1.899 -1.3937  0.3265  0.6525
   31MOL     C115061   4.273   1.483   6.162 -0.4538 -0.1281  0.2062
   31MOL     C215062   4.147   1.551   6.112  0.5027  0.1994  0.3221
   31MOL     O315063   4.045   1.512   6.204 -0.0368  0.0688  0.4714
   31MOL     C415064   4.040   1.610   6.312 -0.2096 -0.1743 -0.5810
   31MOL     C515065   3.975   1.540   6.432  0.3396 -0.2481 -0.2424
   31MOL     C615066   3.945   1.631   6.550 -0.0951 -0.0001  0.1284
   31MOL     C715067   3.866   1.563   6.668 -0.2937  0.0510  0.1526
   31MOL     C815068   3.830   1.653   6.785 -0.8425  0.3160  0.4183
   31MOL     C915069   3.701   1.730   6.767  0.1824  0.3845  0.0969
   31MOL    H1015070   4.309   1.520   6.258 -1.0800  2.0910 -0.3965
   31MOL    H1115071   4.258   1.375   6.167 -1.1347  0.0377  1.8915
   31MOL    H1215072   4.156   1.660   6.110 -1.8749  0.4424  0.5661
   31MOL    H1315073   3.993   1.701   6.276  0.2119  0.2351 -0.1090
   31MOL    H1415074   4.143   1.641   6.332 -0.1682  0.1361 -1.2703
   31MOL    H1515075   4.052   1.473   6.471 -1.0266 -0.5841  1.9689
   31MOL    H1615076   3.889   1.481   6.399 -0.0346  1.3518 -2.2370
   31MOL    H1715077   4.037   1.676   6.587  0.1431  0.0305 -0.4978
   31MOL    H1815078   3.884   1.715   6.515  0.5690 -0.1986 -1.5414
   31MOL    H1915079   3.780   1.511   6.628 -1.0577  1.8427 -0.6043
   31MOL    H2015080   3.938   1.491   6.707  0.2142  0.3387 -0.2462
   31MOL    H2115081   3.911   1.717   6.820  0.0251  0.0774 -1.1013
   31MOL    H2215082   3.817   1.575   6.861  1.5401 -0.3409  0.1976
   31MOL    H2315083   3.710   1.821   6.708  4.1000 -0.9713 -1.5429
   31MOL    H2415084   3.628   1.664   6.720  0.8520 -0.2579 -0.0541
   31MOL    H2515085   3.666   1.759   6.866 -0.5760  1.2595 -0.4192
   31MOL    H2615086   4.352   1.514   6.094  1.3388 -2.7260  1.0249
   31MOL    C2715087   4.083   1.504   5.979 -0.2203  0.5587  0.1079
   31MOL    C2815088   4.151   1.560   5.854 -0.4001  0.0042 -0.3354
   31MOL    O2915089   4.238   1.462   5.810 -0.1503  0.2110  0.2904
   31MOL    C3015090   4.378   1.506   5.788  0.1679  0.1270  0.0792
   31MOL    C3115091   4.463   1.409   5.710 -0.0761 -0.2476  0.3898
   31MOL    C3215092   4.589   1.470   5.657 -0.2994  0.5026 -0.0360
   31MOL    C3315093   4.674   1.378   5.563  0.8734  0.4099  0.0649
   31MOL    C3415094   4.805   1.456   5.523  0.3845  0.5536  0.2278
   31MOL    C3515095   4.767   1.548   5.406 -0.0873 -0.7518  0.2729
   31MOL    H3615096   4.075   1.396   5.976  0.1747  0.5181  0.5861
   31MOL    H3715097   3.981   1.543   5.979 -0.6721 -0.6120 -0.2866
   31MOL    H3815098   4.212   1.647   5.879  0.6014 -0.7954  0.0274
   31MOL    H3915099   4.430   1.533   5.880  1.6921  0.0305 -0.7332
   31MOL    H4015100   4.373   1.598   5.730 -1.2832  0.3870  0.5951
   31MOL    H4115101   4.409   1.371   5.623  2.4961 -2.4694 -0.2975
   31MOL    H4215102   4.476   1.322   5.774  0.1667 -1.4486 -1.2656
   31MOL    H4315103   4.565   1.557   5.596 -0.9382 -0.9357 -1.8891
   31MOL    H4415104   4.652   1.492   5.743  0.1305  2.2020 -0.7672
   31MOL    H4515105   4.702   1.296   5.630  2.1114  0.5696 -0.2600
   31MOL    H4615106   4.619   1.335   5.479 -1.6326 -0.2726  1.9551
   31MOL    H4715107   4.844   1.513   5.608  2.4651  1.7037 -1.4500
   31MOL    H4815108   4.885   1.389   5.491 -1.3768 -2.3556  1.7224
   31MOL    H4915109   4.744   1.482   5.323 -0.8240 -0.5079  0.2775
   31MOL    H5015110   4.679   1.609   5.431  0.7510  0.1245  1.1482
   31MOL    H5115111   4.845   1.620   5.380  0.9838 -1.2810  1.9790
   31MOL    C5215112   4.063   1.609   5.729 -0.3608 -0.4852 -0.3023
   31MOL    C5315113   3.962   1.497   5.677 -0.4593  1.0384  0.5868
   31MOL    O5415114   3.853   1.568   5.619 -0.0457  0.1750 -0.3126
   31MOL    C5515115   3.722   1.504   5.648 -0.5221 -0.3926  0.7183
   31MOL    C5615116   3.618   1.586   5.574 -0.9203 -0.3697  0.3288
   31MOL    C5715117   3.585   1.726   5.628  0.2281 -0.1707 -0.2193
   31MOL    C5815118   3.489   1.722   5.749 -0.0686 -0.3671  0.5088
   31MOL    C5915119   3.434   1.852   5.796  0.0125  0.2306 -0.7770
   31MOL    C6015120   3.313   1.840   5.889 -0.3382 -0.9382  0.3122
   31MOL    H6115121   4.135   1.629   5.649 -3.0403  1.6641 -2.3012
   31MOL    H6215122   4.012   1.696   5.770  0.0868 -0.8196  0.9606
   31MOL    H6315123   3.940   1.436   5.764 -1.9187 -1.3458 -1.3860
   31MOL    H6415124   3.714   1.500   5.757 -0.1746 -1.1485  0.7216
   31MOL    H6515125   3.720   1.397   5.626  2.4748 -0.6953  1.6185
   31MOL    H6615126   3.518   1.542   5.572 -1.1486  0.2005 -1.9822
   31MOL    H6715127   3.647   1.586   5.469 -1.8234 -0.4324  0.0754
   31MOL    H6815128   3.675   1.785   5.649 -0.5977  0.6989  0.9295
   31MOL    H6915129   3.531   1.774   5.547 -0.6459  0.4953  0.7531
   31MOL    H7015130   3.401   1.663   5.727 -1.1922  0.9795  1.2856
   31MOL    H7115131   3.529   1.671   5.837 -0.4278  0.1472  0.9730
   31MOL    H7215132   3.512   1.902   5.853 -0.4102 -0.3263  0.3090
   31MOL    H7315133   3.406   1.910   5.708 -0.4493  1.7663  0.3709
   31MOL    H7415134   3.255   1.929   5.913  0.4748 -0.9355  2.3599
   31MOL    H7515135   3.243   1.769   5.846 -1.8525  0.5970  0.2186
   31MOL    H7615136   3.328   1.798   5.988 -0.8870 -0.2636  0.6902
   31MOL    C7715137   4.026   1.413   5.563  0.1174 -0.6075 -0.2261
   31MOL    C7815138   4.064   1.492   5.435  0.4111 -0.4756 -0.1616
   31MOL    O7915139   3.995   1.424   5.326 -0.2205  0.1684 -0.1001
   31MOL    C8015140   3.932   1.503   5.227  0.3454  0.1238  0.0749
   31MOL    C8115141   3.852   1.419   5.130  0.0973  0.6494 -0.1150
   31MOL    C8215142   3.931   1.315   5.049  0.1826  0.3409 -0.7293
   31MOL    C8315143   3.876   1.296   4.917 -0.1042  0.5839 -0.2791
   31MOL    C8415144   3.921   1.172   4.838 -0.0408  0.2687  0.2632
   31MOL    C8515145   4.056   1.187   4.764 -0.2278 -1.3859 -0.1277
   31MOL    H8615146   3.956   1.338   5.527  0.3101 -0.9504  0.1103
   31MOL    H8715147   4.108   1.352   5.601  0.6333 -1.3942 -2.5387
   31MOL    H8815148   4.045   1.600   5.438  2.5016 -0.0303 -1.9313
   31MOL    H8915149   4.009   1.538   5.159  0.1830 -1.4942 -0.9654
   31MOL    H9015150   3.884   1.591   5.272 -1.9527  0.2533 -2.4697
   31MOL    H9115151   3.803   1.488   5.062 -0.0109 -1.8832 -2.6802
   31MOL    H9215152   3.765   1.370   5.175 -0.3783  0.3922 -1.2897
   31MOL    H9315153   4.033   1.354   5.045 -0.4317  1.8034 -3.5995
   31MOL    H9415154   3.931   1.220   5.103 -1.7938  1.0365  0.5211
   31MOL    H9515155   3.769   1.311   4.928 -0.1333 -0.7977  1.4652
   31MOL    H9615156   3.913   1.386   4.867  2.7388  0.1393  0.9449
   31MOL    H9715157   3.928   1.081   4.898  2.2161  0.4313  0.2990
   31MOL    H9815158   3.856   1.156   4.753  2.4866 -0.6571 -1.5597
   31MOL    H9915159   4.070   1.265   4.690  1.9901 -1.0976  0.5492
   31MOL   H10015160   4.133   1.201   4.840 -0.3840  2.6824 -0.6355
   31MOL   H10115161   4.085   1.094   4.714 -0.2187 -1.1120 -0.6321
   31MOL   C10215162   4.213   1.470   5.415  0.0401 -0.4488  0.5987
   31MOL   C10315163   4.280   1.587   5.332 -0.3230  0.2188  0.0274
   31MOL   O10415164   4.277   1.710   5.418 -0.2300 -0.1333 -0.1093
   31MOL   C10515165   4.255   1.826   5.335  0.2258  0.1183  0.2232
   31MOL   C10615166   4.226   1.944   5.422 -0.1004  0.0363  0.7546
   31MOL   C10715167   4.105   1.929   5.502  0.2878  0.8955 -0.7525
   31MOL   C10815168   4.063   2.058   5.569 -0.0105 -0.5205  0.0457
   31MOL   C10915169   3.955   2.029   5.672 -0.0520 -0.0596 -0.1140
   31MOL   C11015170   3.913   2.163   5.739  0.6302  0.5323  0.1030
   31MOL   H11115171   4.259   1.478   5.514 -0.6634  3.5883  0.6479
   31MOL   H11215172   4.240   1.375   5.368  1.0513 -0.4773  1.2228
   31MOL   H11315173   4.226   1.609   5.240  0.7974 -0.0857 -0.6997
   31MOL   H11415174   4.180   1.812   5.257 -0.1992 -1.0913  0.8379
   31MOL   H11515175   4.339   1.858   5.274 -0.7756 -0.4974 -1.5123
   31MOL   H11615176   4.221   2.022   5.345 -1.3738 -1.4674 -0.7353
   31MOL   H11715177   4.314   1.971   5.480 -0.0522 -1.7590  1.5606
   31MOL   H11815178   4.028   1.873   5.450 -0.2237 -0.5131  1.4568
   31MOL   H11915179   4.138   1.853   5.573 -0.2234  1.5056  0.1366
   31MOL   H12015180   4.147   2.115   5.610  0.6607 -2.0764  0.9072
   31MOL   H12115181   4.025   2.130   5.498  1.2842  1.1100  0.9711
   31MOL   H12215182   3.873   1.966   5.636 -0.9126 -0.2981  2.1635
   31MOL   H12315183   3.996   1.965   5.750  0.3762 -0.4726 -0.6755
   31MOL   H12415184   3.857   2.149   5.831 -1.5821  0.0873 -1.2909
   31MOL   H12515185   4.005   2.212   5.774  0.6190  1.5291 -1.2091
   31MOL   H12615186   3.859   2.244   5.690  1.7634  1.3013  0.1062
   31MOL   C12715187   4.428   1.546   5.295  0.4298 -0.5109  0.6080
   31MOL   C12815188   4.445   1.469   5.161 -0.9907  0.2688 -1.0917
   31MOL   O12915189   4.566   1.397   5.161  0.5300  0.1419 -0.0439
   31MOL   C13015190   4.560   1.252   5.172  0.0466  0.2248 -0.0670
   31MOL   C13115191   4.700   1.188   5.179  0.2601 -0.3087 -0.2338
   31MOL   C13215192   4.792   1.203   5.059  0.7081  0.6939  0.2509
   31MOL   C13315193   4.937   1.152   5.080 -0.2938 -0.0894  0.7659
   31MOL   C13415194   5.016   1.164   4.945  0.1874  0.0994 -0.8675
   31MOL   C13515195   5.153   1.094   4.958  0.0682 -0.0253  0.8944
   31MOL   H13615196   4.485   1.638   5.284 -0.4703  0.0061  0.2136
   31MOL   H13715197   4.481   1.489   5.371 -0.8725 -1.6468  0.6821
   31MOL   H13815198   4.362   1.399   5.165 -0.1355 -0.6555  2.6101
   31MOL   H13915199   4.519   1.214   5.078  1.6073 -1.6896  0.0033
   31MOL   H14015200   4.498   1.219   5.255  1.4161 -0.0838  0.8386
   31MOL   H14115201   4.693   1.080   5.195  0.5866 -0.3727 -0.5195
   31MOL   H14215202   4.756   1.223   5.266 -0.0241 -0.5217  0.0337
   31MOL   H14315203   4.738   1.154   4.978  0.0351 -0.1336  1.1892
   31MOL   H14415204   4.797   1.308   5.030  0.3722 -0.4567 -4.3318
   31MOL   H14515205   4.994   1.203   5.157  0.3896 -0.9974  0.8665
   31MOL   H14615206   4.938   1.045   5.099  1.5813 -0.3188 -0.5191
   31MOL   H14715207   4.962   1.108   4.868 -0.3840  1.0338 -1.1443
   31MOL   H14815208   5.022   1.269   4.918  1.0173  0.7256  1.6189
   31MOL   H14915209   5.141   0.988   4.980 -2.1590 -0.2348 -1.0430
   31MOL   H15015210   5.199   1.123   4.864 -1.7101  1.3307  0.4108
   31MOL   H15115211   5.206   1.143   5.039 -1.8007  0.3988  1.8888
   31MOL   C15215212   4.422   1.549   5.031 -0.5077  0.6659 -0.5673
   31MOL   C15315213   4.393   1.471   4.893  0.7878 -0.0556  0.1889
   31MOL   O15415214   4.328   1.546   4.796 -0.0932  0.0781 -0.0039
   31MOL   C15515215   4.191   1.557   4.807  0.1645  0.8928  0.7594
   31MOL   C15615216   4.135   1.626   4.681  0.4670  0.1169  0.8306
   31MOL   C15715217   3.981   1.626   4.659 -0.6908 -0.2775 -0.0734
   31MOL   C15815218   3.932   1.745   4.743 -0.4101 -0.3104 -0.0723
   31MOL   C15915219   3.784   1.772   4.737  0.3353  0.8976  0.9623
   31MOL   C16015220   3.746   1.839   4.604 -0.1614 -0.3297 -0.8692
   31MOL   H16115221   4.338   1.616   5.053 -0.9371  0.5317 -1.7437
   31MOL   H16215222   4.513   1.609   5.031 -0.2438  0.2795  0.6722
   31MOL   H16315223   4.325   1.388   4.914  0.8976  0.0230  0.8807
   31MOL   H16415224   4.154   1.612   4.893 -1.1560  3.7439 -1.5538
   31MOL   H16515225   4.146   1.458   4.810  1.0337  0.3716 -2.0834
   31MOL   H16615226   4.179   1.579   4.593  0.5689  0.1660  0.8559
   31MOL   H16715227   4.167   1.730   4.677 -2.3627  0.9931 -0.4444
   31MOL   H16815228   3.958   1.647   4.555  0.9989  1.3674 -0.1494
   31MOL   H16915229   3.939   1.530   4.688  2.0438 -0.7636  2.5850
   31MOL   H17015230   3.965   1.729   4.846  0.3221 -0.0438 -0.2687
   31MOL   H17115231   3.981   1.835   4.705 -2.5431  0.6245 -0.6921
   31MOL   H17215232   3.720   1.686   4.754  1.0589  0.0492 -0.5614
   31MOL   H17315233   3.749   1.855   4.800  2.3320  1.2823  1.6061
   31MOL   H17415234   3.788   1.939   4.591 -0.7552  0.2054  1.1139
   31MOL   H17515235   3.772   1.779   4.517 -0.2449 -1.4408 -0.1441
   31MOL   H17615236   3.639   1.862   4.608 -0.3296 -0.8062 -2.3608
   31MOL   C17715237   4.523   1.425   4.832  0.2809  0.5079 -0.3840
   31MOL   C17815238   4.520   1.322   4.721  0.0653  0.0300  0.2796
   31MOL   O17915239   4.655   1.278   4.677  0.0868  0.3447  0.3848
   31MOL   C18015240   4.729   1.360   4.590  0.8466 -0.8002  0.3697
   31MOL   C18115241   4.870   1.298   4.557 -0.2614 -0.4556 -0.1623
   31MOL   C18215242   4.864   1.161   4.487 -0.1545 -0.5006  0.4546
   31MOL   C18315243   5.001   1.115   4.450  0.8094 -0.2155  0.5289
   31MOL   C18415244   4.997   0.983   4.372  0.4984  0.3598  0.2940
   31MOL   C18515245   4.920   0.975   4.236  0.3549 -0.4390  0.1426
   31MOL   H18615246   4.582   1.510   4.798 -0.0654  0.0981 -2.0582
   31MOL   H18715247   4.579   1.372   4.910 -0.5363 -0.0521 -0.1692
   31MOL   H18815248   4.478   1.375   4.635  2.5640  0.6547 -0.6084
   31MOL   H18915249   4.745   1.450   4.649 -0.2359 -1.3514  1.5320
   31MOL   H19015250   4.667   1.386   4.504  0.8896 -0.3392  0.4762
   31MOL   H19115251   4.924   1.281   4.651  2.8040  0.6181 -1.6582
   31MOL   H19215252   4.922   1.384   4.514  1.0295  0.0523  2.3195
   31MOL   H19315253   4.823   1.100   4.568  0.5573 -0.1717  1.0656
   31MOL   H19415254   4.800   1.169   4.399  1.6738  0.8642 -0.7951
   31MOL   H19515255   5.052   1.195   4.397 -1.1871  0.3397 -0.6062
   31MOL   H19615256   5.053   1.102   4.545  1.1047  2.8497  0.8375
   31MOL   H19715257   5.097   0.946   4.348  0.5776  1.0211 -0.4028
   31MOL   H19815258   4.968   0.900   4.437  0.9333 -1.4608 -1.7754
   31MOL   H19915259   4.922   1.071   4.183  1.9319 -0.6211 -0.1583
   31MOL   H20015260   4.947   0.893   4.170 -1.6945  0.7664 -2.3073
   31MOL   H20115261   4.814   0.960   4.256  0.3575 -2.0019 -0.9309
   31MOL   C20215262   4.445   1.192   4.747  0.7180 -0.1652  0.7719
   31MOL   C20315263   4.427   1.098   4.628  0.3813  0.0968 -0.3747
   31MOL   O20415264   4.337   1.156   4.529  0.8893 -0.1950  0.5730
   31MOL   C20515265   4.394   1.172   4.401 -0.2598  0.0209  0.4223
   31MOL   C20615266   4.280   1.232   4.315  0.5820 -0.1741 -0.4979
   31MOL   C20715267   4.324   1.265   4.167  0.1494  0.1365 -0.3162
   31MOL   C20815268   4.206   1.307   4.079 -0.3516  0.4550 -0.1906
   31MOL   C20915269   4.255   1.309   3.932  0.1433  0.1057 -0.7758
   31MOL   C21015270   4.155   1.358   3.825  0.7414 -0.5309  0.6430
   31MOL   H21115271   4.489   1.150   4.838 -2.5240 -4.3970  0.5620
   31MOL   H21215272   4.339   1.217   4.762  0.7183 -0.8523  1.9882
   31MOL   H21315273   4.525   1.081   4.584  0.4107  1.4756 -0.8858
   31MOL   H21415274   4.430   1.078   4.357  0.2255  0.1595  0.5141
   31MOL   H21515275   4.482   1.237   4.405 -0.3248  0.1144  0.3266
   31MOL   H21615276   4.233   1.318   4.363 -0.8842 -0.4454 -1.4437
   31MOL   H21715277   4.213   1.146   4.321 -1.4829  1.2930 -1.7844
   31MOL   H21815278   4.395   1.347   4.162  0.6081 -0.1227  1.5634
   31MOL   H21915279   4.375   1.172   4.141 -0.3255 -0.6512  1.4517
   31MOL   H22015280   4.130   1.229   4.079  1.0820 -0.9764  0.0275
   31MOL   H22115281   4.171   1.406   4.105  1.8034  1.2417 -0.1298
   31MOL   H22215282   4.337   1.381   3.928  0.0877  0.2081 -0.0729
   31MOL   H22315283   4.287   1.208   3.907  2.0878  0.8938 -1.5606
   31MOL   H22415284   4.070   1.289   3.822 -0.9967  1.6021 -0.6561
   31MOL   H22515285   4.119   1.456   3.855  2.4864  1.0210 -2.1389
   31MOL   H22615286   4.201   1.362   3.726 -0.0029 -2.0699  0.2062
   31MOL   C22715287   4.365   0.969   4.673 -0.0006  0.4761  0.1433
   31MOL   C22815288   4.355   0.856   4.570  0.3022  0.0448 -0.9017
   31MOL   O22915289   4.485   0.803   4.560 -0.2380  0.0306  0.1667
   31MOL   C23015290   4.534   0.758   4.432 -0.2846 -0.2155 -0.6811
   31MOL   C23115291   4.684   0.727   4.454 -0.1854 -0.2167  0.2972
   31MOL   C23215292   4.718   0.599   4.537  0.3291 -0.4136  0.0541
   31MOL   C23315293   4.869   0.584   4.545 -0.2366 -0.1278 -0.5939
   31MOL   C23415294   4.925   0.659   4.666 -0.2841  0.0560 -0.0628
   31MOL   C23515295   5.068   0.608   4.690 -1.0984  0.3068 -0.5258
   31MOL   H23615296   4.414   0.932   4.764 -0.6695 -0.5841  0.0753
   31MOL   H23715297   4.273   0.986   4.729 -0.9472  1.4969 -1.6944
   31MOL   H23815298   4.326   0.901   4.475 -1.7313 -0.1010 -0.3703
   31MOL   H23915299   4.535   0.839   4.358 -0.2120 -0.3961 -0.8797
   31MOL   H24015300   4.476   0.677   4.388  0.0130 -0.8488  0.0833
   31MOL   H24115301   4.734   0.810   4.503  1.5399 -2.0416  1.7273
   31MOL   H24215302   4.730   0.721   4.355 -0.3697  1.1067  0.1176
   31MOL   H24315303   4.669   0.601   4.635 -0.0223  0.0351 -0.1294
   31MOL   H24415304   4.673   0.513   4.487  0.8057 -0.4036 -0.3929
   31MOL   H24515305   4.885   0.478   4.568 -0.4273  0.1546  0.8742
   31MOL   H24615306   4.916   0.608   4.449 -1.1090  2.8474 -0.3218
   31MOL   H24715307   4.927   0.765   4.643 -1.8994  0.2381  0.5701
   31MOL   H24815308   4.866   0.639   4.756 -0.5909  1.2038 -0.0038
   31MOL   H24915309   5.133   0.630   4.606  1.4290 -0.5517  1.1626
   31MOL   H25015310   5.110   0.665   4.772 -0.7588  2.0469 -1.8735
   31MOL   H25115311   5.076   0.503   4.718 -2.3686 -0.4253 -2.7013
   31MOL   C25215312   4.247   0.750   4.592  0.2969  0.5953 -0.0805
   31MOL   C25315313   4.100   0.791   4.570  0.2274  0.1643 -0.2947
   31MOL   O25415314   4.020   0.731   4.675 -0.4177 -0.0699 -0.2992
   31MOL   C25515315   4.012   0.809   4.790 -0.3811  0.0013  0.4022
   31MOL   C25615316   4.010   0.704   4.904 -0.7672 -0.4116 -0.5246
   31MOL   C25715317   4.138   0.622   4.925 -0.9312 -0.1062  0.1443
   31MOL   C25815318   4.148   0.555   5.059  1.1438  0.0103 -0.9408
   31MOL   C25915319   4.040   0.442   5.092 -0.2467 -0.7418 -0.0208
   31MOL   C26015320   4.055   0.320   5.003  0.0351  0.0976  0.2356
   31MOL   H26115321   4.274   0.666   4.527  2.9306  2.0353 -0.9312
   31MOL   H26215322   4.250   0.712   4.694  0.3831  2.3690  0.5988
   31MOL   H26315323   4.094   0.900   4.574 -2.8613  0.0577 -0.7501
   31MOL   H26415324   3.926   0.877   4.785 -1.9452 -1.9228  0.4218
   31MOL   H26515325   4.100   0.872   4.797  0.3431 -0.9132 -0.3172
   31MOL   H26615326   3.930   0.630   4.901  0.3204 -1.6283 -0.2706
   31MOL   H26715327   3.985   0.759   4.995  0.7505 -0.0644 -0.3013
   31MOL   H26815328   4.133   0.549   4.844 -1.9438 -1.0769  1.0679
   31MOL   H26915329   4.227   0.683   4.911 -0.9281  0.6841  3.3873
   31MOL   H27015330   4.249   0.513   5.061  0.9430 -0.6277 -3.1563
   31MOL   H27115331   4.148   0.630   5.138  1.0278 -0.0419 -0.8916
   31MOL   H27215332   4.071   0.413   5.192  0.1818  0.8781  0.3250
   31MOL   H27315333   3.939   0.480   5.107  0.1729 -0.5696  2.5506
   31MOL   H27415334   4.158   0.285   4.996  0.3195  1.1726 -1.4692
   31MOL   H27515335   3.991   0.241   5.041 -0.9694  0.0415 -1.5063
   31MOL   H27615336   4.022   0.345   4.902 -1.6242  0.0513  0.7686
   31MOL   C27715337   4.044   0.740   4.440 -0.2305  0.0289 -0.0469
   31MOL   C27815338   3.904   0.810   4.406  0.2151  0.0884  0.1389
   31MOL   O27915339   3.928   0.944   4.377 -0.7320 -0.5057 -0.1149
   31MOL   C28015340   3.820   1.037   4.378 -0.1901  0.2805 -0.1036
   31MOL   C28115341   3.890   1.177   4.374  1.0850 -0.2069 -0.6326
   31MOL   C28215342   3.791   1.297   4.383 -0.8674  0.0424  0.4700
   31MOL   C28315343   3.862   1.426   4.346 -0.1245 -0.4878  0.1223
   31MOL   C28415344   3.889   1.433   4.195  0.4693 -0.3611 -0.0046
   31MOL   C28515345   3.952   1.565   4.159  0.7618  0.3165 -0.1884
   31MOL   H28615346   4.115   0.755   4.359 -0.3129 -0.7516 -0.2730
   31MOL   H28715347   4.038   0.631   4.444  3.0327 -0.1585  0.7574
   31MOL   H28815348   3.839   0.818   4.494  1.1426 -0.1317  0.8526
   31MOL   H28915349   3.770   1.037   4.475 -0.2739 -1.4743 -0.1320
   31MOL   H29015350   3.745   1.029   4.299  1.2369  0.2641 -1.4607
   31MOL   H29115351   3.947   1.185   4.281  0.3998  1.2808 -0.9379
   31MOL   H29215352   3.963   1.177   4.455  1.2951 -0.7082 -0.8201
   31MOL   H29315353   3.701   1.277   4.325 -1.2245  1.3700  0.5535
   31MOL   H29415354   3.761   1.300   4.488  2.5346  1.6541  1.4833
   31MOL   H29515355   3.800   1.514   4.360 -0.3098 -0.5363 -0.3945
   31MOL   H29615356   3.958   1.450   4.392 -0.7114  1.5029  0.3725
   31MOL   H29715357   3.938   1.346   4.151  1.9746  0.2182  0.4766
   31MOL   H29815358   3.794   1.429   4.143 -0.0849  2.9917  0.6243
   31MOL   H29915359   3.893   1.642   4.208  1.0321 -0.5307  1.4797
   31MOL   H30015360   4.055   1.571   4.196  1.0435 -3.1020 -0.2436
   31MOL   H30115361   3.950   1.586   4.052  0.0700  0.0207 -0.2336
   31MOL   C30215362   3.837   0.750   4.280 -0.7402 -0.7636  0.7734
   31MOL   C30315363   3.793   0.601   4.289  0.1147 -0.4556  0.3454
   31MOL   O30415364   3.729   0.576   4.168  0.2136  0.1878 -0.5511
   31MOL   C30515365   3.819   0.538   4.060 -0.5852  0.1781 -0.1483
   31MOL   C30615366   3.728   0.574   3.938 -0.3268  0.2780 -0.6097
   31MOL   C30715367   3.612   0.473   3.911  0.2004 -1.4111  0.7511
   31MOL   C30815368   3.538   0.509   3.777 -1.3764 -0.0643 -0.1364
   31MOL   C30915369   3.417   0.417   3.756 -0.2123  0.2764 -0.5422
   31MOL   C31015370   3.312   0.462   3.655 -0.2921 -0.1378 -0.2222
   31MOL   H31115371   3.751   0.813   4.256 -0.1743 -0.3888 -0.3256
   31MOL   H31215372   3.906   0.762   4.196 -1.9212  0.9068  0.0036
   31MOL   H31315373   3.878   0.536   4.313 -0.5668 -1.6475 -0.4627
   31MOL   H31415374   3.845   0.432   4.064 -0.6895  0.2287  2.4064
   31MOL   H31515375   3.912   0.594   4.052  0.4527 -0.9899  3.0827
   31MOL   H31615376   3.795   0.572   3.853  2.4663  0.3406  1.4977
   31MOL   H31715377   3.694   0.675   3.962 -1.5854 -0.1388 -0.6364
   31MOL   H31815378   3.669   0.380   3.901 -0.3465 -1.6384 -0.4440
   31MOL   H31915379   3.530   0.463   3.981 -1.3972 -1.2445 -1.0600
   31MOL   H32015380   3.493   0.608   3.781 -0.2708  0.4471 -0.1997
   31MOL   H32115381   3.599   0.493   3.688  0.4739 -0.8110  1.2384
   31MOL   H32215382   3.456   0.316   3.743  0.1523  0.0227  2.2234
   31MOL   H32315383   3.350   0.403   3.840 -0.5697  0.0203 -0.8667
   31MOL   H32415384   3.354   0.432   3.560 -1.3165 -1.5126 -0.2502
   31MOL   H32515385   3.218   0.409   3.670  0.8108 -2.3420 -0.9140
   31MOL   H32615386   3.282   0.567   3.655  1.4341  0.3736 -0.9480
   31MOL   C32715387   3.683   0.582   4.392 -0.5627  0.1781 -0.8277
   31MOL   C32815388   3.659   0.430   4.421  0.4227 -0.4384  0.4679
   31MOL   O32915389   3.635   0.420   4.560  0.7373  0.1327  0.5202
   31MOL   C33015390   3.749   0.394   4.635  0.4048  0.2817 -0.1709
   31MOL   C33115391   3.728   0.367   4.792 -0.0428 -0.0913 -0.2809
   31MOL   C33215392   3.660   0.240   4.827  0.2025  0.0470 -0.6086
   31MOL   C33315393   3.662   0.197   4.977  0.4835  0.4462 -0.2816
   31MOL   C33415394   3.604   0.055   5.002 -0.1664  0.3899 -0.0241
   31MOL   C33515395   3.609   0.023   5.157 -0.4552  0.3062 -0.1457
   31MOL   H33615396   3.596   0.647   4.383 -0.8285  0.2120  1.6048
   31MOL   H33715397   3.735   0.617   4.482 -0.0742  0.9364 -1.3960
   31MOL   H33815398   3.748   0.375   4.390  2.0885  1.5587  1.5945
   31MOL   H33915399   3.821   0.475   4.629 -0.8247  1.3123 -1.6688
   31MOL   H34015400   3.805   0.309   4.596 -0.0693 -1.6598  3.1696
   31MOL   H34115401   3.671   0.453   4.828  0.7554  1.0664 -1.7165
   31MOL   H34215402   3.834   0.376   4.817 -0.3587 -0.9605  1.4145
   31MOL   H34315403   3.557   0.243   4.790  0.7816 -0.0520 -2.2932
   31MOL   H34415404   3.714   0.163   4.771 -1.1102 -1.2176 -0.1630
   31MOL   H34515405   3.759   0.203   5.027 -0.0707  0.4739  0.7915
   31MOL   H34615406   3.611   0.275   5.033  1.1058 -0.0894  1.0538
   31MOL   H34715407   3.500   0.061   4.972  0.0075 -0.2496 -0.7961
   31MOL   H34815408   3.645   7.757   4.935 -1.2096 -0.0983 -0.1221
   31MOL   H34915409   3.566   0.093   5.229  1.3405  0.2575  1.0148
   31MOL   H35015410   3.558   7.710   5.191  1.8092 -1.6426 -1.7725
   31MOL   H35115411   3.713   0.025   5.189 -0.3128 -1.8852 -0.4339
   31MOL   C35215412   3.528   0.389   4.347  0.4811 -0.1448 -0.7157
   31MOL   C35315413   3.523   0.241   4.341  0.4376  0.6236 -0.2508
   31MOL   O35415414   3.407   0.204   4.271 -0.6959 -0.7157 -0.0029
   31MOL   C35515415   3.431   0.201   4.131  0.7308  0.0305  0.0891
   31MOL   C35615416   3.451   0.057   4.086 -0.1499  0.3467 -0.3129
   31MOL   C35715417   3.453   0.044   3.931  0.4092 -0.8458 -0.6166
   31MOL   C35815418   3.422   7.682   3.883 -0.2279  0.6352  0.3396
   31MOL   C35915419   3.517   7.565   3.914 -0.0302 -0.0812  0.6890
   31MOL   C36015420   3.471   7.429   3.847 -0.1053 -0.4165  0.5850
   31MOL   H36115421   3.441   0.432   4.395  0.2743 -0.1443 -1.0915
   31MOL   H36215422   3.528   0.439   4.250  0.3304  0.7232 -0.2707
   31MOL   H36315423   3.610   0.204   4.287 -0.3207  0.8090 -1.6491
   31MOL   H36415424   3.515   0.265   4.102 -0.4977  1.9615  0.6968
   31MOL   H36515425   3.343   0.238   4.078 -0.0532 -0.6291  0.9236
   31MOL   H36615426   3.381   7.762   4.129  1.3431 -1.9562 -1.6130
   31MOL   H36715427   3.547   0.026   4.127 -0.2377 -0.7098 -0.8877
   31MOL   H36815428   3.386   0.117   3.885  3.2519  0.7828 -2.3486
   31MOL   H36915429   3.557   0.060   3.900  0.7126  0.1341  0.8097
   31MOL   H37015430   3.316   7.662   3.899 -0.8081  1.4084 -2.3341
   31MOL   H37115431   3.399   7.686   3.777 -2.0725 -0.4267  0.6800
   31MOL   H37215432   3.613   7.592   3.868 -0.6621  0.5176 -0.2929
   31MOL   H37315433   3.537   7.541   4.019 -1.0858 -0.6025  0.7787
   31MOL   H37415434   3.420   7.356   3.910  1.5772 -1.7947  0.4066
   31MOL   H37515435   3.408   7.461   3.764  0.1821 -0.0554  0.5064
   31MOL   H37615436   3.562   7.387   3.805 -1.1683 -0.5359 -1.6792
   31MOL   C37715437   3.506   0.176   4.476  0.3564  0.5290  0.1958
   31MOL   C37815438   3.523   0.021   4.484 -0.1340  0.0320 -0.2454
   31MOL   O37915439   3.484   7.765   4.613  0.5815  0.0484 -0.0445
   31MOL   C38015440   3.345   7.737   4.609 -0.5911  0.1151  0.3702
   31MOL   C38115441   3.294   7.713   4.750  0.1216  0.0437 -0.5601
   31MOL   C38215442   3.354   7.582   4.807 -0.4904  0.2351  0.9166
   31MOL   C38315443   3.328   7.570   4.960 -0.6259 -0.4009  0.8066
   31MOL   C38415444   3.337   7.423   5.011 -0.1899  0.3013  0.2653
   31MOL   C38515445   3.325   7.397   5.165 -0.3403  0.2618 -0.1464
   31MOL   H38615446   3.587   0.201   4.544 -1.3962  0.8775  2.2249
   31MOL   H38715447   3.422   0.226   4.524  0.4569  1.5590 -0.6855
   31MOL   H38815448   3.461   7.756   4.405  0.3237 -1.6586  0.2835
   31MOL   H38915449   3.327   7.652   4.543  2.2857 -0.6201  0.4664
   31MOL   H39015450   3.294   0.050   4.574 -0.8428  0.9542  2.7930
   31MOL   H39115451   3.187   7.701   4.736 -0.0545  1.4014 -0.3963
   31MOL   H39215452   3.319   0.007   4.828 -0.7768 -1.2312  0.9295
   31MOL   H39315453   3.310   7.493   4.762  0.7745 -0.8753  1.8274
   31MOL   H39415454   3.461   7.573   4.787 -0.9172 -1.5124 -0.8135
   31MOL   H39515455   3.397   7.643   5.004 -0.8832  0.0700  0.4213
   31MOL   H39615456   3.229   7.604   4.989 -0.5347  1.4733 -0.9899
   31MOL   H39715457   3.260   7.357   4.971  1.8223 -1.5561 -0.6554
   31MOL   H39815458   3.435   7.384   4.984  0.1392  0.7088  0.8770
   31MOL   H39915459   3.217   7.396   5.183 -0.3283  1.2239  0.0352
   31MOL   H40015460   3.352   7.293   5.178  1.4557  0.5171 -1.6963
   31MOL   H40115461   3.364   7.482   5.221 -0.5569  0.0676  0.3001
   31MOL   C40215462   3.672   7.752   4.475 -0.5737  0.0848 -0.0605
   31MOL   C40315463   3.700   7.601   4.488 -0.1447  0.1046 -0.1120
   31MOL   O40415464   3.843   7.572   4.486 -0.3170  0.3987  0.9163
   31MOL   C40515465   3.910   7.570   4.608 -0.8900 -0.7211 -0.7900
   31MOL   C40615466   4.051   7.639   4.586 -0.4369  0.3459 -0.7237
   31MOL   C40715467   4.050   0.007   4.572  0.2327  0.5451  0.8246
   31MOL   C40815468   4.175   0.100   4.580 -0.2067  0.0109 -0.5429
   31MOL   C40915469   4.131   0.246   4.578  0.1792  0.2995 -0.2651
   31MOL   C41015470   4.222   0.333   4.661  0.4392 -0.3106 -0.5215
   31MOL   H41115471   3.734   0.022   4.551 -1.2074 -1.1133  1.2051
   31MOL   H41215472   3.719   0.001   4.380 -1.0290 -0.6484 -0.4943
   31MOL   H41315473   3.660   7.563   4.582  1.2418 -2.3988 -0.4674
   31MOL   H41415474   3.925   7.464   4.628  1.0097 -0.0591  1.4453
   31MOL   H41515475   3.860   7.605   4.698 -2.1616  1.2197 -2.2144
   31MOL   H41615476   4.104   7.585   4.507 -1.2206 -1.0187 -0.3411
   31MOL   H41715477   4.116   7.625   4.672 -0.4505  1.1514 -0.5792
   31MOL   H41815478   3.998   0.026   4.478  2.5820 -1.3017 -0.9045
   31MOL   H41915479   3.980   0.045   4.647 -0.4622  0.9064  0.0021
   31MOL   H42015480   4.236   0.083   4.669 -3.0402  1.6632  1.8250
   31MOL   H42115481   4.237   0.083   4.492 -1.0178 -0.2526 -1.0642
   31MOL   H42215482   4.125   0.265   4.471 -0.9043 -2.0901 -0.6697
   31MOL   H42315483   4.027   0.260   4.610  0.2270 -0.8749  0.3943
   31MOL   H42415484   4.218   0.296   4.764  0.0582 -0.9425 -0.7644
   31MOL   H42515485   4.323   0.342   4.621  0.6024  1.2610  0.2191
   31MOL   H42615486   4.189   0.437   4.664 -1.8199 -1.0021 -0.5884
   31MOL   C42715487   3.635   7.508   4.367  0.1252 -0.1129  0.8397
   31MOL   C42815488   3.664   7.352   4.390 -0.4533 -0.3792  0.8964
   31MOL   O42915489   3.561   7.315   4.486 -0.5163 -0.0914  0.1766
   31MOL   C43015490   3.605   7.233   4.593  0.0576 -0.0970 -0.2207
   31MOL   C43115491   3.503   7.213   4.700  0.2537  0.5333 -1.0807
   31MOL   C43215492   3.534   7.079   4.776  0.3608 -0.4714 -0.3661
   31MOL   C43315493   3.470   7.068   4.915 -0.0967  0.1365 -0.1767
   31MOL   C43415494   3.499   6.947   4.994 -0.5488  0.0058 -0.4795
   31MOL   C43515495   3.415   6.944   5.123  0.1914 -0.0646 -0.8951
   31MOL   H43615496   3.532   7.527   4.340 -0.4150  0.3876  3.1505
   31MOL   H43715497   3.688   7.535   4.275  0.1552 -0.3011  0.8016
   31MOL   H43815498   3.768   7.355   4.422 -0.7555 -0.7064  1.9481
   31MOL   H43915499   3.698   7.269   4.636 -0.2128  0.7523 -0.3466
   31MOL   H44015500   3.625   7.132   4.558 -1.3680  0.4167 -2.6063
   31MOL   H44115501   3.404   7.203   4.654 -0.5411 -0.5072  0.7867
   31MOL   H44215502   3.507   7.293   4.774 -3.2119 -0.4357  0.2421
   31MOL   H44315503   3.507   6.994   4.712  0.8518 -1.2538  0.4592
   31MOL   H44415504   3.642   7.080   4.782  0.3725  0.8147 -0.7566
   31MOL   H44515505   3.507   7.156   4.969  1.3240 -0.2392 -0.5203
   31MOL   H44615506   3.364   7.089   4.900 -0.5490 -2.4535 -0.7270
   31MOL   H44715507   3.498   6.861   4.926 -0.1387 -0.3028 -0.0992
   31MOL   H44815508   3.604   6.947   5.022 -0.4451 -2.1698 -0.7667
   31MOL   H44915509   3.315   6.902   5.113  0.0015 -0.1409  1.0678
   31MOL   H45015510   3.459   6.877   5.198  1.3536  1.4430 -0.2190
   31MOL   H45115511   3.389   7.038   5.171  0.3600  0.2411 -1.3989
   31MOL   C45215512   3.634   7.278   4.256  0.8736 -0.1987 -0.3701
   31MOL   C45315513   3.744   7.235   4.160  0.4721  0.5404 -0.1219
   31MOL   O45415514   3.797   7.344   4.098  0.3290 -0.4600  0.1111
   31MOL   C45515515   3.926   7.369   4.132 -0.4502 -0.2545  0.2188
   31MOL   C45615516   3.981   7.492   4.052  0.5866  0.3131  0.1264
   31MOL   C45715517   3.906   7.625   4.069 -0.5134 -0.4061 -0.0448
   31MOL   C45815518   3.985   7.751   4.028  0.0406  0.2081 -0.1448
   31MOL   C45915519   3.903   0.096   4.013 -0.0823 -0.5165 -0.4972
   31MOL   C46015520   3.866   0.167   4.144  0.2927 -0.5059  0.4316
   31MOL   H46115521   3.579   7.187   4.282  1.9160 -0.2972  1.5959
   31MOL   H46215522   3.566   7.338   4.195 -1.2040 -1.3165  0.7573
   31MOL   H46315523   3.819   7.173   4.209  2.9408  1.1397 -2.9620
   31MOL   H46415524   3.991   7.289   4.099 -0.0866  0.9872 -2.1830
   31MOL   H46515525   3.949   7.390   4.237 -0.8186  1.0769  0.0479
   31MOL   H46615526   3.960   7.467   3.948 -2.8030  0.2764  0.7482
   31MOL   H46715527   4.089   7.498   4.067  0.5404  0.2892  0.4891
   31MOL   H46815528   3.812   7.612   4.015  0.0163  2.1324 -1.6635
   31MOL   H46915529   3.879   7.642   4.173  0.6663 -0.2651  0.2546
   31MOL   H47015530   4.070   7.769   4.094 -0.8972  0.5902  0.9683
   31MOL   H47115531   4.030   7.735   3.929 -1.6162  1.0844 -1.0581
   31MOL   H47215532   3.950   0.167   3.945  1.8673 -1.6469 -0.3648
   31MOL   H47315533   3.806   0.077   3.966 -1.8080 -0.7946  3.0380
   31MOL   H47415534   3.844   0.104   4.230 -3.2164  0.2320  0.1247
   31MOL   H47515535   3.944   0.240   4.167 -0.7874  0.6734  0.3769
   31MOL   H47615536   3.781   0.228   4.114  1.8557  1.1503 -0.7873
   31MOL   C47715537   3.686   7.162   4.038  0.9959 -1.0733  0.0571
   31MOL   C47815538   3.777   7.106   3.936  0.3505  0.0701  0.3741
   31MOL   O47915539   3.709   7.008   3.854 -0.6316  0.2536 -0.4021
   31MOL   C48015540   3.797   6.950   3.763 -0.6157  0.5320  0.6285
   31MOL   C48115541   3.724   6.900   3.635 -0.5913  0.3715  0.9394
   31MOL   C48215542   3.657   7.016   3.547  0.7988  0.6334 -0.8465
   31MOL   C48315543   3.594   6.953   3.424  0.2985  0.2437  0.2398
   31MOL   C48415544   3.534   7.055   3.326  0.5141  0.3692 -0.0085
   31MOL   C48515545   3.616   7.157   3.252 -0.3507 -0.0785  0.1793
   31MOL   H48615546   3.627   7.080   4.079  0.1629  0.1760  1.4050
   31MOL   H48715547   3.615   7.224   3.984  0.4950 -0.8545  0.9536
   31MOL   H48815548   3.801   7.189   3.869 -1.1390  1.0611  1.0486
   31MOL   H48915549   3.837   6.858   3.805  1.3814  1.5424  0.9839
   31MOL   H49015550   3.876   7.014   3.725 -0.4097 -0.5436 -0.8137
   31MOL   H49115551   3.645   6.834   3.674 -0.8333 -0.8212 -1.5074
   31MOL   H49215552   3.797   6.851   3.572 -1.3920  2.8879 -2.0720
   31MOL   H49315553   3.576   7.060   3.604  0.3569  0.8261 -1.6185
   31MOL   H49415554   3.721   7.102   3.528 -2.5044  3.0642 -1.2426
   31MOL   H49515555   3.666   6.900   3.362 -0.6755 -0.3948 -0.3592
   31MOL   H49615556   3.518   6.881   3.454 -0.8357  1.0789 -0.5507
   31MOL   H49715557   3.480   7.005   3.245  2.0882  0.6119 -1.2400
   31MOL   H49815558   3.468   7.109   3.394  0.5995 -1.5348  1.6187
   31MOL   H49915559   3.685   7.212   3.316  0.4208 -0.4603 -0.3228
   31MOL   H50015560   3.673   7.123   3.165 -1.0643  1.0090 -0.7175
   31MOL   H50115561   3.541   7.221   3.206 -1.2366 -0.6469  0.8218
   31MOL   H50215562   3.873   7.075   3.978  0.3573  0.7920  0.8923
   32MOL     C115563   3.431   3.478   4.882  0.2512 -0.5245  0.1288
   32MOL     C215564   3.470   3.457   4.743 -0.3865 -0.8705  0.3416
   32MOL     O315565   3.579   3.366   4.741 -0.0992 -0.1302 -0.1720
   32MOL     C415566   3.555   3.226   4.781 -0.1198 -0.7923  0.2061
   32MOL     C515567   3.687   3.171   4.768  0.9876 -0.6467 -0.0893
   32MOL     C615568   3.704   3.032   4.828  0.2612  0.2925 -0.1317
   32MOL     C715569   3.821   2.967   4.755 -0.0266  0.5183 -0.0376
   32MOL     C815570   3.855   2.820   4.788 -0.2014 -1.0269  0.0167
   32MOL     C915571   4.007   2.795   4.808 -0.2672  0.1625  0.4242
   32MOL    H1015572   3.378   3.390   4.918  0.5231 -0.1116  1.5592
   32MOL    H1115573   3.512   3.512   4.947  0.0116 -0.1596  0.2384
   32MOL    H1215574   3.390   3.415   4.683 -1.1283 -0.3014  0.9133
   32MOL    H1315575   3.492   3.165   4.716  0.7266 -1.3590 -0.0995
   32MOL    H1415576   3.525   3.227   4.885 -0.1671  0.2330  0.1876
   32MOL    H1515577   3.758   3.234   4.821 -0.7727 -0.4707  2.1387
   32MOL    H1615578   3.714   3.170   4.663  0.6808 -2.1368 -0.1751
   32MOL    H1715579   3.720   3.048   4.935  0.7956  0.9186 -0.2979
   32MOL    H1815580   3.616   2.972   4.806  1.0839  0.1786 -3.4071
   32MOL    H1915581   3.807   2.967   4.647 -2.5768 -1.1512  0.2581
   32MOL    H2015582   3.911   3.022   4.782 -0.7212  1.5676  0.1514
   32MOL    H2115583   3.808   2.749   4.719 -0.6173 -1.4433  0.7263
   32MOL    H2215584   3.810   2.809   4.887 -0.1826  0.6196  0.2169
   32MOL    H2315585   4.044   2.858   4.889 -0.2011 -1.0095  1.3124
   32MOL    H2415586   4.039   2.693   4.829  0.0100  0.0750 -0.4344
   32MOL    H2515587   4.058   2.827   4.718  0.7803 -0.1670  0.8910
   32MOL    H2615588   3.352   3.553   4.891  0.0970 -0.5900 -0.6215
   32MOL    C2715589   3.522   3.593   4.674  0.0859 -0.1284  0.0526
   32MOL    C2815590   3.546   3.576   4.527 -0.4313 -0.2935  0.1472
   32MOL    O2915591   3.430   3.577   4.456 -0.0231 -0.3368  0.2703
   32MOL    C3015592   3.406   3.480   4.352  0.2771  0.3280 -0.4914
   32MOL    C3115593   3.261   3.516   4.295  0.0734  0.4094  0.0558
   32MOL    C3215594   3.225   3.401   4.201  0.0521  0.7370  0.1594
   32MOL    C3315595   3.075   3.402   4.168  0.7082 -0.2643  0.1236
   32MOL    C3415596   2.975   3.319   4.263 -0.2738 -0.1199 -0.2545
   32MOL    C3515597   2.968   3.165   4.234  0.6961  0.1435  0.1776
   32MOL    H3615598   3.462   3.681   4.695  1.9729  0.6842  2.0922
   32MOL    H3715599   3.620   3.615   4.714 -0.0377 -0.8660  0.7771
   32MOL    H3815600   3.598   3.480   4.519  0.3813  0.3026 -2.0250
   32MOL    H3915601   3.413   3.379   4.393 -1.7684  0.2429 -0.3250
   32MOL    H4015602   3.490   3.494   4.283 -0.7295 -1.3966 -2.1169
   32MOL    H4115603   3.256   3.605   4.233 -0.4735  0.2093 -0.1872
   32MOL    H4215604   3.194   3.526   4.380  0.2380 -0.2737  0.2723
   32MOL    H4315605   3.278   3.415   4.107  1.3524  0.0299  0.7655
   32MOL    H4415606   3.251   3.300   4.234 -3.7731 -0.9424 -1.5721
   32MOL    H4515607   3.037   3.504   4.178 -0.1530 -0.5565 -0.1544
   32MOL    H4615608   3.062   3.363   4.067 -1.0307 -2.0017  1.0080
   32MOL    H4715609   3.008   3.345   4.363 -1.9950  1.1105  0.0267
   32MOL    H4815610   2.878   3.368   4.251 -0.1036  0.4541  0.6917
   32MOL    H4915611   2.916   3.105   4.308  0.8848 -2.7212 -1.9139
   32MOL    H5015612   2.929   3.131   4.138  1.6932  0.3972 -0.3253
   32MOL    H5115613   3.070   3.126   4.237  0.5953 -0.0498  1.1525
   32MOL    C5215614   3.650   3.677   4.472 -0.0171  0.2561 -0.1396
   32MOL    C5315615   3.800   3.650   4.504 -0.1751  0.2192  0.0314
   32MOL    O5415616   3.837   3.542   4.417 -0.0402  0.0455 -0.0889
   32MOL    C5515617   3.907   3.439   4.487  0.3662 -0.6870 -0.3750
   32MOL    C5615618   3.924   3.310   4.410  0.9141  0.2707 -0.5243
   32MOL    C5715619   3.985   3.186   4.480 -0.2525 -0.2996  0.2211
   32MOL    C5815620   4.039   3.071   4.393  0.3350  0.2690  0.4857
   32MOL    C5915621   4.101   2.952   4.462 -0.0740  0.0482 -0.4983
   32MOL    C6015622   4.229   2.973   4.544  0.6631  0.0962  0.0517
   32MOL    H6115623   3.616   3.773   4.510 -0.5085  1.3506 -3.2216
   32MOL    H6215624   3.638   3.688   4.364  0.0862 -0.9303 -0.2854
   32MOL    H6315625   3.792   3.637   4.612 -1.8751 -2.0643 -0.3362
   32MOL    H6415626   3.855   3.425   4.583 -1.3429  0.5633 -1.0880
   32MOL    H6515627   4.005   3.480   4.508  1.7800 -3.0515 -2.1127
   32MOL    H6615628   3.985   3.333   4.323  1.2944  0.2221 -0.2708
   32MOL    H6715629   3.834   3.277   4.358  1.7088  0.8632 -2.2792
   32MOL    H6815630   4.076   3.211   4.536  0.0294  1.9404 -1.1785
   32MOL    H6915631   3.910   3.153   4.551 -1.4295  1.6432 -0.0875
   32MOL    H7015632   3.958   3.034   4.331  1.3456  1.1887 -1.4172
   32MOL    H7115633   4.110   3.115   4.323  0.6610 -1.4970 -0.3374
   32MOL    H7215634   4.018   2.896   4.503 -0.1122  0.0848 -0.5256
   32MOL    H7315635   4.136   2.878   4.389  1.3083 -1.1373  1.3088
   32MOL    H7415636   4.215   3.022   4.640 -1.3042  1.2665 -0.8139
   32MOL    H7515637   4.264   2.874   4.575  0.3809  0.3926  1.3802
   32MOL    H7615638   4.314   3.021   4.496 -0.8347  1.3620 -1.3981
   32MOL    C7715639   3.888   3.774   4.464 -0.2038 -0.1236  0.1578
   32MOL    C7815640   3.929   3.865   4.582 -0.4496 -0.0245 -0.9808
   32MOL    O7915641   4.005   3.800   4.686 -0.0090 -0.4041 -0.0708
   32MOL    C8015642   4.138   3.778   4.652  0.3533 -0.2354 -0.1605
   32MOL    C8115643   4.196   3.670   4.752  0.1083 -1.0771 -0.3513
   32MOL    C8215644   4.212   3.721   4.898 -0.6656  0.2872 -0.5807
   32MOL    C8315645   4.297   3.625   4.980 -0.6724 -0.4209  0.5018
   32MOL    C8415646   4.323   3.678   5.119 -0.5851 -0.8586 -0.0669
   32MOL    C8515647   4.406   3.807   5.126  0.2135 -0.2926 -1.0811
   32MOL    H8615648   3.843   3.825   4.379  0.3337 -0.1654 -0.1519
   32MOL    H8715649   3.979   3.736   4.417 -0.5299  0.0272 -0.6089
   32MOL    H8815650   3.998   3.935   4.535 -0.0702 -0.6102 -1.2993
   32MOL    H8915651   4.190   3.872   4.670  0.8862 -0.4525 -0.5242
   32MOL    H9015652   4.147   3.743   4.549 -0.6101  1.4074 -0.8182
   32MOL    H9115653   4.296   3.647   4.716 -1.2438 -4.3766 -2.2114
   32MOL    H9215654   4.142   3.576   4.749 -4.6053  1.4602  0.4482
   32MOL    H9315655   4.242   3.825   4.910  0.1003 -0.2347  2.3380
   32MOL    H9415656   4.111   3.711   4.937 -1.1500 -0.1220 -1.8893
   32MOL    H9515657   4.266   3.520   4.979 -1.1074 -0.2897  0.1912
   32MOL    H9615658   4.393   3.632   4.928 -2.1360 -0.7565 -2.3330
   32MOL    H9715659   4.229   3.684   5.173 -0.7989  0.9921 -0.5828
   32MOL    H9815660   4.374   3.599   5.173 -0.7203 -0.3359  0.8390
   32MOL    H9915661   4.470   3.806   5.214  0.3563 -0.8040 -1.1877
   32MOL   H10015662   4.464   3.823   5.035 -1.5361  0.7616 -2.0489
   32MOL   H10115663   4.344   3.896   5.133 -0.9014 -1.1139 -0.2397
   32MOL   C10215664   3.819   3.952   4.640 -0.5540  0.1767  0.0220
   32MOL   C10315665   3.867   4.071   4.715 -0.4218  0.9782 -0.6793
   32MOL   O10415666   3.755   4.157   4.731 -0.5653  0.0479 -0.1982
   32MOL   C10515667   3.734   4.255   4.629 -0.0106  0.4867  0.1792
   32MOL   C10615668   3.625   4.346   4.659  0.7884  0.6988 -0.4410
   32MOL   C10715669   3.613   4.406   4.807  0.2739  0.1023 -0.3731
   32MOL   C10815670   3.482   4.487   4.817 -0.5765  0.8867  0.2610
   32MOL   C10915671   3.464   4.542   4.960 -0.2851  0.1858  0.6961
   32MOL   C11015672   3.337   4.619   4.958  0.2887 -0.2916  0.0990
   32MOL   H11115673   3.767   3.994   4.554 -3.3438 -1.0329  1.0670
   32MOL   H11215674   3.737   3.902   4.691 -0.1318 -1.0683 -0.4989
   32MOL   H11315675   3.948   4.127   4.667 -0.0861 -0.1614 -1.4605
   32MOL   H11415676   3.702   4.193   4.545  0.6110 -2.1213  1.7951
   32MOL   H11515677   3.828   4.307   4.612  0.3095 -0.7075 -1.7857
   32MOL   H11615678   3.529   4.296   4.642  0.8479 -0.0434  1.3408
   32MOL   H11715679   3.623   4.431   4.591 -0.1462  0.6450 -0.4984
   32MOL   H11815680   3.615   4.323   4.878  1.2906  0.2238 -0.2532
   32MOL   H11915681   3.700   4.466   4.830  1.7895 -0.8505 -3.3472
   32MOL   H12015682   3.469   4.566   4.743 -1.3615 -1.1726 -1.8732
   32MOL   H12115683   3.399   4.418   4.803  0.2747  0.0484 -0.7629
   32MOL   H12215684   3.473   4.467   5.038  3.4282  2.0222  2.1461
   32MOL   H12315685   3.551   4.604   4.983 -1.0521  1.0232  1.3935
   32MOL   H12415686   3.258   4.559   4.913 -0.2968 -0.1107  0.8750
   32MOL   H12515687   3.309   4.641   5.061  0.0352 -1.9512  0.3950
   32MOL   H12615688   3.342   4.709   4.896  1.5225 -1.1572 -1.0778
   32MOL   C12715689   3.910   4.034   4.859  0.1605 -0.1644 -0.4526
   32MOL   C12815690   3.968   4.147   4.951  0.7376  0.0980 -0.5504
   32MOL   O12915691   4.096   4.188   4.904 -0.5188  0.0418  0.0183
   32MOL   C13015692   4.100   4.303   4.826 -0.5889 -0.2235  0.0500
   32MOL   C13115693   4.245   4.341   4.817  0.8691 -0.3097  0.3704
   32MOL   C13215694   4.280   4.465   4.730  1.1691  0.1214 -0.6110
   32MOL   C13315695   4.424   4.489   4.694  0.6200 -0.6027 -0.0816
   32MOL   C13415696   4.447   4.620   4.629 -0.6060  0.5531  0.3787
   32MOL   C13515697   4.394   4.617   4.485 -0.6425  0.3626  0.1646
   32MOL   H13615698   3.831   3.986   4.917  0.8616 -1.7731 -0.7918
   32MOL   H13715699   3.986   3.955   4.858  0.8110  0.4723 -1.5069
   32MOL   H13815700   3.901   4.233   4.949 -0.3576 -0.7403 -0.5346
   32MOL   H13915701   4.047   4.387   4.872 -1.2240 -1.9902  2.7014
   32MOL   H14015702   4.058   4.280   4.728  1.1743 -4.4721  0.1750
   32MOL   H14115703   4.293   4.249   4.784  0.5889 -0.2886 -0.1104
   32MOL   H14215704   4.283   4.373   4.914  1.6934 -1.2606  0.3666
   32MOL   H14315705   4.222   4.467   4.638  2.1723  1.0462 -1.2384
   32MOL   H14415706   4.247   4.549   4.791  1.9461 -1.1241  1.5683
   32MOL   H14515707   4.490   4.478   4.780  1.8231  1.4119 -0.7095
   32MOL   H14615708   4.461   4.410   4.628 -1.0623 -0.2930 -1.3975
   32MOL   H14715709   4.415   4.707   4.686  1.0446  2.3100 -1.3350
   32MOL   H14815710   4.555   4.619   4.613 -0.5761  1.0082  0.5664
   32MOL   H14915711   4.421   4.529   4.426  0.1831 -0.6280  1.9655
   32MOL   H15015712   4.286   4.609   4.495 -0.7817  2.7525  0.7601
   32MOL   H15115713   4.419   4.709   4.433  1.4777 -0.6929 -0.7501
   32MOL   C15215714   3.996   4.103   5.098 -0.8529 -0.3581 -0.0156
   32MOL   C15315715   3.938   4.209   5.189 -0.5558  0.2574  0.3334
   32MOL   O15415716   3.975   4.158   5.324 -0.0746  0.8148  0.2149
   32MOL   C15515717   3.862   4.102   5.388  0.2559  0.3975  0.5361
   32MOL   C15615718   3.919   4.059   5.518 -0.0693  0.4106  0.4864
   32MOL   C15715719   4.004   4.169   5.589  0.3426 -0.0422 -0.3034
   32MOL   C15815720   4.024   4.132   5.731  0.0326 -0.7223  0.6424
   32MOL   C15915721   4.084   4.234   5.833  0.3582  0.6004 -0.4756
   32MOL   C16015722   4.106   4.168   5.975 -0.0318  0.7760  0.7358
   32MOL   H16115723   3.944   4.010   5.118  0.3844 -1.1273 -0.3672
   32MOL   H16215724   4.099   4.088   5.129 -0.8148 -1.0354 -0.4492
   32MOL   H16315725   3.831   4.205   5.170 -0.3465  2.4237 -1.5427
   32MOL   H16415726   3.823   4.021   5.327 -0.3846  0.1374  1.2817
   32MOL   H16515727   3.783   4.176   5.403 -0.5086 -0.1650 -0.6769
   32MOL   H16615728   3.970   3.962   5.518 -1.9212 -0.6532  4.1560
   32MOL   H16715729   3.828   4.038   5.574  0.3761 -1.5222  0.5232
   32MOL   H16815730   4.108   4.176   5.557 -0.6428  0.8349 -3.5600
   32MOL   H16915731   3.962   4.267   5.567 -2.2595 -1.3621 -1.5164
   32MOL   H17015732   3.924   4.101   5.763 -0.1069  0.3112  1.2448
   32MOL   H17115733   4.076   4.036   5.737  0.1201 -0.6796  0.5551
   32MOL   H17215734   4.179   4.275   5.798  0.3022  1.5819  0.4673
   32MOL   H17315735   4.024   4.323   5.854 -0.7539  0.2061 -2.0015
   32MOL   H17415736   4.178   4.087   5.963 -0.7980  0.3006 -0.7861
   32MOL   H17515737   4.135   4.234   6.056  0.9912 -1.2080  2.0237
   32MOL   H17615738   4.010   4.130   6.011  1.3472 -0.9722  2.6433
   32MOL   C17715739   4.001   4.343   5.175 -0.3030  0.0953 -0.2130
   32MOL   C17815740   3.955   4.437   5.284 -0.3950 -0.9886  1.1269
   32MOL   O17915741   4.042   4.553   5.296 -0.1982  0.2015  0.0658
   32MOL   C18015742   4.153   4.526   5.379  0.2078 -0.5294  0.3241
   32MOL   C18115743   4.239   4.656   5.373  0.3662  0.1254  0.3481
   32MOL   C18215744   4.282   4.684   5.232  0.1564 -0.2839 -0.6861
   32MOL   C18315745   4.362   4.806   5.213 -0.3598 -0.3380 -0.1198
   32MOL   C18415746   4.302   4.941   5.254 -0.1481  0.2148 -1.1985
   32MOL   C18515747   4.162   4.974   5.208  0.3357  0.2288  0.0353
   32MOL   H18615748   4.109   4.333   5.177 -0.3433 -0.1276  1.9106
   32MOL   H18715749   3.985   4.393   5.079  4.3139  0.8370 -0.7218
   32MOL   H18815750   3.965   4.376   5.374  1.4619 -1.6942  0.4706
   32MOL   H18915751   4.211   4.445   5.337 -0.1087  0.2153 -1.5851
   32MOL   H19015752   4.129   4.502   5.483 -0.6737  1.5370  0.6312
   32MOL   H19115753   4.311   4.658   5.455 -0.4529  0.0915  1.0855
   32MOL   H19215754   4.167   4.737   5.387 -0.2017 -0.3294  0.0755
   32MOL   H19315755   4.349   4.607   5.194  4.2629  2.0399  1.4930
   32MOL   H19415756   4.191   4.686   5.172 -1.1634  1.7443  1.2924
   32MOL   H19515757   4.451   4.786   5.272  0.4675  1.1526 -0.8441
   32MOL   H19615758   4.397   4.814   5.110  0.4813 -3.9090 -0.2055
   32MOL   H19715759   4.286   4.949   5.362  0.2814 -0.4845 -1.0755
   32MOL   H19815760   4.369   5.022   5.224  0.0491  0.7929  0.7258
   32MOL   H19915761   4.091   4.916   5.265 -0.7735  0.5915 -0.9646
   32MOL   H20015762   4.145   5.079   5.233  1.4519  0.0845  1.4345
   32MOL   H20115763   4.144   4.970   5.100  0.7033  1.0476 -0.0659
   32MOL   C20215764   3.813   4.497   5.263  0.4382 -0.1185  0.3257
   32MOL   C20315765   3.762   4.594   5.370 -0.4579  0.1036 -0.2193
   32MOL   O20415766   3.745   4.503   5.480 -0.0912 -0.1724  0.5078
   32MOL   C20515767   3.799   4.544   5.609  1.2359  0.2849  0.0280
   32MOL   C20615768   3.769   4.451   5.726 -0.3305  0.0368  0.3871
   32MOL   C20715769   3.618   4.430   5.759 -0.4586 -0.8957 -0.0823
   32MOL   C20815770   3.599   4.322   5.862 -0.5952 -0.1238  0.2884
   32MOL   C20915771   3.450   4.283   5.887  0.8666 -0.6461  0.0134
   32MOL   C21015772   3.433   4.135   5.931  0.2296  0.4375 -0.9158
   32MOL   H21115773   3.819   4.540   5.162 -2.9740  2.0955  0.9784
   32MOL   H21215774   3.741   4.416   5.256  0.5783 -0.2007 -0.2489
   32MOL   H21315775   3.843   4.666   5.382  0.7905 -1.0854 -1.3233
   32MOL   H21415776   3.771   4.645   5.637  0.7043  0.1485 -0.0218
   32MOL   H21515777   3.908   4.551   5.602  1.2587  0.6767  0.7862
   32MOL   H21615778   3.821   4.489   5.814  0.2034 -1.3673  0.6935
   32MOL   H21715779   3.804   4.349   5.712 -1.1513  0.0620 -1.9959
   32MOL   H21815780   3.570   4.521   5.796  0.9356 -0.5788  1.0273
   32MOL   H21915781   3.565   4.403   5.668  0.4000  2.0017 -1.5286
   32MOL   H22015782   3.640   4.244   5.797  1.4491  0.0647  1.3300
   32MOL   H22115783   3.667   4.326   5.947  1.1125  0.2861 -1.0578
   32MOL   H22215784   3.411   4.353   5.961  0.8760 -0.5672 -0.0580
   32MOL   H22315785   3.397   4.296   5.793  1.1309 -2.3815 -0.4005
   32MOL   H22415786   3.473   4.065   5.858 -1.5273 -1.5784 -0.0108
   32MOL   H22515787   3.467   4.118   6.033  2.0089 -0.0598 -1.5851
   32MOL   H22615788   3.327   4.108   5.924  0.3900 -0.2335 -0.7845
   32MOL   C22715789   3.628   4.667   5.338  0.6212  0.1795  0.7262
   32MOL   C22815790   3.645   4.798   5.257  0.3788  0.3203 -0.0559
   32MOL   O22915791   3.717   4.775   5.136 -0.0320  0.0021 -0.0821
   32MOL   C23015792   3.840   4.845   5.123 -0.1091  0.2319 -0.3461
   32MOL   C23115793   3.878   4.872   4.973 -0.3754 -0.5934 -0.1199
   32MOL   C23215794   3.935   4.750   4.901 -0.5643 -0.2083  0.1340
   32MOL   C23315795   3.982   4.789   4.759 -0.0210  0.2275  0.4714
   32MOL   C23415796   3.959   4.681   4.653  0.3502 -0.2369  0.7020
   32MOL   C23515797   3.822   4.656   4.607  0.5282 -0.0590 -0.7015
   32MOL   H23615798   3.557   4.605   5.283  1.3680 -1.8397  1.9601
   32MOL   H23715799   3.574   4.691   5.430  0.8204 -0.2063  0.9438
   32MOL   H23815800   3.689   4.886   5.305 -0.9769  1.2186 -0.4320
   32MOL   H23915801   3.915   4.788   5.179  1.0399  1.8907 -0.1741
   32MOL   H24015802   3.830   4.945   5.165 -0.9435 -0.2314  0.5739
   32MOL   H24115803   3.945   4.957   4.957  0.5952 -1.2404  0.4785
   32MOL   H24215804   3.788   4.901   4.917 -0.6693  0.4789  0.8730
   32MOL   H24315805   4.020   4.708   4.955  0.2897 -1.3532 -2.0277
   32MOL   H24415806   3.855   4.677   4.910  0.4042 -1.6744 -2.5371
   32MOL   H24515807   3.948   4.887   4.726  1.8438  0.8456  0.3486
   32MOL   H24615808   4.087   4.809   4.775 -0.0488  1.2662 -0.5733
   32MOL   H24715809   4.011   4.721   4.566 -1.2107 -2.5804 -1.3993
   32MOL   H24815810   4.006   4.590   4.690  1.1640 -0.5409 -1.0675
   32MOL   H24915811   3.811   4.594   4.518  1.0460 -0.3119 -0.5907
   32MOL   H25015812   3.768   4.619   4.694 -0.4040  1.2990 -0.6835
   32MOL   H25115813   3.769   4.748   4.581  1.9010  1.4623  1.7069
   32MOL   C25215814   3.505   4.861   5.204 -0.3632  0.1463  0.0888
   32MOL   C25315815   3.522   5.007   5.142 -0.5218  0.3777  0.1858
   32MOL   O25415816   3.449   5.104   5.227  0.2239 -0.0306  0.2886
   32MOL   C25515817   3.513   5.154   5.338 -0.2967  0.2970 -0.2314
   32MOL   C25615818   3.415   5.247   5.403  0.1946 -0.5939  1.2281
   32MOL   C25715819   3.374   5.364   5.307  1.1954 -0.3195  0.1889
   32MOL   C25815820   3.298   5.475   5.385  0.3725  0.8166  0.2072
   32MOL   C25915821   3.402   5.574   5.447  0.5850  0.4899  0.8721
   32MOL   C26015822   3.329   5.681   5.525  0.0857  1.2485  0.5027
   32MOL   H26115823   3.473   4.794   5.124  1.6486 -0.7496  0.0008
   32MOL   H26215824   3.425   4.859   5.277  0.2660 -1.4745  0.7491
   32MOL   H26315825   3.627   5.034   5.129  0.1037 -1.6176  0.7758
   32MOL   H26415826   3.611   5.199   5.321  0.2886 -0.2787  1.5199
   32MOL   H26515827   3.536   5.069   5.402  2.4450  1.3048  0.2031
   32MOL   H26615828   3.466   5.293   5.487  0.0472  1.6773  0.1123
   32MOL   H26715829   3.323   5.195   5.432  0.7309 -1.7785  0.8248
   32MOL   H26815830   3.461   5.413   5.264 -0.6046  1.2228 -1.8654
   32MOL   H26915831   3.322   5.323   5.221 -0.0482  0.4676  0.5446
   32MOL   H27015832   3.228   5.525   5.318  1.7760 -0.2612 -2.1467
   32MOL   H27115833   3.242   5.431   5.467  0.9800 -1.1949 -0.4195
   32MOL   H27215834   3.457   5.522   5.525  0.1297  2.0086  2.2257
   32MOL   H27315835   3.453   5.622   5.364  1.2272 -2.3933 -0.4802
   32MOL   H27415836   3.273   5.754   5.467 -2.7405 -1.5642 -0.4540
   32MOL   H27515837   3.263   5.637   5.600 -0.5557 -0.0746 -0.8194
   32MOL   H27615838   3.396   5.742   5.585  0.4772  1.3855 -0.0697
   32MOL   C27715839   3.465   5.016   4.998 -0.8128 -0.6989  0.1269
   32MOL   C27815840   3.451   5.153   4.924 -0.6036  0.2732 -0.6761
   32MOL   O27915841   3.577   5.183   4.868 -0.4991  0.0625 -0.0273
   32MOL   C28015842   3.653   5.271   4.945 -0.2313 -0.7774 -0.2566
   32MOL   C28115843   3.802   5.225   4.933 -0.1561 -0.0681 -0.3108
   32MOL   C28215844   3.899   5.322   5.004 -0.3261 -0.2420  0.6037
   32MOL   C28315845   3.907   5.298   5.159 -0.2757  0.0539 -0.2803
   32MOL   C28415846   4.030   5.356   5.230 -0.5065  0.1857  0.1588
   32MOL   C28515847   4.056   5.325   5.378  0.1298  0.5541  0.7970
   32MOL   H28615848   3.517   4.945   4.935 -2.6101 -2.1312  0.2175
   32MOL   H28715849   3.369   4.972   5.023 -0.5185 -0.3381  1.9300
   32MOL   H28815850   3.420   5.236   4.987 -2.3569 -1.2987  0.5620
   32MOL   H28915851   3.623   5.279   5.049  1.5209  0.4134  0.1659
   32MOL   H29015852   3.638   5.375   4.918  1.2011 -1.0851 -2.3530
   32MOL   H29115853   3.833   5.224   4.828  0.4120  0.3153 -0.1491
   32MOL   H29215854   3.805   5.131   4.988 -2.1607 -0.7959 -1.3916
   32MOL   H29315855   3.996   5.294   4.963 -0.2655  2.7142 -1.4640
   32MOL   H29415856   3.884   5.428   4.983  1.5999 -0.1849 -0.6212
   32MOL   H29515857   3.821   5.325   5.221 -0.2276 -0.0336 -0.1747
   32MOL   H29615858   3.918   5.191   5.171  2.8270  0.3787  0.2221
   32MOL   H29715859   4.119   5.330   5.173 -1.3975 -1.6727 -0.4289
   32MOL   H29815860   4.026   5.464   5.220 -1.1838  0.2607  1.0872
   32MOL   H29915861   4.107   5.228   5.379 -2.4974 -0.8891  0.2615
   32MOL   H30015862   4.122   5.395   5.428 -0.4759  1.0826  0.8533
   32MOL   H30115863   3.965   5.314   5.436 -0.6349 -0.4565 -0.5508
   32MOL   C30215864   3.328   5.155   4.828 -0.4431  0.5834  0.2614
   32MOL   C30315865   3.301   5.290   4.758 -0.4590  0.3307  0.7333
   32MOL   O30415866   3.247   5.379   4.863  0.1194 -0.5001 -0.2911
   32MOL   C30515867   3.299   5.504   4.879  0.6905  0.4037  0.2703
   32MOL   C30615868   3.229   5.583   4.991  0.1894  0.0706  0.1031
   32MOL   C30715869   3.302   5.715   5.028 -0.8505 -0.4962 -0.5041
   32MOL   C30815870   3.234   5.794   5.143 -0.1561 -0.2361  0.0816
   32MOL   C30915871   3.121   5.875   5.084 -0.0803 -0.5378  0.3442
   32MOL   C31015872   3.081   5.977   5.190  0.2278  0.0257  0.1397
   32MOL   H31115873   3.335   5.068   4.763 -2.0994 -0.9242  2.0347
   32MOL   H31215874   3.247   5.147   4.901  0.2449  0.9279  1.0797
   32MOL   H31315875   3.394   5.333   4.723 -0.4206  0.4245  0.9516
   32MOL   H31415876   3.272   5.554   4.787  1.2505 -0.5680 -0.4365
   32MOL   H31515877   3.407   5.502   4.895  1.1757  2.1821 -2.5468
   32MOL   H31615878   3.234   5.528   5.085 -2.9825  2.1509  1.5863
   32MOL   H31715879   3.127   5.609   4.962  0.6917  1.8105 -0.1634
   32MOL   H31815880   3.404   5.707   5.064 -0.6520  1.8506 -0.4499
   32MOL   H31915881   3.296   5.778   4.940  0.2059  1.5886  0.8750
   32MOL   H32015882   3.196   5.725   5.219  0.3774  0.1357  0.6928
   32MOL   H32115883   3.301   5.864   5.194 -0.8465 -0.6265  1.5612
   32MOL   H32215884   3.149   5.925   4.991 -4.2132  1.5867  0.1062
   32MOL   H32315885   3.038   5.809   5.058  1.2353 -1.4000 -1.8055
   32MOL   H32415886   3.049   5.943   5.289  1.0987 -1.6969 -0.1492
   32MOL   H32515887   3.160   6.048   5.214 -1.4153  1.5079  1.3832
   32MOL   H32615888   3.000   6.041   5.153  1.3184  1.3848  0.0570
   32MOL   C32715889   3.206   5.278   4.635  0.8651 -0.3049  0.2718
   32MOL   C32815890   3.198   5.408   4.554  0.2494  1.1800 -0.8407
   32MOL   O32915891   3.331   5.419   4.503  0.4336 -0.3437 -0.2648
   32MOL   C33015892   3.364   5.560   4.476  0.2187 -0.3480 -0.1673
   32MOL   C33115893   3.502   5.558   4.398  0.0555  0.0948  0.0533
   32MOL   C33215894   3.500   5.459   4.287  0.5023 -0.0119 -0.1721
   32MOL   C33315895   3.630   5.436   4.205 -0.6300  0.1402 -0.4266
   32MOL   C33415896   3.611   5.355   4.081  0.0074  0.1734  0.3455
   32MOL   C33515897   3.541   5.222   4.105 -1.0906 -0.0269 -0.2356
   32MOL   H33615898   3.113   5.230   4.663  0.8155 -0.6483 -0.4701
   32MOL   H33715899   3.247   5.194   4.578  1.5583  0.4608 -0.3609
   32MOL   H33815900   3.168   5.494   4.615 -0.3081 -0.7309  1.6493
   32MOL   H33915901   3.375   5.623   4.564 -0.6703 -1.0751  0.4911
   32MOL   H34015902   3.293   5.609   4.409 -2.4011 -0.6859  2.2209
   32MOL   H34115903   3.578   5.520   4.467 -1.6918 -3.2402  0.2343
   32MOL   H34215904   3.532   5.657   4.363 -0.7743  0.3613  0.0835
   32MOL   H34315905   3.479   5.360   4.327 -1.0422  0.3280 -0.1289
   32MOL   H34415906   3.426   5.479   4.210 -0.5508 -1.8077  0.3533
   32MOL   H34515907   3.659   5.536   4.174  0.7797 -0.7561 -2.1100
   32MOL   H34615908   3.701   5.391   4.274  0.4047  1.2064 -0.7823
   32MOL   H34715909   3.552   5.405   4.004  0.8933 -0.5454 -0.8050
   32MOL   H34815910   3.709   5.327   4.044 -0.5789  0.6381 -1.6384
   32MOL   H34915911   3.569   5.170   4.196  0.7431 -1.5348 -1.6307
   32MOL   H35015912   3.433   5.220   4.123 -1.3697 -0.7247 -1.8806
   32MOL   H35115913   3.554   5.155   4.020 -0.4157  1.1799 -1.0995
   32MOL   C35215914   3.108   5.396   4.427 -0.2009  0.3795 -0.2678
   32MOL   C35315915   2.959   5.380   4.458  0.6940  0.7948 -0.0670
   32MOL   O35415916   2.908   5.279   4.364 -0.3798 -0.0716  0.5407
   32MOL   C35515917   2.841   5.174   4.420 -0.0935  0.6341 -0.1107
   32MOL   C35615918   2.923   5.052   4.462 -0.1601  0.6656  0.1816
   32MOL   C35715919   2.849   4.953   4.547  0.3918  0.4757 -0.7337
   32MOL   C35815920   2.942   4.844   4.603  0.2782  1.0521 -0.0247
   32MOL   C35915921   3.034   4.871   4.724 -0.4457 -0.1577  0.7541
   32MOL   C36015922   2.952   4.865   4.861 -0.1415 -0.1648  0.6253
   32MOL   H36115923   3.134   5.464   4.345  2.9321 -0.4856 -0.0739
   32MOL   H36215924   3.140   5.298   4.392 -0.7304  1.0551 -2.7210
   32MOL   H36315925   2.944   5.360   4.564 -0.6923 -1.6902 -0.7019
   32MOL   H36415926   2.765   5.144   4.348  0.5951 -4.0426  0.9797
   32MOL   H36515927   2.789   5.217   4.506  0.4561 -0.3305  0.7152
   32MOL   H36615928   3.003   5.092   4.525  0.4659 -0.8226  0.3513
   32MOL   H36715929   2.967   5.022   4.367 -1.3568  1.0944 -0.5161
   32MOL   H36815930   2.785   5.002   4.620 -0.1877 -1.9044  0.4413
   32MOL   H36915931   2.783   4.895   4.483 -1.0408  1.0987  0.1596
   32MOL   H37015932   2.882   4.757   4.630 -1.2997  2.5640  1.5339
   32MOL   H37115933   2.997   4.792   4.525 -0.3244  0.2341  0.0890
   32MOL   H37215934   3.117   4.800   4.729  2.5761  3.1645 -0.2327
   32MOL   H37315935   3.093   4.962   4.712 -0.0359 -0.3900  0.9830
   32MOL   H37415936   2.872   4.792   4.875  0.5560 -0.5594  2.8335
   32MOL   H37515937   3.028   4.853   4.938 -0.3048 -0.9540  0.6726
   32MOL   H37615938   2.909   4.965   4.864  0.4192  0.0699  0.9986
   32MOL   C37715939   2.874   5.504   4.434  0.4666  0.1459  0.1353
   32MOL   C37815940   2.889   5.620   4.539 -0.2877 -0.1886 -0.1010
   32MOL   O37915941   2.834   5.574   4.668  0.0430  0.1174  0.1650
   32MOL   C38015942   2.893   5.636   4.780  0.1791  0.4889 -0.2012
   32MOL   C38115943   2.864   5.557   4.917 -1.0116 -0.0440  0.1280
   32MOL   C38215944   2.717   5.568   4.974  0.0311  0.4372  0.5595
   32MOL   C38315945   2.610   5.483   4.895  0.0069  0.5402  0.0996
   32MOL   C38415946   2.490   5.444   4.982 -0.5366  0.0665 -0.7665
   32MOL   C38515947   2.399   5.565   4.999 -0.5987  0.3995  0.2955
   32MOL   H38615948   2.895   5.551   4.337 -2.3592 -0.6733 -0.9494
   32MOL   H38715949   2.768   5.478   4.431  0.4595  0.1943 -0.1166
   32MOL   H38815950   2.993   5.652   4.543 -0.5679  0.7942 -0.6611
   32MOL   H38915951   2.849   5.735   4.791  0.2038  0.2114  2.6278
   32MOL   H39015952   3.002   5.631   4.771  0.2917 -1.2405  1.7487
   32MOL   H39115953   2.920   5.604   4.998  0.3508  0.5136 -1.1274
   32MOL   H39215954   2.896   5.453   4.913 -2.2357 -0.3982 -0.8363
   32MOL   H39315955   2.716   5.535   5.078 -0.8328  0.2982  0.5102
   32MOL   H39415956   2.684   5.671   4.989 -0.0828  0.5223 -0.2445
   32MOL   H39515957   2.578   5.542   4.809  0.0026  0.0937 -0.2074
   32MOL   H39615958   2.662   5.396   4.855  3.1502  2.8407 -0.9928
   32MOL   H39715959   2.436   5.362   4.935 -2.5366  0.3413  0.9778
   32MOL   H39815960   2.527   5.406   5.077 -0.3065  1.0681 -0.4478
   32MOL   H39915961   2.354   5.607   4.908  0.0322 -0.2632 -0.3266
   32MOL   H40015962   2.311   5.536   5.056 -1.5351 -0.6802 -1.6315
   32MOL   H40115963   2.438   5.641   5.067 -1.7604  0.3439  1.0370
   32MOL   C40215964   2.807   5.753   4.496 -0.6948 -0.0491 -0.1317
   32MOL   C40315965   2.894   5.872   4.455 -0.1099  1.0458 -0.1677
   32MOL   O40415966   2.837   6.002   4.459  0.3248 -0.3679 -0.2765
   32MOL   C40515967   2.716   6.022   4.393 -0.0432 -1.0398 -0.2260
   32MOL   C40615968   2.663   6.157   4.442  0.2141  0.1226  0.0116
   32MOL   C40715969   2.557   6.213   4.342 -0.7804 -0.3700 -0.1904
   32MOL   C40815970   2.606   6.276   4.211 -0.6163 -0.2170  0.0469
   32MOL   C40915971   2.491   6.309   4.112  0.6240 -0.4248 -0.5957
   32MOL   C41015972   2.548   6.360   3.977 -0.0996 -0.7009 -0.1224
   32MOL   H41115973   2.747   5.786   4.581 -0.2385 -2.4587  1.1701
   32MOL   H41215974   2.733   5.720   4.422  0.1770  0.1854 -1.1105
   32MOL   H41315975   2.975   5.876   4.528  1.8248  0.1833 -2.1719
   32MOL   H41415976   2.643   5.948   4.426 -0.9066 -0.4713 -0.8563
   32MOL   H41515977   2.733   6.002   4.287 -2.7695 -1.2259 -0.6560
   32MOL   H41615978   2.738   6.232   4.470  0.5363  0.4457 -1.7065
   32MOL   H41715979   2.605   6.138   4.532 -1.5491  1.8255 -0.7445
   32MOL   H41815980   2.493   6.129   4.313 -1.7728  0.0767  0.6376
   32MOL   H41915981   2.491   6.286   4.389 -1.2304  0.3162 -1.8433
   32MOL   H42015982   2.672   6.362   4.222 -1.6744  0.5974  0.2246
   32MOL   H42115983   2.665   6.204   4.155  1.0369  0.3474  1.0350
   32MOL   H42215984   2.428   6.227   4.077  0.3491  0.1612 -1.4883
   32MOL   H42315985   2.424   6.383   4.153  1.9159 -0.5232  1.7890
   32MOL   H42415986   2.479   6.419   3.917  0.0757 -0.3315  0.0346
   32MOL   H42515987   2.629   6.431   3.994 -0.7268  0.1312 -0.5431
   32MOL   H42615988   2.585   6.278   3.915 -0.6759  0.1850 -1.6618
   32MOL   C42715989   2.964   5.855   4.315  0.1445  0.2368 -0.0722
   32MOL   C42815990   3.092   5.936   4.302  0.8701 -0.1960 -0.5394
   32MOL   O42915991   3.181   5.895   4.407  0.4190 -0.0380  0.4210
   32MOL   C43015992   3.239   6.005   4.476  1.0347 -0.2432 -0.5580
   32MOL   C43115993   3.335   5.968   4.588  0.0379  0.1005  0.7045
   32MOL   C43215994   3.389   6.086   4.669 -0.2488  0.3343  0.7472
   32MOL   C43315995   3.276   6.153   4.759  0.8391 -0.2502 -0.2816
   32MOL   C43415996   3.308   6.251   4.870  0.0055  0.2322 -0.5243
   32MOL   C43515997   3.383   6.186   4.996 -0.4992  0.0342  0.0771
   32MOL   H43615998   2.999   5.753   4.298  0.1980  0.0378  1.2447
   32MOL   H43715999   2.900   5.884   4.231  1.8869  1.6907 -0.9405
   32MOL   H43816000   3.056   6.039   4.310 -2.6600 -1.3585 -0.5964
   32MOL   H43916001   3.164   6.080   4.503  0.4046 -0.9285 -0.3787
   32MOL   H44016002   3.297   6.055   4.398 -1.6228 -0.5864 -2.8741
   32MOL   H44116003   3.414   5.921   4.530  1.2195  0.3882  2.0474
   32MOL   H44216004   3.287   5.889   4.644  1.7569 -2.2616 -1.0623
   32MOL   H44316005   3.466   6.047   4.736  1.5828  0.4992 -1.1996
   32MOL   H44416006   3.436   6.160   4.605  1.6300 -0.3404  1.3241
   32MOL   H44516007   3.195   6.193   4.698  0.7714  1.2855  0.8017
   32MOL   H44616008   3.228   6.068   4.807  2.2156 -2.0106 -1.9307
   32MOL   H44716009   3.368   6.333   4.831 -0.1037  1.4379  1.7329
   32MOL   H44816010   3.222   6.302   4.914 -0.8723 -1.7361  0.0943
   32MOL   H44916011   3.387   6.250   5.083 -0.5883  1.0240 -0.6387
   32MOL   H45016012   3.318   6.104   5.027 -0.7939 -0.2244 -1.2023
   32MOL   H45116013   3.477   6.143   4.961  0.0104  0.7105  0.5961
   32MOL   C45216014   3.159   5.917   4.167  1.0152 -0.3504 -0.3612
   32MOL   C45316015   3.096   6.000   4.046 -0.0220  0.8334 -0.1164
   32MOL   O45416016   2.960   5.965   4.024 -0.4464 -0.4618  0.0218
   32MOL   C45516017   2.888   6.058   3.950 -0.2035 -0.0416  1.2163
   32MOL   C45616018   2.779   5.986   3.874  0.4324 -0.5627 -0.7850
   32MOL   C45716019   2.831   5.900   3.758  0.0536 -0.0929  0.7285
   32MOL   C45816020   2.903   5.962   3.639 -0.2784 -0.0513 -0.0013
   32MOL   C45916021   2.809   6.048   3.548  0.1540  0.4052  0.0920
   32MOL   C46016022   2.898   6.125   3.448 -0.8602 -0.8493 -0.6922
   32MOL   H46116023   3.266   5.931   4.182  0.7200  0.9352  0.6598
   32MOL   H46216024   3.142   5.814   4.135 -2.8702 -0.9152  3.1049
   32MOL   H46316025   3.107   6.106   4.067  0.5580  1.3604 -2.8928
   32MOL   H46416026   2.949   6.121   3.885 -0.1540 -1.9914 -0.6664
   32MOL   H46516027   2.856   6.137   4.019  0.0794 -0.0730  1.3825
   32MOL   H46616028   2.723   6.068   3.829  0.9439  0.2927  0.1174
   32MOL   H46716029   2.723   5.929   3.948  3.0900  0.0460  1.7822
   32MOL   H46816030   2.890   5.822   3.805 -0.5732 -0.0929  1.5454
   32MOL   H46916031   2.744   5.846   3.720  0.0403  1.4032 -1.4260
   32MOL   H47016032   2.984   6.026   3.672  1.1376 -2.3738  1.1596
   32MOL   H47116033   2.953   5.880   3.587 -0.6024  0.8278 -1.7449
   32MOL   H47216034   2.752   5.976   3.488 -1.5580  1.0331  0.9391
   32MOL   H47316035   2.746   6.117   3.604 -0.9654  0.3428 -1.0790
   32MOL   H47416036   2.951   6.207   3.495 -1.4238 -0.8380 -0.0683
   32MOL   H47516037   2.968   6.064   3.392  0.3122  0.9163 -1.1811
   32MOL   H47616038   2.834   6.179   3.377 -0.8996 -0.4663 -0.3657
   32MOL   C47716039   3.172   5.959   3.911 -0.3164  0.1924  0.2066
   32MOL   C47816040   3.261   6.074   3.858  0.1871 -0.1010  0.0029
   32MOL   O47916041   3.180   6.180   3.809 -0.2192 -0.1728  0.2940
   32MOL   C48016042   3.262   6.286   3.780 -0.5017 -0.2267  0.5819
   32MOL   C48116043   3.180   6.412   3.727  0.1574  0.4387  0.2401
   32MOL   C48216044   3.264   6.531   3.675 -0.0680 -0.8519 -0.0968
   32MOL   C48316045   3.169   6.641   3.626 -0.0321  0.1313  0.2620
   32MOL   C48416046   3.253   6.762   3.582  0.4291 -0.3658  0.5163
   32MOL   C48516047   3.152   6.862   3.530 -0.5615  0.2256 -0.4924
   32MOL   H48616048   3.239   5.874   3.924 -1.3516 -0.8281 -1.0131
   32MOL   H48716049   3.100   5.923   3.838  0.0480  1.0418 -0.5871
   32MOL   H48816050   3.332   6.108   3.934 -1.1938  1.4733  0.6363
   32MOL   H48916051   3.343   6.255   3.714 -0.8223 -1.7900  0.9154
   32MOL   H49016052   3.320   6.319   3.866  0.7818  0.3526 -0.4753
   32MOL   H49116053   3.112   6.445   3.806 -1.1125 -0.8518 -0.2742
   32MOL   H49216054   3.115   6.385   3.643  2.5649 -0.9451 -1.2270
   32MOL   H49316055   3.337   6.572   3.745  0.8830  3.2496 -3.2829
   32MOL   H49416056   3.322   6.496   3.590  0.4776  0.2339 -0.1856
   32MOL   H49516057   3.122   6.591   3.541  0.2637 -0.8006  0.6341
   32MOL   H49616058   3.096   6.675   3.699  0.7127 -0.1269  1.1331
   32MOL   H49716059   3.300   6.806   3.670 -3.0302 -1.5393  3.0339
   32MOL   H49816060   3.318   6.739   3.497  0.8505  0.8057  0.5113
   32MOL   H49916061   3.206   6.950   3.495  0.8300 -0.3733  0.1124
   32MOL   H50016062   3.096   6.823   3.445 -0.4515 -0.4467 -0.2540
   32MOL   H50116063   3.082   6.894   3.607  0.0598 -0.0293  0.1856
   32MOL   H50216064   3.330   6.037   3.782 -0.4081 -0.5369 -0.3327
   33MOL     C116065   3.455   6.963   1.630  0.6361  0.4409  0.2560
   33MOL     C216066   3.358   7.016   1.741 -0.1169  0.1687  0.0797
   33MOL     O316067   3.229   6.963   1.719 -0.2046  0.4563 -0.1603
   33MOL     C416068   3.207   6.850   1.801  0.4536  0.4718  0.7865
   33MOL     C516069   3.065   6.806   1.785 -0.4830  0.1027 -0.4092
   33MOL     C616070   2.977   6.910   1.858 -0.1028  1.2184 -0.0917
   33MOL     C716071   2.831   6.870   1.862 -0.0455  0.6424  0.0457
   33MOL     C816072   2.742   6.859   1.737 -0.6347 -0.0867  0.3781
   33MOL     C916073   2.709   6.995   1.681  0.0679 -0.2465 -0.7778
   33MOL    H1016074   3.554   7.003   1.652  0.0820  0.8837  2.0589
   33MOL    H1116075   3.443   6.855   1.631  0.8301  0.3675  4.4245
   33MOL    H1216076   3.388   6.993   1.843 -0.5637  4.5681  1.2989
   33MOL    H1316077   3.233   6.868   1.905 -0.2890  2.6127  0.6171
   33MOL    H1416078   3.278   6.776   1.764  0.3355  0.1449  1.2192
   33MOL    H1516079   3.064   6.709   1.835 -1.6127  1.1125  1.5837
   33MOL    H1616080   3.039   6.799   1.679 -1.1199 -2.1600 -0.1353
   33MOL    H1716081   3.021   6.930   1.956 -0.0484 -2.3726  0.6883
   33MOL    H1816082   2.999   7.003   1.805 -0.8417  2.5696  1.8789
   33MOL    H1916083   2.817   6.782   1.924  1.2163  1.8277  2.0745
   33MOL    H2016084   2.781   6.946   1.922 -1.0721  0.9333 -1.1505
   33MOL    H2116085   2.652   6.819   1.785  0.2965 -1.0208  1.3665
   33MOL    H2216086   2.782   6.784   1.669 -0.7122 -1.0807  1.4127
   33MOL    H2316087   2.661   7.064   1.751  0.6534 -2.8598  2.3069
   33MOL    H2416088   2.804   7.042   1.657  0.1084 -0.4950 -1.1062
   33MOL    H2516089   2.655   6.993   1.586 -1.2291  1.9232 -0.1305
   33MOL    H2616090   3.421   6.992   1.530 -3.4453  1.9369  1.9504
   33MOL    C2716091   3.354   7.168   1.749  0.0203 -0.3590  0.0425
   33MOL    C2816092   3.267   7.230   1.857 -0.0218 -0.3453 -0.0765
   33MOL    O2916093   3.335   7.261   1.975 -0.0461  0.2653  0.5796
   33MOL    C3016094   3.326   7.164   2.078  0.2377  0.3367  0.8313
   33MOL    C3116095   3.466   7.172   2.144  0.8391  0.0647 -0.2022
   33MOL    C3216096   3.582   7.141   2.047 -0.0611  0.1602  0.2891
   33MOL    C3316097   3.718   7.121   2.113  0.4041  0.2814  0.0446
   33MOL    C3416098   3.831   7.062   2.020  0.3016  0.5300  0.5262
   33MOL    C3516099   3.973   7.102   2.060 -0.5930  0.2796 -0.3572
   33MOL    H3616100   3.455   7.208   1.761  0.0742  0.2198 -2.1240
   33MOL    H3716101   3.325   7.202   1.650  0.8532  1.1013  0.2736
   33MOL    H3816102   3.185   7.160   1.873 -0.2445 -0.2834 -0.9393
   33MOL    H3916103   3.301   7.065   2.039 -1.0762  1.1628 -0.4934
   33MOL    H4016104   3.247   7.171   2.152 -0.4953 -0.4820  0.1431
   33MOL    H4116105   3.468   7.101   2.227 -0.0883  0.5833  0.2726
   33MOL    H4216106   3.475   7.274   2.182  1.7706 -0.3042  0.5727
   33MOL    H4316107   3.555   7.062   1.977  0.1314 -0.0870  0.4902
   33MOL    H4416108   3.593   7.222   1.975 -0.4815  1.5601  1.7686
   33MOL    H4516109   3.753   7.213   2.158  1.8259  0.4094 -1.2823
   33MOL    H4616110   3.697   7.065   2.204 -1.7904 -1.5507 -1.5173
   33MOL    H4716111   3.840   6.955   2.040  0.4958  0.6550  1.1172
   33MOL    H4816112   3.803   7.091   1.919  2.8767  0.7493 -0.1421
   33MOL    H4916113   4.049   7.050   2.002  0.6883  1.0980  0.5629
   33MOL    H5016114   3.987   7.208   2.036  0.1663  0.4516  0.8170
   33MOL    H5116115   3.994   7.090   2.166 -0.0215 -1.9564 -0.7081
   33MOL    C5216116   3.204   7.371   1.827  0.2835  0.5055 -0.0393
   33MOL    C5316117   3.112   7.418   1.933 -0.5223  0.1395 -0.9568
   33MOL    O5416118   3.062   7.545   1.906  0.0535  0.0322  0.1984
   33MOL    C5516119   3.144   7.667   1.941  0.0046  0.1204 -0.7269
   33MOL    C5616120   3.070   0.019   1.898  0.0539  0.0313 -1.0298
   33MOL    C5716121   3.129   0.152   1.956 -0.3644 -0.0131  0.3261
   33MOL    C5816122   3.029   0.271   1.955  0.0784  0.1973  0.2803
   33MOL    C5916123   2.977   0.298   1.815 -0.1133  0.3811 -0.3708
   33MOL    C6016124   2.901   0.422   1.796 -0.5024  0.0966  0.2310
   33MOL    H6116125   3.164   7.382   1.727  1.0711 -0.5355 -0.4698
   33MOL    H6216126   3.285   7.444   1.830  0.5577  0.1771  0.7401
   33MOL    H6316127   3.169   7.421   2.027 -2.1328 -0.9870  0.0662
   33MOL    H6416128   3.238   7.655   1.888 -0.2516  0.9071 -1.3759
   33MOL    H6516129   3.165   7.663   2.048 -0.6117  2.0735 -0.5200
   33MOL    H6616130   2.969   0.013   1.938  0.1955 -0.4515 -0.7380
   33MOL    H6716131   3.059   0.018   1.789  2.1267 -1.1236 -1.2601
   33MOL    H6816132   3.162   0.136   2.058 -0.5224 -0.4824  0.3058
   33MOL    H6916133   3.223   0.180   1.907  0.6769 -1.5749  1.3993
   33MOL    H7016134   2.939   0.247   2.010 -0.1742  2.4460  0.8956
   33MOL    H7116135   3.069   0.366   1.992 -1.1108  1.1095 -0.7195
   33MOL    H7216136   3.050   0.276   1.738 -1.2370  0.9728 -1.6340
   33MOL    H7316137   2.904   0.217   1.816 -0.8277  1.0113 -0.3783
   33MOL    H7416138   2.826   0.434   1.874  1.3187  0.7758  1.9140
   33MOL    H7516139   2.973   0.504   1.797 -0.9141  0.4581  1.4642
   33MOL    H7616140   2.845   0.421   1.702  2.4411 -0.9838 -1.5729
   33MOL    C7716141   2.982   7.333   1.965 -0.6140 -0.2126 -0.1993
   33MOL    C7816142   2.891   7.383   2.071 -0.1442 -0.5379 -0.0318
   33MOL    O7916143   2.938   7.336   2.197 -0.2949  0.3561 -0.4224
   33MOL    C8016144   3.006   7.430   2.281 -0.3475 -0.3357  0.2136
   33MOL    C8116145   3.020   7.356   2.415  0.6037  0.4391  0.5900
   33MOL    C8216146   3.138   7.256   2.440  0.3354  0.2556  0.2956
   33MOL    C8316147   3.130   7.202   2.582 -0.0943  0.3166  0.2745
   33MOL    C8416148   3.237   7.095   2.608 -0.2373  0.5265 -0.0923
   33MOL    C8516149   3.208   7.030   2.740  0.3060 -0.4431  0.5528
   33MOL    H8616150   2.996   7.226   1.973  0.1784  0.0273  1.6659
   33MOL    H8716151   2.920   7.340   1.875 -1.0313  2.2035  0.2273
   33MOL    H8816152   2.865   7.489   2.067 -2.8226 -1.1285  0.4580
   33MOL    H8916153   2.947   7.521   2.286 -1.4545 -0.9611 -1.1001
   33MOL    H9016154   3.096   7.474   2.238 -2.5613  0.0308 -4.3472
   33MOL    H9116155   2.928   7.303   2.440  2.1071 -1.9582  1.2548
   33MOL    H9216156   3.038   7.437   2.486  0.0709  0.8945  0.2134
   33MOL    H9316157   3.143   7.179   2.363  1.2589  1.1650 -0.5777
   33MOL    H9416158   3.234   7.307   2.436  0.7110 -0.3894  1.1977
   33MOL    H9516159   3.140   7.284   2.652  0.2648  0.9985 -0.5664
   33MOL    H9616160   3.030   7.157   2.581  0.4731 -0.9615 -0.4479
   33MOL    H9716161   3.236   7.016   2.533 -0.9090  1.5630 -1.1915
   33MOL    H9816162   3.339   7.135   2.604 -0.6406  1.5118 -0.6847
   33MOL    H9916163   3.287   6.957   2.759  1.2630  0.2510 -0.6526
   33MOL   H10016164   3.199   7.098   2.824 -0.9533  0.3900 -0.2371
   33MOL   H10116165   3.119   6.967   2.735 -0.8235  1.1384  0.7025
   33MOL   C10216166   2.758   7.309   2.042 -0.3379 -0.7964 -0.1322
   33MOL   C10316167   2.634   7.329   2.140  1.0022 -0.3526 -0.1122
   33MOL   O10416168   2.662   7.292   2.277  0.0239 -0.1403 -0.0546
   33MOL   C10516169   2.675   7.152   2.287  0.2712  0.2319 -0.7224
   33MOL   C10616170   2.721   7.109   2.420  0.5834 -0.0515  0.1862
   33MOL   C10716171   2.682   6.966   2.444  0.0891  0.1311 -0.0993
   33MOL   C10816172   2.742   6.898   2.567  0.2771 -0.4451  0.2004
   33MOL   C10916173   2.750   7.000   2.685 -0.2074  0.7909 -0.5486
   33MOL   C11016174   2.626   7.037   2.766 -0.2725 -0.5532  0.1471
   33MOL   H11116175   2.728   7.332   1.940 -0.5255 -2.1275 -0.3893
   33MOL   H11216176   2.795   7.207   2.028  0.3982 -0.4891 -0.4050
   33MOL   H11316177   2.549   7.272   2.103  0.5507 -0.5553  1.2114
   33MOL   H11416178   2.738   7.098   2.217  1.5489  0.6861  0.0512
   33MOL   H11516179   2.573   7.113   2.282 -0.1007  0.9324  0.7786
   33MOL   H11616180   2.676   7.181   2.488 -0.7262  1.4722 -2.2421
   33MOL   H11716181   2.828   7.116   2.439  0.2227  1.3121  1.7383
   33MOL   H11816182   2.574   6.966   2.461  0.0343 -0.4394 -0.4481
   33MOL   H11916183   2.707   6.898   2.363  1.0968  1.7504 -1.1624
   33MOL   H12016184   2.688   6.811   2.604  1.8241 -1.4166  0.2343
   33MOL   H12116185   2.842   6.861   2.542 -0.4094 -1.2088 -1.4851
   33MOL   H12216186   2.814   6.957   2.763  0.4685 -2.3024 -2.7013
   33MOL   H12316187   2.795   7.095   2.659 -0.5450  1.4556  1.2239
   33MOL   H12416188   2.638   7.122   2.834 -0.9558 -0.1325 -0.2548
   33MOL   H12516189   2.550   7.070   2.695  0.0121  0.5260  0.3440
   33MOL   H12616190   2.595   6.948   2.821  0.4974 -1.0925 -0.2935
   33MOL   C12716191   2.600   7.477   2.144  0.0172  0.4453 -0.5844
   33MOL   C12816192   2.536   7.528   2.005  0.5029 -0.5395 -0.1369
   33MOL   O12916193   2.521   7.668   2.012 -0.0419  0.1383  0.1340
   33MOL   C13016194   2.647   7.730   1.997  0.7740 -0.7595 -0.3634
   33MOL   C13116195   2.648   0.111   2.006  0.9062  0.0160 -0.2333
   33MOL   C13216196   2.595   0.152   2.147  0.2812  0.5015  0.7803
   33MOL   C13316197   2.647   0.293   2.194  0.5237 -0.4209 -0.7688
   33MOL   C13416198   2.595   0.407   2.115 -0.0465 -0.1587 -0.4027
   33MOL   C13516199   2.615   0.542   2.185  0.0773 -0.2843 -0.6957
   33MOL   H13616200   2.543   7.492   2.236 -0.2788 -3.0459 -0.1174
   33MOL   H13716201   2.689   7.521   2.189  0.4226 -1.3375  0.4445
   33MOL   H13816202   2.594   7.497   1.918  0.5686 -0.4930 -0.1087
   33MOL   H13916203   2.692   7.705   1.901  1.6585  0.0208 -0.1572
   33MOL   H14016204   2.719   7.700   2.074  0.3991 -0.1150  0.2501
   33MOL   H14116205   2.584   0.151   1.928 -0.8098  2.9464  2.5685
   33MOL   H14216206   2.750   0.147   1.997  0.7137  0.5243 -0.3742
   33MOL   H14316207   2.487   0.156   2.134  0.1375  1.0026  2.0989
   33MOL   H14416208   2.624   0.083   2.226  0.3071  0.2551  0.5572
   33MOL   H14516209   2.619   0.308   2.299  0.5294  0.3785 -0.8830
   33MOL   H14616210   2.756   0.291   2.185  0.5294 -1.1814 -0.5469
   33MOL   H14716211   2.632   0.413   2.012  0.4786 -1.3121 -0.2937
   33MOL   H14816212   2.489   0.386   2.101 -0.2201 -0.0419  0.7090
   33MOL   H14916213   2.724   0.548   2.185  0.2448 -2.4655 -2.1300
   33MOL   H15016214   2.562   0.618   2.129 -0.2110  0.7046  0.9012
   33MOL   H15116215   2.575   0.545   2.287  1.1640  0.1834 -0.2805
   33MOL   C15216216   2.397   7.472   1.982 -1.0515  0.1097 -0.3601
   33MOL   C15316217   2.337   7.525   1.852  0.3076  0.8613  0.6315
   33MOL   O15416218   2.408   7.449   1.753  0.2260 -0.3138  0.1679
   33MOL   C15516219   2.404   7.509   1.624  0.7214  0.1658 -0.4555
   33MOL   C15616220   2.516   7.441   1.538 -0.0210  0.0032  0.0806
   33MOL   C15716221   2.655   7.463   1.589 -1.1800  0.6802  0.1557
   33MOL   C15816222   2.691   7.616   1.589 -0.1468  0.1676  0.7174
   33MOL   C15916223   2.830   7.642   1.654 -0.2033 -0.3718  0.4247
   33MOL   C16016224   2.948   7.598   1.561 -0.1062  0.1665  0.5890
   33MOL   H16116225   2.409   7.366   1.964  2.8787  0.4370 -0.0326
   33MOL   H16216226   2.328   7.489   2.066 -1.1058  0.0496 -0.3922
   33MOL   H16316227   2.366   7.629   1.836 -2.6300  1.5247 -0.7538
   33MOL   H16416228   2.397   7.618   1.618 -0.6599  0.0900 -0.2502
   33MOL   H16516229   2.307   7.477   1.586  1.3965  0.2190 -2.2762
   33MOL   H16616230   2.502   7.476   1.436  0.9314 -0.1193 -0.1028
   33MOL   H16716231   2.492   7.335   1.545 -1.1069  0.3499  2.0837
   33MOL   H16816232   2.664   7.423   1.690  2.5853  0.0491 -0.3622
   33MOL   H16916233   2.721   7.407   1.523 -1.8983 -0.6004  0.5056
   33MOL   H17016234   2.688   7.660   1.489  0.5921  1.1098  1.0996
   33MOL   H17116235   2.618   7.672   1.647  0.6185  0.7217  1.1641
   33MOL   H17216236   2.843   7.745   1.687  0.9132 -0.6302  0.8145
   33MOL   H17316237   2.829   7.583   1.746 -1.5284  0.2910  0.8407
   33MOL   H17416238   2.936   7.611   1.453  2.3215  0.6104  0.3530
   33MOL   H17516239   3.041   7.643   1.594 -0.3871  1.7368 -0.6829
   33MOL   H17616240   2.950   7.490   1.577 -0.2720 -0.1023 -1.0835
   33MOL   C17716241   2.185   7.501   1.838 -0.5819  0.4263 -0.0454
   33MOL   C17816242   2.097   7.618   1.841  0.5049  0.1041  0.4167
   33MOL   O17916243   1.964   7.578   1.797 -0.4793 -0.2081  0.8958
   33MOL   C18016244   1.927   7.615   1.662 -0.1968  0.4093 -0.0018
   33MOL   C18116245   1.766   7.613   1.644  0.7528  0.6729  0.0666
   33MOL   C18216246   1.727   7.621   1.499  0.0995 -0.2961  0.0176
   33MOL   C18316247   1.583   7.625   1.472  0.3108 -0.1917 -0.3776
   33MOL   C18416248   1.548   7.595   1.326  0.1893 -1.4052 -0.5473
   33MOL   C18516249   1.403   7.536   1.313  0.2850 -0.1282 -0.1122
   33MOL   H18616250   2.172   7.444   1.746 -1.8108 -1.2689  1.1746
   33MOL   H18716251   2.155   7.427   1.911  0.1409 -0.5099 -0.6865
   33MOL   H18816252   2.139   7.703   1.788 -1.5626 -0.6821 -2.6556
   33MOL   H18916253   1.969   7.536   1.600 -2.6427 -2.4100  1.7901
   33MOL   H19016254   1.969   7.714   1.643  0.9640 -0.1911 -0.5643
   33MOL   H19116255   1.727   7.695   1.705  0.5733 -0.0568  0.9439
   33MOL   H19216256   1.730   7.517   1.679 -2.5251  1.3041 -1.4358
   33MOL   H19316257   1.776   7.711   1.462  2.8124 -1.3117  0.9951
   33MOL   H19416258   1.781   7.541   1.448  1.5031 -0.6082  1.9305
   33MOL   H19516259   1.539   7.542   1.526 -0.6535 -0.3015 -1.3133
   33MOL   H19616260   1.549   7.723   1.505 -1.0253 -0.1842 -1.7497
   33MOL   H19716261   1.544   7.684   1.263 -0.6709 -0.7181  0.4583
   33MOL   H19816262   1.625   7.527   1.289  0.2063 -0.9362 -1.3692
   33MOL   H19916263   1.365   7.527   1.211 -0.8105 -2.0305  0.4441
   33MOL   H20016264   1.403   7.439   1.362  1.0730 -0.5575 -0.9521
   33MOL   H20116265   1.333   7.612   1.349  0.5133  0.3651 -0.6924
   33MOL   C20216266   2.083   7.663   1.988 -0.9412 -0.5500  0.6304
   33MOL   C20316267   1.995   0.013   2.008  0.0778  0.3503 -0.3230
   33MOL   O20416268   1.858   7.762   1.974 -0.0551  0.2879 -0.1940
   33MOL   C20516269   1.788   7.681   2.062 -0.4522  0.2713  0.1909
   33MOL   C20616270   1.665   7.623   2.001 -0.6589  0.2576 -0.3857
   33MOL   C20716271   1.600   7.505   2.073 -0.1921  0.1333 -0.1772
   33MOL   C20816272   1.488   7.445   1.992 -1.3689  0.3787  0.3437
   33MOL   C20916273   1.388   7.357   2.076 -0.4131 -0.0184 -0.3440
   33MOL   C21016274   1.285   7.291   1.986 -0.1803  0.1464  0.0747
   33MOL   H21116275   2.056   7.576   2.048  1.1378 -3.2320 -2.1260
   33MOL   H21216276   2.180   7.696   2.026 -1.1783  0.1238  0.6553
   33MOL   H21316277   2.004   0.044   2.113  1.5300  1.7436 -0.8409
   33MOL   H21416278   1.748   7.735   2.148  0.6132 -2.0466  2.2241
   33MOL   H21516279   1.843   7.599   2.109  0.4000  0.5137 -0.3800
   33MOL   H21616280   1.699   7.590   1.903 -1.1645 -0.4392 -0.3299
   33MOL   H21716281   1.584   7.696   1.990 -1.9034 -1.0703 -0.1621
   33MOL   H21816282   1.665   7.417   2.078  1.5447  1.3844 -0.0605
   33MOL   H21916283   1.568   7.532   2.174 -1.9088  4.8709 -1.8920
   33MOL   H22016284   1.427   7.525   1.948  1.1553  0.9618 -2.2571
   33MOL   H22116285   1.531   7.380   1.916  1.0391  0.4330  1.6112
   33MOL   H22216286   1.442   7.281   2.131  0.0258  1.8147  1.8314
   33MOL   H22316287   1.338   7.408   2.159  1.2326  0.0817  0.5990
   33MOL   H22416288   1.217   7.241   2.055 -1.1831  0.5123 -0.6452
   33MOL   H22516289   1.218   7.360   1.936 -0.5501 -0.7934 -0.7333
   33MOL   H22616290   1.331   7.225   1.912  0.3107 -1.6433  1.9124
   33MOL   C22716291   2.041   0.131   1.925  0.4393 -0.5354  0.0056
   33MOL   C22816292   1.985   0.270   1.963  0.4027 -0.0717 -0.0475
   33MOL   O22916293   2.052   0.371   1.885 -0.2261 -0.3090  0.4921
   33MOL   C23016294   2.180   0.423   1.922  0.0042  0.1554 -0.1051
   33MOL   C23116295   2.219   0.532   1.827  0.4738 -0.3884  0.4362
   33MOL   C23216296   2.366   0.575   1.820  0.3567  0.4337 -0.0925
   33MOL   C23316297   2.382   0.714   1.748  0.2013  0.5284  0.1385
   33MOL   C23416298   2.530   0.760   1.765 -0.3097  0.1222 -0.1032
   33MOL   C23516299   2.544   0.915   1.744 -0.3300 -0.3635  0.2739
   33MOL   H23616300   2.148   0.140   1.947  0.5357  1.4395 -1.1225
   33MOL   H23716301   2.034   0.112   1.818  0.5579  2.1184 -0.5163
   33MOL   H23816302   2.003   0.284   2.070 -0.1150  0.0906  0.0243
   33MOL   H23916303   2.248   0.339   1.908 -0.4225 -0.4182  1.1636
   33MOL   H24016304   2.172   0.454   2.026 -1.2323 -3.1370  0.8728
   33MOL   H24116305   2.147   0.613   1.841  1.9482  0.9442  0.3762
   33MOL   H24216306   2.193   0.491   1.729  1.5768 -1.0981  0.4341
   33MOL   H24316307   2.381   0.583   1.928  0.7352  0.7160 -0.1673
   33MOL   H24416308   2.428   0.497   1.776  0.2570  0.2016  0.1763
   33MOL   H24516309   2.355   0.708   1.642 -0.7627 -1.6883  0.4776
   33MOL   H24616310   2.323   0.795   1.791 -0.9989 -1.2371  1.8452
   33MOL   H24716311   2.570   0.734   1.863  0.1336  0.2980 -0.2325
   33MOL   H24816312   2.602   0.708   1.701 -0.5898 -0.5269  0.1131
   33MOL   H24916313   2.539   0.941   1.638 -0.4765 -1.2702  0.0540
   33MOL   H25016314   2.465   0.976   1.789 -0.3776  0.5045 -0.9587
   33MOL   H25116315   2.640   0.944   1.786 -1.7581  0.1762  3.3188
   33MOL   C25216316   1.834   0.287   1.932 -0.2664 -0.3750 -0.1452
   33MOL   C25316317   1.789   0.422   1.982  0.0059  0.2682  0.0594
   33MOL   O25416318   1.649   0.414   2.031 -0.0178  0.4942 -0.1776
   33MOL   C25516319   1.632   0.361   2.161 -0.0007  0.1298  0.2958
   33MOL   C25616320   1.478   0.349   2.158  0.7555 -0.0568 -0.3325
   33MOL   C25716321   1.432   0.211   2.099  0.0779 -0.0361  0.1189
   33MOL   C25816322   1.281   0.187   2.082 -1.0027 -0.0325  0.4060
   33MOL   C25916323   1.253   0.037   2.064  0.2370 -0.1063 -0.3005
   33MOL   C26016324   1.101   0.002   2.050 -0.1280  0.2104 -0.3208
   33MOL   H26116325   1.809   0.277   1.826 -2.0954 -0.2484  0.2655
   33MOL   H26216326   1.780   0.210   1.986  0.5315 -0.8732 -0.0603
   33MOL   H26316327   1.855   0.449   2.064 -1.5037  1.9223  0.7677
   33MOL   H26416328   1.670   0.435   2.232 -0.0933 -0.0460  0.5297
   33MOL   H26516329   1.678   0.262   2.169 -1.7843 -0.4866  3.5841
   33MOL   H26616330   1.437   0.436   2.108  2.5420  0.7258 -0.4749
   33MOL   H26716331   1.435   0.366   2.257 -1.0267 -1.5735 -0.8111
   33MOL   H26816332   1.482   0.184   2.006 -2.6293 -0.5681 -1.2260
   33MOL   H26916333   1.466   0.136   2.171 -1.4873 -0.0073  0.9137
   33MOL   H27016334   1.225   0.227   2.167 -0.1783  0.0111  0.9339
   33MOL   H27116335   1.242   0.232   1.991 -0.6723  0.6301  0.5864
   33MOL   H27216336   1.307   0.010   1.973  0.3370 -0.4994 -0.1242
   33MOL   H27316337   1.299   7.755   2.142 -0.4031 -0.4651 -0.1970
   33MOL   H27416338   1.078   7.693   1.988 -0.2921  0.0957 -0.0990
   33MOL   H27516339   1.061   7.766   2.151 -1.7172 -1.4753 -1.1600
   33MOL   H27616340   1.038   0.074   1.998 -1.2518  0.4176  1.2820
   33MOL   C27716341   1.792   0.524   1.866  0.9479 -0.0845  0.1330
   33MOL   C27816342   1.740   0.661   1.913  0.0612  0.0545  0.1134
   33MOL   O27916343   1.851   0.744   1.909 -0.8553 -0.7033  0.0768
   33MOL   C28016344   1.851   0.856   1.997  0.1719 -0.3254 -0.0271
   33MOL   C28116345   1.992   0.897   2.047 -0.8503 -0.5186  0.1393
   33MOL   C28216346   2.065   0.780   2.115  0.8499 -0.4492 -0.4710
   33MOL   C28316347   2.177   0.829   2.207 -0.7309  0.2447 -0.2744
   33MOL   C28416348   2.268   0.715   2.264 -0.5606  0.2544 -0.6688
   33MOL   C28516349   2.334   0.763   2.392  0.7536 -0.3709 -0.0772
   33MOL   H28616350   1.888   0.518   1.814  0.4820 -0.9182 -0.6522
   33MOL   H28716351   1.726   0.485   1.788  0.4100 -0.6347  0.8573
   33MOL   H28816352   1.714   0.654   2.018 -1.5795  2.7852 -0.0662
   33MOL   H28916353   1.799   0.830   2.089  0.2167 -1.2049 -0.2485
   33MOL   H29016354   1.803   0.943   1.952  2.5737  1.2881  0.4149
   33MOL   H29116355   1.989   0.984   2.114 -0.3286 -0.5395  0.1907
   33MOL   H29216356   2.045   0.922   1.956  0.3842  1.4467  1.3475
   33MOL   H29316357   1.989   0.719   2.163  0.6396 -1.1546 -1.7056
   33MOL   H29416358   2.117   0.718   2.043 -1.1148 -1.0995 -1.3420
   33MOL   H29516359   2.235   0.910   2.163 -2.2273 -0.3937 -3.4932
   33MOL   H29616360   2.126   0.893   2.279 -0.5355  0.8407 -0.6644
   33MOL   H29716361   2.203   0.633   2.292 -0.4057  0.2642 -0.2676
   33MOL   H29816362   2.346   0.688   2.194 -0.1856  0.6645 -0.4139
   33MOL   H29916363   2.393   0.677   2.425 -0.1002 -1.2215 -0.7554
   33MOL   H30016364   2.401   0.847   2.372  0.9605 -0.0645  1.7440
   33MOL   H30116365   2.261   0.775   2.472  0.3488  0.0427 -0.5018
   33MOL   C30216366   1.646   0.719   1.808  0.6895  0.4369 -0.0952
   33MOL   C30316367   1.503   0.662   1.833 -0.0947  0.5691  0.2484
   33MOL   O30416368   1.498   0.563   1.735  0.1961 -0.5106  0.2801
   33MOL   C30516369   1.445   0.441   1.780 -0.1921  0.1278 -0.1429
   33MOL   C30616370   1.432   0.348   1.655 -0.5630  0.0913  0.0750
   33MOL   C30716371   1.561   0.279   1.622  0.2760 -0.4013 -0.1454
   33MOL   C30816372   1.654   0.356   1.526  0.1600 -0.2370  0.1143
   33MOL   C30916373   1.757   0.264   1.459 -0.3022  0.0241  0.5985
   33MOL   C31016374   1.852   0.202   1.558  0.1872 -0.6111 -0.2456
   33MOL   H31116375   1.645   0.825   1.834  1.5319  0.3531  0.2956
   33MOL   H31216376   1.674   0.713   1.703 -1.1505  1.9355 -0.6957
   33MOL   H31316377   1.497   0.630   1.937  1.6680 -0.6504 -0.0077
   33MOL   H31416378   1.345   0.448   1.824 -0.3936 -0.0411 -0.5826
   33MOL   H31516379   1.505   0.394   1.858  0.3544  0.1706 -0.5359
   33MOL   H31616380   1.396   0.408   1.572 -0.9593 -1.6646 -1.0394
   33MOL   H31716381   1.349   0.285   1.688 -0.3900 -1.0971 -1.7219
   33MOL   H31816382   1.619   0.239   1.706  1.1803 -0.6589 -0.8801
   33MOL   H31916383   1.530   0.187   1.572  0.9811 -0.7686  0.0797
   33MOL   H32016384   1.598   0.419   1.458  0.2006  1.2485  1.4178
   33MOL   H32116385   1.692   0.436   1.590  1.9120 -0.9702  0.0331
   33MOL   H32216386   1.704   0.182   1.411  0.9634  0.1815 -1.0777
   33MOL   H32316387   1.815   0.317   1.384 -0.4157 -0.0571  0.4529
   33MOL   H32416388   1.881   0.282   1.627 -2.3125 -0.5135  0.7462
   33MOL   H32516389   1.800   0.125   1.616 -0.3538 -0.2031 -0.1751
   33MOL   H32616390   1.945   0.176   1.509  0.0943 -0.9935 -0.2213
   33MOL   C32716391   1.406   0.775   1.784 -0.6657  0.5212 -0.0431
   33MOL   C32816392   1.261   0.743   1.785  0.5384 -0.3158  0.3766
   33MOL   O32916393   1.227   0.716   1.926  0.6215  0.0934 -0.7434
   33MOL   C33016394   1.107   0.638   1.936 -0.4442 -0.4650 -0.3264
   33MOL   C33116395   1.060   0.621   2.080  0.2525  0.1545 -0.2494
   33MOL   C33216396   1.154   0.538   2.167  0.5117 -0.9308  0.0017
   33MOL   C33316397   1.095   0.511   2.310 -0.0248 -0.0909  0.4948
   33MOL   C33416398   1.196   0.470   2.415 -0.3003 -0.6437  0.2983
   33MOL   C33516399   1.133   0.475   2.550 -0.0803  0.5050 -0.1052
   33MOL   H33616400   1.432   0.803   1.682 -3.7136  1.4987 -0.6052
   33MOL   H33716401   1.409   0.863   1.848 -0.3708  0.2126  0.3709
   33MOL   H33816402   1.244   0.653   1.726  1.8119 -1.0099  1.0373
   33MOL   H33916403   1.127   0.540   1.892 -0.7703 -0.3273 -0.7859
   33MOL   H34016404   1.012   0.666   1.891 -1.4037  0.0716  1.9218
   33MOL   H34116405   0.965   0.573   2.060  0.2703  0.0762 -0.1439
   33MOL   H34216406   1.046   0.722   2.121  1.1257  0.1365  0.1098
   33MOL   H34316407   1.175   0.447   2.111 -1.3284 -0.1318 -2.0584
   33MOL   H34416408   1.248   0.592   2.176  0.5218 -0.6927 -1.4099
   33MOL   H34516409   1.034   0.595   2.346 -1.0981  0.4282 -2.3454
   33MOL   H34616410   1.018   0.434   2.305  0.2979 -0.3829  0.0544
   33MOL   H34716411   1.238   0.374   2.385  0.1963  0.0489 -1.2842
   33MOL   H34816412   1.267   0.552   2.424  0.0521 -0.8394 -0.6075
   33MOL   H34916413   1.210   0.466   2.626 -0.1257 -0.5881 -0.1758
   33MOL   H35016414   1.079   0.569   2.565  2.4341  1.9418  0.1910
   33MOL   H35116415   1.076   0.382   2.560  0.1062  0.2950 -0.9390
   33MOL   C35216416   1.181   0.867   1.736  0.2079  0.4052 -0.1474
   33MOL   C35316417   1.189   0.900   1.583 -0.6335  0.5210 -0.0597
   33MOL   O35416418   1.151   1.034   1.578 -0.0940 -0.1215 -0.3862
   33MOL   C35516419   1.211   1.112   1.471  0.0405  0.2495  0.0669
   33MOL   C35616420   1.194   1.254   1.506 -0.0484  0.0803  0.2629
   33MOL   C35716421   1.313   1.350   1.481  0.2334 -0.3209 -0.4588
   33MOL   C35816422   1.357   1.357   1.335 -1.0450  0.0719 -0.0687
   33MOL   C35916423   1.447   1.479   1.307  0.5980 -0.4654  0.1912
   33MOL   C36016424   1.460   1.510   1.155 -0.1580  0.2375  0.9182
   33MOL   H36116425   1.084   0.865   1.785  0.2645 -0.2721 -0.0611
   33MOL   H36216426   1.222   0.957   1.782 -3.3012  1.6358  0.7626
   33MOL   H36316427   1.292   0.896   1.548 -0.3937  0.4330  0.6544
   33MOL   H36416428   1.188   1.096   1.365 -0.5096  0.1295  0.2060
   33MOL   H36516429   1.319   1.098   1.465  0.0235  0.2528 -0.2860
   33MOL   H36616430   1.164   1.257   1.611 -2.1286 -0.8982 -0.2658
   33MOL   H36716431   1.110   1.300   1.453 -0.3231 -0.3820  0.2929
   33MOL   H36816432   1.287   1.454   1.501 -0.5370 -0.2499 -1.8469
   33MOL   H36916433   1.401   1.323   1.540 -1.2265  2.2967  3.1029
   33MOL   H37016434   1.406   1.261   1.322 -1.2286  0.2339 -2.0169
   33MOL   H37116435   1.260   1.366   1.286 -1.0817  0.8983  0.1456
   33MOL   H37216436   1.396   1.568   1.345  0.4244  0.2355 -1.6767
   33MOL   H37316437   1.545   1.476   1.355  1.0996 -3.4745 -0.9186
   33MOL   H37416438   1.526   1.591   1.122  0.5123 -0.6568  0.0144
   33MOL   H37516439   1.495   1.424   1.097 -2.3685  1.3090 -2.1525
   33MOL   H37616440   1.359   1.524   1.117  0.6384 -0.6254 -1.6655
   33MOL   C37716441   1.114   0.812   1.488  0.2713  0.3310  0.4093
   33MOL   C37816442   1.189   0.690   1.437 -0.1474 -0.0856 -0.1304
   33MOL   O37916443   1.308   0.735   1.377  1.0786 -0.1104  0.1677
   33MOL   C38016444   1.423   0.655   1.400  0.6669 -0.2345 -0.3119
   33MOL   C38116445   1.536   0.723   1.327 -0.0609 -0.3352  0.3393
   33MOL   C38216446   1.517   0.755   1.178  0.2389 -0.3144  0.8345
   33MOL   C38316447   1.645   0.786   1.097 -0.0140 -0.3206 -0.8359
   33MOL   C38416448   1.619   0.866   0.971 -0.7712  0.0419  0.6377
   33MOL   C38516449   1.746   0.899   0.883 -0.6959 -0.3262 -0.2355
   33MOL   H38616450   1.020   0.782   1.534 -1.0714 -0.9299 -3.0112
   33MOL   H38716451   1.097   0.874   1.400  0.4842  2.5495  1.8841
   33MOL   H38816452   1.209   0.627   1.523  3.6549  1.1147 -0.0683
   33MOL   H38916453   1.411   0.555   1.357 -0.2495 -0.5727  0.6935
   33MOL   H39016454   1.433   0.655   1.508 -3.1027 -1.2997  0.1016
   33MOL   H39116455   1.620   0.655   1.340  0.3637  0.4816  2.0120
   33MOL   H39216456   1.565   0.812   1.382  2.4474 -1.3994  0.8204
   33MOL   H39316457   1.451   0.678   1.138  0.5661 -1.5591  2.6732
   33MOL   H39416458   1.449   0.840   1.188  1.1874  0.6653 -0.8001
   33MOL   H39516459   1.713   0.849   1.155  1.5622 -1.9789 -0.8366
   33MOL   H39616460   1.703   0.695   1.081  0.0289 -0.2188 -1.2540
   33MOL   H39716461   1.537   0.820   0.916  0.5393  1.2674 -2.4493
   33MOL   H39816462   1.571   0.958   1.004 -1.4103 -0.0029 -0.1516
   33MOL   H39916463   1.768   0.809   0.827  0.8704 -0.1284  0.0465
   33MOL   H40016464   1.734   0.986   0.819 -1.4874 -0.7242 -0.6297
   33MOL   H40116465   1.827   0.912   0.955 -0.3839  0.0864 -0.6537
   33MOL   C40216466   1.112   0.611   1.326  0.1329  0.2473 -0.1079
   33MOL   C40316467   0.996   0.537   1.393  0.0606 -0.8550 -0.0243
   33MOL   O40416468   1.051   0.439   1.485 -1.1636 -0.3561 -0.2594
   33MOL   C40516469   0.974   0.431   1.599 -0.2045 -0.3046 -0.6588
   33MOL   C40616470   1.025   0.311   1.688  0.1583 -0.0273 -0.1828
   33MOL   C40716471   1.077   0.190   1.608  0.0762 -0.3089  0.5443
   33MOL   C40816472   1.103   0.069   1.690 -0.2750 -0.1643  0.6156
   33MOL   C40916473   1.156   7.733   1.603 -0.4063 -0.5581  0.1538
   33MOL   C41016474   1.197   7.613   1.687 -0.6101 -0.4952 -0.1671
   33MOL   H41116475   1.164   0.526   1.282 -1.7057  0.2734 -2.4093
   33MOL   H41216476   1.094   0.672   1.237 -0.0792  1.1945  0.5707
   33MOL   H41316477   0.927   0.606   1.440 -0.3953 -1.1196 -0.3010
   33MOL   H41416478   0.870   0.415   1.570 -0.7712 -1.0351  1.6809
   33MOL   H41516479   0.973   0.521   1.660 -1.3822 -2.5457  2.7847
   33MOL   H41616480   0.945   0.269   1.749 -0.1616 -1.4937 -1.5849
   33MOL   H41716481   1.111   0.344   1.747  0.8171 -1.7927 -0.1357
   33MOL   H41816482   1.017   0.176   1.519 -1.4155  1.7317  1.1734
   33MOL   H41916483   1.170   0.223   1.561  0.2802 -1.9539 -0.2487
   33MOL   H42016484   1.181   0.097   1.761 -0.2270  0.0281  0.4898
   33MOL   H42116485   1.016   0.035   1.746  0.3938  0.2837  1.9470
   33MOL   H42216486   1.073   7.700   1.541 -1.2600  2.5184 -0.4138
   33MOL   H42316487   1.245   7.764   1.549 -0.9472  2.0548  0.6867
   33MOL   H42416488   1.234   7.541   1.614  0.3879 -1.9427  1.7441
   33MOL   H42516489   1.276   7.636   1.758 -1.0542 -1.8109  0.7741
   33MOL   H42616490   1.113   7.574   1.744 -2.3331 -0.5801 -2.6662
   33MOL   C42716491   0.917   0.463   1.277  0.2390  0.8294  0.1878
   33MOL   C42816492   0.859   0.550   1.169  0.4259 -0.3498 -0.3196
   33MOL   O42916493   0.788   0.461   1.082 -0.6570  0.2212  0.4089
   33MOL   C43016494   0.868   0.433   0.967  0.2413  0.3234 -0.3450
   33MOL   C43116495   0.773   0.369   0.868 -0.7514 -0.6177 -0.1185
   33MOL   C43216496   0.726   0.232   0.911  0.5200 -0.0949 -0.4700
   33MOL   C43316497   0.627   0.163   0.806  0.7339 -0.0716  0.2773
   33MOL   C43416498   0.606   0.014   0.846  0.0675  0.5632 -0.3336
   33MOL   C43516499   0.534   7.705   0.738 -0.1767  0.1709 -0.0546
   33MOL   H43616500   0.984   0.394   1.226 -0.8104 -0.8494  1.0514
   33MOL   H43716501   0.835   0.406   1.321  0.5195  0.5215  0.3141
   33MOL   H43816502   0.933   0.604   1.110 -0.7948  3.3162  1.3739
   33MOL   H43916503   0.954   0.374   0.999 -0.6377 -0.9632 -0.3372
   33MOL   H44016504   0.917   0.522   0.927 -0.3196  1.6996  1.8777
   33MOL   H44116505   0.826   0.373   0.773  0.1562  0.1560  0.4180
   33MOL   H44216506   0.689   0.436   0.848 -0.0193  0.5351  0.6215
   33MOL   H44316507   0.808   0.161   0.924 -0.9458 -1.5007  1.4011
   33MOL   H44416508   0.685   0.238   1.012 -1.0828  1.7647 -1.2138
   33MOL   H44516509   0.531   0.212   0.786  0.5308 -0.7495 -0.4111
   33MOL   H44616510   0.677   0.167   0.710  0.7324 -1.2235  0.2229
   33MOL   H44716511   0.701   7.749   0.876  0.5534  1.5741 -0.4540
   33MOL   H44816512   0.541   0.007   0.933 -2.4138 -2.1782 -2.2769
   33MOL   H44916513   0.451   7.761   0.697  0.8845  0.8784 -1.2523
   33MOL   H45016514   0.594   7.665   0.657  1.9784  1.8733  0.6687
   33MOL   H45116515   0.491   7.616   0.784  1.1440 -1.3899 -1.7938
   33MOL   C45216516   0.761   0.653   1.218 -0.2169  0.0046 -0.3243
   33MOL   C45316517   0.679   0.719   1.103  0.1027 -0.5763 -0.3931
   33MOL   O45416518   0.778   0.777   1.023 -0.2805 -0.3629  0.4726
   33MOL   C45516519   0.735   0.788   0.890 -0.6247  0.2920  0.1623
   33MOL   C45616520   0.860   0.825   0.819 -0.1675 -0.2315 -0.1721
   33MOL   C45716521   0.842   0.833   0.670 -0.1113 -0.2164 -0.3523
   33MOL   C45816522   0.968   0.807   0.585  0.1331  0.2935  0.2721
   33MOL   C45916523   1.034   0.676   0.618  0.1303 -0.0856 -0.1135
   33MOL   C46016524   1.114   0.606   0.516 -0.5329  0.2876  0.6008
   33MOL   H46116525   0.699   0.621   1.302  0.7454 -0.3926  0.2350
   33MOL   H46216526   0.816   0.728   1.275  0.7538 -1.3069  0.5027
   33MOL   H46316527   0.620   0.640   1.056  0.9358 -1.2869 -0.2454
   33MOL   H46416528   0.666   0.871   0.877 -0.8778 -0.2438 -1.9941
   33MOL   H46516529   0.678   0.700   0.861 -0.3242  0.0422  0.3204
   33MOL   H46616530   0.946   0.767   0.853 -1.3137 -2.2164 -0.6150
   33MOL   H46716531   0.894   0.924   0.850 -3.3333  0.7196  0.4334
   33MOL   H46816532   0.766   0.759   0.649  1.1632 -2.0893  1.4908
   33MOL   H46916533   0.788   0.922   0.636 -1.4949 -0.9933 -0.1984
   33MOL   H47016534   0.928   0.804   0.483 -2.2251  1.7297  1.1111
   33MOL   H47116535   1.030   0.896   0.593 -0.2448  0.5594  0.2525
   33MOL   H47216536   1.094   0.688   0.708  0.6871  0.0458 -0.5062
   33MOL   H47316537   0.959   0.607   0.658  0.2060  1.2198  2.4042
   33MOL   H47416538   1.146   0.511   0.558 -0.8616 -0.6948 -1.3349
   33MOL   H47516539   1.040   0.575   0.442  0.3947 -1.2241  0.2941
   33MOL   H47616540   1.186   0.666   0.461 -1.1660 -0.1316 -0.6998
   33MOL   C47716541   0.577   0.818   1.166  0.1375 -0.3065  0.2277
   33MOL   C47816542   0.427   0.777   1.153  0.3179  0.0930  0.5193
   33MOL   O47916543   0.398   0.652   1.211 -0.1636  0.5106 -0.4888
   33MOL   C48016544   0.261   0.624   1.224  0.3377  0.1853 -0.3971
   33MOL   C48116545   0.254   0.474   1.191 -0.3340 -0.3803 -0.4964
   33MOL   C48216546   0.262   0.450   1.042 -0.6774 -0.8545  0.4297
   33MOL   C48316547   0.252   0.297   1.027  0.4242 -0.1296  0.2086
   33MOL   C48416548   0.239   0.248   0.882  1.0291  0.0355  0.0978
   33MOL   C48516549   0.232   0.090   0.875 -0.3986 -0.2807 -0.5711
   33MOL   H48616550   0.593   0.827   1.273 -0.6613 -1.5813  0.4733
   33MOL   H48716551   0.600   0.916   1.125 -2.1476  0.1685 -0.0143
   33MOL   H48816552   0.380   0.866   1.193  1.7133  1.0900 -0.0028
   33MOL   H48916553   0.190   0.681   1.163 -0.0727  0.2331  0.1162
   33MOL   H49016554   0.233   0.651   1.326  0.7551  2.3138 -0.8226
   33MOL   H49116555   0.157   0.445   1.233 -0.9238  0.4509 -1.2574
   33MOL   H49216556   0.327   0.420   1.250 -1.7370 -1.5455  0.2031
   33MOL   H49316557   0.184   0.494   0.979  1.2842  1.0768 -0.6757
   33MOL   H49416558   0.359   0.487   1.011 -0.7908 -1.6303 -0.8906
   33MOL   H49516559   0.343   0.264   1.077 -0.3714 -0.7625  1.2486
   33MOL   H49616560   0.165   0.264   1.084  0.9851 -1.7135  0.1903
   33MOL   H49716561   0.150   0.294   0.838  1.9004  0.1492 -1.5956
   33MOL   H49816562   0.319   0.287   0.820  1.7079 -0.8581  0.4018
   33MOL   H49916563   0.302   0.040   0.942  1.4812  1.7435 -0.9858
   33MOL   H50016564   0.135   0.052   0.908  0.3313 -1.3891  0.3215
   33MOL   H50116565   0.252   0.056   0.773  0.1305  1.3089 -1.0141
   33MOL   H50216566   0.398   0.748   1.053  0.5680  1.8715 -0.0835
   34MOL     C116567   1.890   3.858   6.400  0.1622 -0.0822  0.0086
   34MOL     C216568   1.993   3.946   6.328 -0.2078 -0.0371 -0.2467
   34MOL     O316569   2.006   3.924   6.191  0.5192 -0.7493 -0.3669
   34MOL     C416570   1.886   3.963   6.115 -0.2253 -0.1204 -0.0128
   34MOL     C516571   1.882   3.885   5.979  0.4965 -0.0857 -0.6465
   34MOL     C616572   1.760   3.919   5.896  0.7767  0.3744  0.6969
   34MOL     C716573   1.782   3.882   5.750 -0.0914 -0.5199  0.9183
   34MOL     C816574   1.654   3.903   5.664 -0.0844 -0.4573  0.6840
   34MOL     C916575   1.541   3.799   5.704  0.3827  0.4195  0.1453
   34MOL    H1016576   1.908   3.752   6.381 -1.4132 -0.2788 -0.4972
   34MOL    H1116577   1.916   3.869   6.505  2.7762 -0.1199 -0.6108
   34MOL    H1216578   1.970   4.049   6.353  0.0359 -0.5238  2.1837
   34MOL    H1316579   1.883   4.072   6.106 -0.8205  0.0468  1.9114
   34MOL    H1416580   1.796   3.925   6.165 -1.0064  0.8100 -0.6798
   34MOL    H1516581   1.871   3.779   6.001  1.5042 -0.2445 -0.8798
   34MOL    H1616582   1.982   3.899   5.938  1.5753  0.7898  2.1477
   34MOL    H1716583   1.671   3.889   5.953  0.0250  1.0253 -0.1295
   34MOL    H1816584   1.757   4.028   5.895 -1.1747  0.3638  2.2405
   34MOL    H1916585   1.863   3.949   5.721 -2.5232  2.1774  0.1240
   34MOL    H2016586   1.810   3.779   5.730 -1.2086 -0.5330 -0.7125
   34MOL    H2116587   1.673   3.889   5.558  1.0914 -2.6481  1.1572
   34MOL    H2216588   1.618   4.006   5.672  0.8941 -0.1254  0.8679
   34MOL    H2316589   1.447   3.815   5.652 -0.8805 -1.8101  1.6783
   34MOL    H2416590   1.570   3.699   5.671 -1.0770  0.2610 -0.6751
   34MOL    H2516591   1.524   3.796   5.812  0.1011 -1.4557  0.0655
   34MOL    H2616592   1.788   3.895   6.388 -0.1980 -1.5433 -1.5851
   34MOL    C2716593   2.130   3.909   6.371 -0.4595 -0.5715 -0.0805
   34MOL    C2816594   2.233   4.021   6.338  0.2158  1.0210  0.2771
   34MOL    O2916595   2.193   4.145   6.409 -0.0409  0.6507  0.4567
   34MOL    C3016596   2.155   4.255   6.321 -0.1958 -0.2118  0.0872
   34MOL    C3116597   2.193   4.391   6.380 -0.1389 -0.4770  0.4739
   34MOL    C3216598   2.085   4.450   6.476 -0.2366 -0.0910 -0.2954
   34MOL    C3316599   2.133   4.579   6.549 -0.4568  1.0302  0.3195
   34MOL    C3416600   2.062   4.617   6.676 -0.5824  0.5713  0.0253
   34MOL    C3516601   2.105   4.742   6.757 -0.7081 -0.0413  0.2373
   34MOL    H3616602   2.142   3.903   6.479 -2.0689 -2.2720  0.0161
   34MOL    H3716603   2.164   3.814   6.331  2.2897  0.1047  0.5231
   34MOL    H3816604   2.224   4.033   6.230  2.8650  0.3867 -0.0551
   34MOL    H3916605   2.047   4.253   6.305 -0.1440 -1.5761 -0.1579
   34MOL    H4016606   2.213   4.240   6.230  0.8379 -2.0922  1.0315
   34MOL    H4116607   2.191   4.463   6.299  2.1998  1.0042  1.6604
   34MOL    H4216608   2.291   4.394   6.427 -0.3625 -2.7187  1.1452
   34MOL    H4316609   1.993   4.472   6.423  0.6948  0.4358 -1.7333
   34MOL    H4416610   2.061   4.373   6.549  1.1688 -0.2000  0.0768
   34MOL    H4516611   2.239   4.574   6.576 -0.1208 -2.0334 -1.4119
   34MOL    H4616612   2.127   4.663   6.479  0.1110  1.5289  0.8604
   34MOL    H4716613   1.954   4.632   6.668 -0.6069  1.7384  2.1826
   34MOL    H4816614   2.082   4.528   6.735  1.0263  1.0310  0.1742
   34MOL    H4916615   2.211   4.745   6.780 -0.1814 -2.0935 -1.7922
   34MOL    H5016616   2.061   4.830   6.711  0.7798  0.5257 -0.1278
   34MOL    H5116617   2.056   4.737   6.854  0.6229  1.5344  1.0060
   34MOL    C5216618   2.373   3.980   6.389  0.0121  0.8320 -0.3835
   34MOL    C5316619   2.502   4.052   6.327  0.7915  0.5499 -0.2101
   34MOL    O5416620   2.483   4.044   6.184 -0.2567  0.0640  0.1135
   34MOL    C5516621   2.554   3.939   6.132  0.1914 -0.3035  0.4212
   34MOL    C5616622   2.507   3.896   5.995 -0.0635 -0.0950 -0.7099
   34MOL    C5716623   2.372   3.824   5.996  0.5945 -0.0288 -0.6476
   34MOL    C5816624   2.349   3.773   5.856 -0.2768 -0.3369 -0.1512
   34MOL    C5916625   2.302   3.879   5.753  0.0705 -0.2578  0.3811
   34MOL    C6016626   2.241   3.815   5.629 -0.2688  0.0330 -0.1844
   34MOL    H6116627   2.391   3.878   6.355  2.7422  0.0098  3.1717
   34MOL    H6216628   2.383   3.970   6.497 -0.0531  0.8531 -0.3751
   34MOL    H6316629   2.594   4.005   6.362  1.2735  1.0272 -0.8249
   34MOL    H6416630   2.540   3.853   6.197 -0.1761 -0.1712  0.5175
   34MOL    H6516631   2.660   3.965   6.140 -0.1696  1.6135 -0.8186
   34MOL    H6616632   2.590   3.840   5.952  0.7784  2.9274 -3.1772
   34MOL    H6716633   2.499   3.992   5.944  1.6189  0.1715 -0.4793
   34MOL    H6816634   2.390   3.742   6.066 -2.3967 -0.2676 -0.0918
   34MOL    H6916635   2.289   3.881   6.037 -1.6438 -3.8878  0.4042
   34MOL    H7016636   2.441   3.732   5.814  0.4543  1.6307 -0.5548
   34MOL    H7116637   2.272   3.699   5.876  1.2807 -2.0071 -0.2422
   34MOL    H7216638   2.225   3.950   5.784  0.5804  0.1577  0.6971
   34MOL    H7316639   2.385   3.942   5.720 -2.7623  2.9358 -0.9922
   34MOL    H7416640   2.261   3.888   5.551  0.5687  0.1082  0.0933
   34MOL    H7516641   2.306   3.735   5.594  1.6699  1.4034  0.1722
   34MOL    H7616642   2.139   3.777   5.629  0.1597 -1.2347 -2.2551
   34MOL    C7716643   2.497   4.205   6.369 -0.5131  0.1263 -0.2365
   34MOL    C7816644   2.636   4.266   6.390  0.2754 -0.1572 -0.3265
   34MOL    O7916645   2.674   4.242   6.519  0.1973 -0.2902  0.2328
   34MOL    C8016646   2.790   4.164   6.540  0.3209  0.2224  0.3115
   34MOL    C8116647   2.828   4.188   6.687 -0.6218 -0.0622 -0.1118
   34MOL    C8216648   2.938   4.099   6.735  0.3468  0.3083  0.8895
   34MOL    C8316649   2.916   4.030   6.870  0.2878  0.1597  0.4409
   34MOL    C8416650   2.925   4.122   6.993 -0.6640 -0.0857  0.4438
   34MOL    C8516651   2.908   4.056   7.134 -0.4188 -0.1883 -0.0299
   34MOL    H8616652   2.432   4.223   6.455 -1.1775  0.9829 -0.9221
   34MOL    H8716653   2.446   4.256   6.288 -0.5065 -0.1221 -0.3984
   34MOL    H8816654   2.711   4.238   6.316 -1.3712 -0.6419 -1.8313
   34MOL    H8916655   2.868   4.203   6.474  2.0685 -2.0207  1.0138
   34MOL    H9016656   2.766   4.062   6.510  1.9791 -0.1963  0.3649
   34MOL    H9116657   2.745   4.174   6.756  0.8160 -0.7955  1.5220
   34MOL    H9216658   2.872   4.287   6.698  0.8941 -0.4512 -2.3625
   34MOL    H9316659   2.945   4.020   6.660 -3.0940  0.3013  0.4843
   34MOL    H9416660   3.034   4.151   6.737 -0.3402  1.5809  1.1052
   34MOL    H9516661   2.819   3.980   6.872  1.0051 -1.1913  1.5719
   34MOL    H9616662   2.985   3.947   6.879  0.3513  0.2186  0.4845
   34MOL    H9716663   3.020   4.176   6.990 -0.6878 -0.0444  0.4395
   34MOL    H9816664   2.853   4.203   7.000  2.5766  3.1133 -1.6725
   34MOL    H9916665   2.996   4.001   7.167 -1.1415 -0.6681  1.1094
   34MOL   H10016666   2.897   4.135   7.208  3.6550  1.0386 -0.6224
   34MOL   H10116667   2.829   3.980   7.139  1.3091 -1.9785  0.6818
   34MOL   C10216668   2.624   4.422   6.390 -0.3571 -0.3729  0.2501
   34MOL   C10316669   2.762   4.492   6.395  0.4944  0.2426  0.4550
   34MOL   O10416670   2.819   4.477   6.264  0.4377 -0.2027  0.5561
   34MOL   C10516671   2.961   4.509   6.248  0.6694 -0.3148 -0.3997
   34MOL   C10616672   3.004   4.492   6.104  0.2630 -0.2239 -0.3671
   34MOL   C10716673   3.137   4.557   6.062  0.0762 -0.1539  0.3322
   34MOL   C10816674   3.159   4.556   5.916 -0.1123  0.3823  0.1504
   34MOL   C10916675   3.288   4.629   5.859  0.0064 -0.6720  0.7348
   34MOL   C11016676   3.303   4.622   5.710  0.1884 -0.4863 -0.4324
   34MOL   H11116677   2.565   4.456   6.305  1.9316  2.1229 -0.4224
   34MOL   H11216678   2.568   4.454   6.479 -1.0856 -0.3277 -0.2199
   34MOL   H11316679   2.829   4.440   6.464  0.5647 -0.8697 -0.4292
   34MOL   H11416680   3.026   4.443   6.305 -0.3725 -0.1943  0.9625
   34MOL   H11516681   2.977   4.608   6.289  0.0509 -0.1707 -0.5007
   34MOL   H11616682   2.933   4.529   6.030  1.2940 -2.1421 -2.3791
   34MOL   H11716683   3.025   4.388   6.083  1.1712  0.1571 -1.3919
   34MOL   H11816684   3.136   4.663   6.087 -1.8579  0.2506 -1.3435
   34MOL   H11916685   3.216   4.515   6.124 -1.0050 -1.1008  1.0821
   34MOL   H12016686   3.169   4.455   5.876 -0.6986  0.8968 -1.3073
   34MOL   H12116687   3.069   4.599   5.872 -0.7512 -0.0434  1.0253
   34MOL   H12216688   3.308   4.728   5.901 -1.8059  0.2254 -0.4675
   34MOL   H12316689   3.372   4.576   5.904  0.1075 -0.5356  0.7060
   34MOL   H12416690   3.213   4.588   5.659 -0.4756  0.4778  0.0823
   34MOL   H12516691   3.330   4.726   5.693  1.2071 -0.8912 -1.3562
   34MOL   H12616692   3.390   4.563   5.681  0.3424 -0.5458  0.1534
   34MOL   C12716693   2.748   4.641   6.440 -0.0575  0.4448  0.4651
   34MOL   C12816694   2.847   4.711   6.525 -0.2890  0.8382 -0.4697
   34MOL   O12916695   2.826   4.679   6.664 -0.0539  0.4354  0.4359
   34MOL   C13016696   2.921   4.584   6.715 -0.2916 -0.0918  0.3351
   34MOL   C13116697   2.894   4.531   6.855 -0.0981  0.2892 -0.0950
   34MOL   C13216698   2.929   4.623   6.972  0.1424 -0.7913 -1.1201
   34MOL   C13316699   2.853   4.586   7.100 -0.2960  0.0765  0.1760
   34MOL   C13416700   2.918   4.468   7.169  0.6301 -0.0329  0.3274
   34MOL   C13516701   2.845   4.416   7.300 -0.3727  1.0390  0.8679
   34MOL   H13616702   2.740   4.700   6.348 -1.6930  0.8172  0.8403
   34MOL   H13716703   2.650   4.651   6.485 -0.7693  3.0428 -1.5201
   34MOL   H13816704   2.943   4.670   6.494 -0.4699 -0.9859  1.2334
   34MOL   H13916705   3.024   4.617   6.710 -0.6853  1.2538  0.9148
   34MOL   H14016706   2.923   4.492   6.657  3.4399 -0.5724  1.0934
   34MOL   H14116707   2.948   4.437   6.861  0.3035  0.6775  2.7733
   34MOL   H14216708   2.790   4.499   6.870  0.0461 -0.0141  0.2576
   34MOL   H14316709   3.037   4.626   6.981  0.0123  1.5365 -0.1540
   34MOL   H14416710   2.888   4.719   6.944 -0.9101 -1.0689 -0.5807
   34MOL   H14516711   2.833   4.665   7.172 -2.2839 -1.9942  1.9515
   34MOL   H14616712   2.752   4.551   7.082  0.2602 -0.3004 -2.4008
   34MOL   H14716713   2.934   4.391   7.094  1.0051 -1.8348  2.2178
   34MOL   H14816714   3.017   4.490   7.209 -0.1492  0.2274  2.1531
   34MOL   H14916715   2.896   4.325   7.332 -1.1868  0.7722  1.4378
   34MOL   H15016716   2.849   4.487   7.384 -1.0232  1.2953  0.6859
   34MOL   H15116717   2.743   4.395   7.271  0.0079 -0.1179  0.3497
   34MOL   C15216718   2.848   4.861   6.501  0.6289 -0.1175  0.3847
   34MOL   C15316719   2.979   4.929   6.550 -0.6578 -0.5439  0.6460
   34MOL   O15416720   3.072   4.883   6.449  0.1987  0.4385  0.3886
   34MOL   C15516721   3.205   4.869   6.496  0.5317  0.1228  0.6654
   34MOL   C15616722   3.277   4.837   6.367 -0.1797  0.4706 -0.2117
   34MOL   C15716723   3.430   4.812   6.398 -0.7320  0.6769  0.0573
   34MOL   C15816724   3.525   4.784   6.271 -0.1578 -0.4193  0.2705
   34MOL   C15916725   3.505   4.645   6.201  0.2114 -0.0582  0.4255
   34MOL   C16016726   3.594   4.629   6.077 -0.0231  0.5181  0.6640
   34MOL   H16116727   2.839   4.883   6.395  0.1045  1.2505  0.7023
   34MOL   H16216728   2.767   4.904   6.561 -2.5043 -2.6248 -1.8827
   34MOL   H16316729   3.022   4.893   6.643 -0.8503 -0.6848  0.6817
   34MOL   H16416730   3.212   4.796   6.577  0.8569 -0.9943 -0.3544
   34MOL   H16516731   3.239   4.959   6.547 -2.3854  1.3821  0.5220
   34MOL   H16616732   3.257   4.911   6.290  0.5244  2.1276  1.1559
   34MOL   H16716733   3.228   4.751   6.323  1.1163 -0.7291  0.6455
   34MOL   H16816734   3.470   4.901   6.446 -1.6158  1.0557  0.1104
   34MOL   H16916735   3.452   4.736   6.473 -0.4939  0.9631  0.2781
   34MOL   H17016736   3.504   4.867   6.204 -1.5386 -0.2493  0.9000
   34MOL   H17116737   3.630   4.796   6.301 -0.5187  0.4360  1.2471
   34MOL   H17216738   3.538   4.575   6.277  3.0358  1.5374  0.7243
   34MOL   H17316739   3.398   4.629   6.187  0.2948 -0.3034  0.0525
   34MOL   H17416740   3.698   4.643   6.104  0.1667  1.2430 -0.3917
   34MOL   H17516741   3.590   4.537   6.018  1.8553 -0.2854  1.7723
   34MOL   H17616742   3.589   4.715   6.010  3.7952  0.5032  0.2711
   34MOL   C17716743   2.980   5.082   6.557  0.5062 -0.0398 -0.5388
   34MOL   C17816744   2.909   5.135   6.686 -0.0359 -0.0377  0.1461
   34MOL   O17916745   2.990   5.125   6.798  0.1410  0.1357 -0.0105
   34MOL   C18016746   2.950   5.022   6.886 -0.2349 -0.1173 -0.1839
   34MOL   C18116747   3.075   4.991   6.979 -0.8347  0.2629  0.0063
   34MOL   C18216748   3.189   4.935   6.891  0.0636  0.6536 -0.1415
   34MOL   C18316749   3.300   4.901   6.981 -0.2663 -0.2407 -0.4698
   34MOL   C18416750   3.416   4.828   6.897  0.3146 -0.1559 -0.0690
   34MOL   C18516751   3.513   4.749   6.998 -0.5026 -0.0548  0.4256
   34MOL   H18616752   3.079   5.127   6.566  1.3131 -1.3386 -2.5798
   34MOL   H18716753   2.939   5.127   6.467  1.2790 -0.5307 -1.1454
   34MOL   H18816754   2.814   5.082   6.689  0.6987 -1.3238  1.2734
   34MOL   H18916755   2.931   4.932   6.828 -2.3692 -0.4303  0.9533
   34MOL   H19016756   2.861   5.059   6.937 -0.3836  0.2218 -0.6881
   34MOL   H19116757   3.056   4.916   7.056  0.8579  0.7073  0.8709
   34MOL   H19216758   3.090   5.080   7.039  0.8823 -1.6068  2.4586
   34MOL   H19316759   3.155   4.851   6.830  1.8530  0.0384 -0.3525
   34MOL   H19416760   3.236   5.005   6.821 -1.3981  1.9236  0.1268
   34MOL   H19516761   3.341   4.978   7.047 -1.1363  1.1474 -1.5077
   34MOL   H19616762   3.258   4.833   7.056 -0.8368  0.2656 -0.3174
   34MOL   H19716763   3.369   4.756   6.829  0.0181 -0.5235  0.5217
   34MOL   H19816764   3.467   4.892   6.825  0.3445  1.7572  1.6457
   34MOL   H19916765   3.471   4.653   7.027  1.5108 -1.0699  0.0143
   34MOL   H20016766   3.609   4.720   6.957 -2.0271 -2.6747 -1.4132
   34MOL   H20116767   3.536   4.806   7.088 -0.6890  2.6640 -1.1932
   34MOL   C20216768   2.864   5.277   6.680 -0.1506  0.0733 -0.9089
   34MOL   C20316769   2.743   5.313   6.597  1.0843  0.5384  0.0654
   34MOL   O20416770   2.770   5.302   6.459  0.1438 -0.0619 -0.1562
   34MOL   C20516771   2.662   5.311   6.370 -0.2629 -0.0731 -0.3165
   34MOL   C20616772   2.696   5.283   6.220 -0.6315  0.0832  0.0435
   34MOL   C20716773   2.574   5.269   6.124 -0.3527 -0.9993  0.5001
   34MOL   C20816774   2.617   5.278   5.978 -0.3124 -0.1987  0.1259
   34MOL   C20916775   2.598   5.149   5.897  0.1709 -0.1882 -0.5495
   34MOL   C21016776   2.636   5.167   5.753  0.0582  0.0059  0.2128
   34MOL   H21116777   2.836   5.307   6.781 -0.3293  0.0516 -0.9523
   34MOL   H21216778   2.953   5.337   6.660 -0.4574  0.4810 -1.0664
   34MOL   H21316779   2.668   5.243   6.632  0.6209  2.2103  2.5672
   34MOL   H21416780   2.611   5.407   6.372  0.2416  0.1980 -0.4881
   34MOL   H21516781   2.588   5.235   6.395 -0.5183  0.8616  1.8400
   34MOL   H21616782   2.744   5.185   6.211 -1.4694 -0.3137 -0.0881
   34MOL   H21716783   2.774   5.352   6.188  1.3862 -2.7902 -1.4832
   34MOL   H21816784   2.515   5.180   6.146  1.7718 -2.8290 -0.9673
   34MOL   H21916785   2.497   5.344   6.141  0.7205  0.5042 -1.1445
   34MOL   H22016786   2.559   5.357   5.932 -1.6212 -0.6642  0.9469
   34MOL   H22116787   2.716   5.317   5.954  0.4760 -2.7091 -0.9328
   34MOL   H22216788   2.647   5.060   5.937  0.0369 -0.9405 -2.0449
   34MOL   H22316789   2.491   5.125   5.900  0.5573 -2.0426 -0.7275
   34MOL   H22416790   2.601   5.086   5.688  0.5015  1.0784 -1.4029
   34MOL   H22516791   2.605   5.257   5.701 -0.5153 -1.3201 -1.8126
   34MOL   H22616792   2.745   5.164   5.758  0.0465  0.5759  0.7995
   34MOL   C22716793   2.689   5.459   6.620 -1.0639  0.2697  0.3744
   34MOL   C22816794   2.548   5.464   6.681  0.0670  0.4545  0.8699
   34MOL   O22916795   2.565   5.463   6.822  0.2729  0.6064 -0.3459
   34MOL   C23016796   2.507   5.353   6.890 -0.2562 -0.4376 -0.2283
   34MOL   C23116797   2.541   5.354   7.039  0.2810  0.1373  0.3322
   34MOL   C23216798   2.674   5.295   7.074 -0.0267  1.2436 -0.2588
   34MOL   C23316799   2.723   5.302   7.221  0.5951 -0.5355  0.5356
   34MOL   C23416800   2.868   5.249   7.250 -0.2401 -0.9475  0.2464
   34MOL   C23516801   2.888   5.250   7.399 -0.0169 -0.4174  0.4757
   34MOL   H23616802   2.748   5.514   6.694 -1.4069  1.2362 -0.0621
   34MOL   H23716803   2.695   5.522   6.531 -0.1164 -2.4297 -1.5398
   34MOL   H23816804   2.488   5.381   6.642 -1.8552  1.8742  0.7343
   34MOL   H23916805   2.542   5.260   6.846  0.4774 -1.3612  2.1845
   34MOL   H24016806   2.401   5.361   6.869 -0.4189  2.6142  1.4596
   34MOL   H24116807   2.461   5.304   7.093  0.3570  0.0470  0.3610
   34MOL   H24216808   2.541   5.456   7.079 -1.8298  1.2790 -2.3384
   34MOL   H24316809   2.671   5.188   7.053 -4.0995  1.2144  0.1341
   34MOL   H24416810   2.751   5.338   7.010  2.5145 -1.0010  1.1763
   34MOL   H24516811   2.714   5.403   7.262  0.0755  0.4935 -2.0691
   34MOL   H24616812   2.651   5.239   7.273  1.0879 -0.0627  1.8282
   34MOL   H24716813   2.890   5.155   7.200 -0.4003 -0.7948 -0.1093
   34MOL   H24816814   2.939   5.320   7.206 -0.7922  1.4231  3.0143
   34MOL   H24916815   2.884   5.350   7.442  1.3912 -1.1133  2.3113
   34MOL   H25016816   2.813   5.188   7.448 -1.0714 -1.4613 -2.4096
   34MOL   H25116817   2.982   5.200   7.421 -0.3352 -1.3890 -0.3305
   34MOL   C25216818   2.475   5.595   6.652 -0.0575  0.2027 -1.2099
   34MOL   C25316819   2.324   5.600   6.688  0.4516  0.5041 -0.1412
   34MOL   O25416820   2.268   5.495   6.609 -0.2050 -0.0444  0.5593
   34MOL   C25516821   2.159   5.425   6.672 -0.4075  0.2668 -0.2093
   34MOL   C25616822   2.152   5.281   6.620  0.3556 -0.8681  0.3472
   34MOL   C25716823   2.098   5.273   6.475  0.3208 -0.0225  0.3498
   34MOL   C25816824   2.033   5.139   6.430 -0.0104  0.2124 -0.3312
   34MOL   C25916825   1.892   5.138   6.497 -0.2381  0.2058  0.0845
   34MOL   C26016826   1.848   5.000   6.536  0.0204  0.1938  0.7657
   34MOL   H26116827   2.529   5.665   6.716 -1.3617  1.3262 -1.3165
   34MOL   H26216828   2.489   5.636   6.552  0.7137  0.4564 -0.9956
   34MOL   H26316829   2.299   5.577   6.791 -0.3015  0.2949 -0.3648
   34MOL   H26416830   2.063   5.475   6.665  0.6517  2.2550 -1.0826
   34MOL   H26516831   2.171   5.407   6.778 -1.0139  0.5006 -0.0995
   34MOL   H26616832   2.087   5.226   6.688  1.8033  0.5436  2.9694
   34MOL   H26716833   2.250   5.233   6.617  0.4290 -0.7357  0.6072
   34MOL   H26816834   2.035   5.361   6.463  0.6348  0.2388  0.5974
   34MOL   H26916835   2.177   5.294   6.403 -0.2874  0.2613 -0.2507
   34MOL   H27016836   2.023   5.146   6.321 -0.6953 -2.0567 -0.4297
   34MOL   H27116837   2.104   5.059   6.448  0.6230  1.0833  1.0752
   34MOL   H27216838   1.882   5.215   6.574 -0.0456 -1.3284  1.6682
   34MOL   H27316839   1.826   5.187   6.425 -1.3871  2.4495  2.5493
   34MOL   H27416840   1.904   4.982   6.628  1.3645 -0.2061 -0.1127
   34MOL   H27516841   1.741   4.998   6.555 -0.3086  1.0829 -0.9309
   34MOL   H27616842   1.886   4.935   6.457 -0.4374  2.0345 -0.9975
   34MOL   C27716843   2.264   5.732   6.644 -0.3322  0.0695  0.3372
   34MOL   C27816844   2.296   5.860   6.718 -0.2698 -0.3487 -0.6925
   34MOL   O27916845   2.228   5.960   6.640 -0.2028 -0.2238  0.3686
   34MOL   C28016846   2.271   6.092   6.657 -0.8269 -0.9086 -0.9208
   34MOL   C28116847   2.165   6.183   6.596  0.3881 -1.9344 -0.1413
   34MOL   C28216848   2.220   6.326   6.594  0.2921 -0.1537  0.6048
   34MOL   C28316849   2.126   6.432   6.531  0.4372 -0.1131  0.1850
   34MOL   C28416850   2.146   6.582   6.545 -0.3100  0.4341  0.2283
   34MOL   C28516851   2.140   6.635   6.683 -0.2337  0.2305  0.2446
   34MOL   H28616852   2.290   5.757   6.541  0.5401  0.3624  0.6302
   34MOL   H28716853   2.155   5.733   6.639 -0.4417 -0.9433  2.1480
   34MOL   H28816854   2.404   5.873   6.710 -0.4638  1.6853 -0.3460
   34MOL   H28916855   2.366   6.108   6.606 -1.3023  0.0076 -1.5507
   34MOL   H29016856   2.271   6.116   6.763  0.4760 -0.8075 -0.9368
   34MOL   H29116857   2.073   6.180   6.654 -0.4414  0.0607 -1.3210
   34MOL   H29216858   2.145   6.146   6.496 -0.5203 -2.3619  0.1937
   34MOL   H29316859   2.236   6.354   6.698  2.5377  0.6497  0.0900
   34MOL   H29416860   2.309   6.323   6.530 -0.1379  0.4407 -0.0390
   34MOL   H29516861   2.109   6.420   6.424 -0.0951 -1.1548  0.3843
   34MOL   H29616862   2.028   6.411   6.573 -0.2242  0.4288 -1.0593
   34MOL   H29716863   2.248   6.596   6.507 -0.1282 -1.0515  0.1670
   34MOL   H29816864   2.078   6.635   6.479  0.9927  0.6943 -0.9436
   34MOL   H29916865   2.188   6.733   6.690 -0.3416  0.3198 -0.2537
   34MOL   H30016866   2.039   6.637   6.722 -0.8567 -0.0088 -1.3049
   34MOL   H30116867   2.196   6.562   6.741  0.0773  0.9825  0.9046
   34MOL   C30216868   2.253   5.856   6.863  0.6061  0.3142  0.1315
   34MOL   C30316869   2.343   5.926   6.961 -0.7170 -0.0596 -0.0925
   34MOL   O30416870   2.472   5.862   6.962  0.2324 -0.7274  0.3292
   34MOL   C30516871   2.590   5.947   6.975 -0.6358 -0.2305 -0.1559
   34MOL   C30616872   2.708   5.875   6.910 -0.1510 -0.2492  0.0409
   34MOL   C30716873   2.842   5.913   6.976 -0.9595  0.1213 -0.1073
   34MOL   C30816874   2.869   5.861   7.123  0.3934  0.0607  0.6784
   34MOL   C30916875   2.889   5.705   7.142 -0.1230 -0.1584 -0.3930
   34MOL   C31016876   2.970   5.678   7.274 -0.1206  0.3471 -0.2189
   34MOL   H31116877   2.147   5.875   6.880  0.7081  0.8788  0.1361
   34MOL   H31216878   2.246   5.750   6.886  0.8877  0.4594  0.9017
   34MOL   H31316879   2.359   6.029   6.931 -2.1718  0.7686  1.8596
   34MOL   H31416880   2.602   5.975   7.080 -0.5736 -1.3439  0.1463
   34MOL   H31516881   2.565   6.035   6.916  0.9470  2.3684  2.9180
   34MOL   H31616882   2.703   5.899   6.804 -3.2433  2.0229  0.6485
   34MOL   H31716883   2.691   5.768   6.924 -0.0443 -0.4318 -1.1669
   34MOL   H31816884   2.928   5.897   6.912  0.8479  0.3870  2.1911
   34MOL   H31916885   2.846   6.022   6.975  1.0666  0.0480 -1.0642
   34MOL   H32016886   2.951   5.930   7.140 -0.2290  1.1635 -0.7210
   34MOL   H32116887   2.783   5.894   7.181 -0.1890 -2.1121  1.1080
   34MOL   H32216888   2.795   5.649   7.137  1.6863 -3.3676 -0.1795
   34MOL   H32316889   2.936   5.653   7.058 -1.7379 -1.8022 -0.3281
   34MOL   H32416890   3.059   5.619   7.250 -1.1581 -1.0729 -0.6258
   34MOL   H32516891   3.005   5.769   7.323 -1.6669  0.8882 -0.1201
   34MOL   H32616892   2.925   5.609   7.346  1.3788  0.7244  1.1095
   34MOL   C32716893   2.290   5.930   7.106  0.3393  0.3962 -0.2564
   34MOL   C32816894   2.160   6.013   7.133  0.0748 -0.8955  1.0444
   34MOL   O32916895   2.115   6.005   7.266 -0.4240 -0.2100 -0.2194
   34MOL   C33016896   2.022   5.901   7.292 -0.4685 -0.0564 -0.6344
   34MOL   C33116897   2.007   5.877   7.438 -0.0901 -0.1318  0.1109
   34MOL   C33216898   1.946   5.994   7.517 -0.0263 -0.1966  0.0995
   34MOL   C33316899   2.050   6.096   7.558  0.1373 -0.1572 -0.1236
   34MOL   C33416900   1.986   6.214   7.638  0.1315 -1.2433 -0.2559
   34MOL   C33516901   2.093   6.296   7.713  0.2293 -0.3666  0.8393
   34MOL   H33616902   2.360   5.950   7.187  0.7244 -2.7694  0.2758
   34MOL   H33716903   2.257   5.832   7.140 -0.0567  0.0696 -1.5533
   34MOL   H33816904   2.078   5.992   7.064  0.2945 -1.6383  1.0104
   34MOL   H33916905   2.055   5.810   7.241 -0.8713 -0.6608  0.1756
   34MOL   H34016906   1.921   5.922   7.256 -1.3064 -0.1400  1.6154
   34MOL   H34116907   2.106   5.855   7.475 -0.6599 -1.4692  0.8703
   34MOL   H34216908   1.942   5.791   7.453 -1.2026  0.6558 -0.0490
   34MOL   H34316909   1.882   6.051   7.450 -0.6041 -2.1083 -1.0463
   34MOL   H34416910   1.893   5.964   7.607 -1.0861 -1.4514 -0.9055
   34MOL   H34516911   2.143   6.062   7.605  1.7853  1.1348 -2.3214
   34MOL   H34616912   2.100   6.147   7.476 -0.1023  0.3580  0.0480
   34MOL   H34716913   1.918   6.275   7.577  0.1189  0.5176  1.4546
   34MOL   H34816914   1.918   6.182   7.717 -0.7493 -0.4219 -0.6644
   34MOL   H34916915   2.060   6.353   0.022 -1.1263 -2.6400  1.8699
   34MOL   H35016916   2.175   6.231   7.744  0.0969 -0.1223  1.7085
   34MOL   H35116917   2.126   6.379   7.651 -1.9514  1.2327  1.7437
   34MOL   C35216918   2.182   6.163   7.124 -1.1305 -0.4213  0.4683
   34MOL   C35316919   2.051   6.242   7.112 -0.1685  0.1490 -0.0664
   34MOL   O35416920   2.005   6.246   6.971  0.4249 -0.3964  0.5261
   34MOL   C35516921   1.876   6.197   6.959 -0.5984  0.7128 -0.1284
   34MOL   C35616922   1.806   6.235   6.827  0.9671 -0.6825  0.2862
   34MOL   C35716923   1.789   6.386   6.802 -0.3865  0.4293 -0.8993
   34MOL   C35816924   1.701   6.424   6.686  0.4541  0.1489 -0.1337
   34MOL   C35916925   1.758   6.549   6.614  0.5244  0.3827 -0.3011
   34MOL   C36016926   1.691   6.576   6.479  0.1022 -0.4615  0.4323
   34MOL   H36116927   2.237   6.192   7.215 -1.2259  0.3384  0.2897
   34MOL   H36216928   2.250   6.203   7.049 -2.1409  1.5448  0.5545
   34MOL   H36316929   1.986   6.193   7.185  1.7972 -1.8579  0.4086
   34MOL   H36416930   1.809   6.229   7.039 -0.8954 -0.9683  0.3150
   34MOL   H36516931   1.878   6.088   6.964 -0.2384  0.5856 -2.4642
   34MOL   H36616932   1.705   6.193   6.830  0.2211  0.9200 -1.3634
   34MOL   H36716933   1.863   6.196   6.742  0.1769 -0.9063 -0.1507
   34MOL   H36816934   1.745   6.430   6.893  0.6339  2.3030 -1.2745
   34MOL   H36916935   1.891   6.425   6.798  0.7417 -2.3461  0.0647
   34MOL   H37016936   1.686   6.344   6.614 -0.6889  1.3028 -1.2146
   34MOL   H37116937   1.598   6.442   6.717  0.5861  1.6350 -0.4942
   34MOL   H37216938   1.755   6.640   6.674 -1.2495  0.3844 -0.3538
   34MOL   H37316939   1.864   6.534   6.596  0.1901  0.9187 -2.8893
   34MOL   H37416940   1.716   6.500   6.405  1.7323  1.0505 -0.6195
   34MOL   H37516941   1.582   6.578   6.490  0.2966 -0.9765  2.7066
   34MOL   H37616942   1.725   6.666   6.428  0.6995 -1.1199 -0.3426
   34MOL   C37716943   2.082   6.383   7.167  0.2489  0.4631  1.0065
   34MOL   C37816944   1.956   6.471   7.176  0.7108 -0.0288 -0.0035
   34MOL   O37916945   2.005   6.607   7.179  0.3686  0.9944  0.5150
   34MOL   C38016946   2.044   6.665   7.055 -0.0149 -0.5688 -0.0178
   34MOL   C38116947   2.143   6.780   7.062  0.2214 -0.0894 -0.1932
   34MOL   C38216948   2.273   6.711   7.120  0.3616 -0.1308  1.1012
   34MOL   C38316949   2.389   6.802   7.137 -0.5310 -0.2462  0.6793
   34MOL   C38416950   2.397   6.897   7.263  0.4383  0.0400  0.1563
   34MOL   C38516951   2.484   7.010   7.225  0.2968 -0.7977  0.0509
   34MOL   H38616952   2.120   6.375   7.268  1.0216  1.3927  0.7978
   34MOL   H38716953   2.161   6.421   7.103 -0.6864 -1.3765 -1.3249
   34MOL   H38816954   1.890   6.461   7.090  0.2668  1.7967  0.1045
   34MOL   H38916955   1.945   6.696   7.020 -1.6041  0.0334  4.6038
   34MOL   H39016956   2.079   6.585   6.990 -0.0237 -1.6254  1.2454
   34MOL   H39116957   2.113   6.861   7.127  0.4833  0.0582 -0.2564
   34MOL   H39216958   2.172   6.826   6.968 -0.8836 -1.0836 -1.0397
   34MOL   H39316959   2.252   6.653   7.210 -0.2905  1.7288  2.1807
   34MOL   H39416960   2.300   6.631   7.050  0.6507  0.9420 -0.0198
   34MOL   H39516961   2.478   6.739   7.137  0.2347  0.7661  2.4371
   34MOL   H39616962   2.395   6.861   7.045  0.1655 -0.9403  0.2726
   34MOL   H39716963   2.298   6.925   7.298  0.1362  0.1955 -0.8064
   34MOL   H39816964   2.424   6.833   7.347  1.2124  0.5001  0.2623
   34MOL   H39916965   2.563   6.981   7.156  1.0906 -1.3042  1.1506
   34MOL   H40016966   2.429   7.092   7.179 -0.0672  0.3692  2.4726
   34MOL   H40116967   2.536   7.040   7.316  0.9885 -0.0158 -0.5958
   34MOL   C40216968   1.870   6.450   7.303  0.0704  0.1558  0.9274
   34MOL   C40316969   1.727   6.497   7.301 -0.0868  0.9512  0.2795
   34MOL   O40416970   1.665   6.489   7.433  0.1834 -0.2539 -0.6755
   34MOL   C40516971   1.702   6.599   7.523 -0.4727  0.5381  0.6397
   34MOL   C40616972   1.666   6.575   7.670  0.3214  0.2329 -0.3826
   34MOL   C40716973   1.675   6.431   7.722 -0.5305 -0.3381 -0.3318
   34MOL   C40816974   1.638   6.409   0.089  0.0567  0.8053  0.0152
   34MOL   C40916975   1.684   6.271   0.146 -0.1629  1.0294  0.2823
   34MOL   C41016976   1.640   6.249   0.295  0.4424 -0.2753  1.0177
   34MOL   H41116977   1.926   6.499   7.383 -0.2329 -0.6032  1.6086
   34MOL   H41216978   1.862   6.346   7.335  0.2537  0.8842  3.4641
   34MOL   H41316979   1.732   6.602   7.270  2.1632  1.1368  1.2237
   34MOL   H41416980   1.652   6.688   7.486  1.1858  1.1863 -0.0321
   34MOL   H41516981   1.809   6.618   7.520 -0.2635  0.0171  3.3620
   34MOL   H41616982   1.572   6.628   7.689 -0.1400 -0.8822  0.5386
   34MOL   H41716983   1.745   6.628   7.724  1.1284 -0.3165 -1.0193
   34MOL   H41816984   1.618   6.364   7.657  1.6132 -0.9154 -1.6759
   34MOL   H41916985   1.777   6.395   7.707 -0.9897 -1.3534 -1.1505
   34MOL   H42016986   1.682   6.481   0.158 -0.3708 -0.7625  1.9773
   34MOL   H42116987   1.529   6.408   0.099  0.0280  0.5715 -0.3183
   34MOL   H42216988   1.639   6.183   0.100  1.4098 -1.0082  2.5378
   34MOL   H42316989   1.792   6.256   0.140 -0.5562 -1.2175 -1.7891
   34MOL   H42416990   1.547   6.192   0.300  0.3598 -0.3933 -1.3750
   34MOL   H42516991   1.693   6.171   0.349  1.4450 -0.6234 -0.4439
   34MOL   H42616992   1.634   6.341   0.354 -2.0729 -0.6440  1.4161
   34MOL   C42716993   1.638   6.410   7.209 -0.4371  0.7979 -0.2626
   34MOL   C42816994   1.497   6.463   7.181 -0.2284 -0.6738  0.0438
   34MOL   O42916995   1.509   6.558   7.078 -0.4760 -0.0493 -0.6292
   34MOL   C43016996   1.411   6.659   7.064  0.4723  0.0236  0.5948
   34MOL   C43116997   1.451   6.777   7.148  0.8110  0.3040  0.2894
   34MOL   C43216998   1.579   6.844   7.094  0.6484 -0.1140 -0.7094
   34MOL   C43316999   1.658   6.912   7.214  0.2908  0.1571 -0.4345
   34MOL   C43417000   1.798   6.978   7.179 -0.0922  0.0019  0.4340
   34MOL   C43517001   1.888   6.993   7.301 -0.0663 -0.0406 -0.3694
   34MOL   H43617002   1.689   6.386   7.115  1.7645 -0.7903  1.2653
   34MOL   H43717003   1.624   6.316   7.263 -1.1825  1.0883  0.0490
   34MOL   H43817004   1.456   6.502   7.275  0.6506 -0.3305  0.2870
   34MOL   H43917005   1.305   6.640   7.082  0.2277  1.2352  0.4784
   34MOL   H44017006   1.395   6.694   6.962 -0.5490 -3.9492 -0.6673
   34MOL   H44117007   1.467   6.746   7.251  0.9658  0.1248  0.2099
   34MOL   H44217008   1.378   6.858   7.143  2.5573  1.9842  1.4965
   34MOL   H44317009   1.647   6.767   7.056  0.7164 -0.6290  0.4396
   34MOL   H44417010   1.557   6.920   7.019  0.4073 -0.1154 -0.6395
   34MOL   H44517011   1.598   6.991   7.260  2.1583  1.4374 -0.1108
   34MOL   H44617012   1.680   6.830   7.282  1.0200  0.0971 -0.7394
   34MOL   H44717013   1.852   6.916   7.107 -1.7908 -0.8977 -0.0996
   34MOL   H44817014   1.782   7.071   7.125  2.0714  0.4765  0.5660
   34MOL   H44917015   1.902   6.906   7.364  0.1048 -1.2688 -2.0802
   34MOL   H45017016   1.993   7.015   7.278 -0.2465 -0.6825 -1.8423
   34MOL   H45117017   1.862   7.076   7.367 -1.6212 -0.2863 -0.6629
   34MOL   C45217018   1.405   6.358   7.122  0.7128  0.1654  0.4095
   34MOL   C45317019   1.333   6.273   7.232 -0.0982 -0.1611  1.1123
   34MOL   O45417020   1.422   6.193   7.306 -0.3433 -0.3988  0.2878
   34MOL   C45517021   1.397   6.207   7.450  0.0082 -0.0709  0.4223
   34MOL   C45617022   1.434   6.071   7.498  0.1515 -0.1213 -0.1982
   34MOL   C45717023   1.432   6.056   7.651 -0.1823 -0.2259 -0.1924
   34MOL   C45817024   1.507   5.935   7.707  0.2560  0.0390  0.4655
   34MOL   C45917025   1.462   5.888   0.072 -0.7830 -0.2745  1.0468
   34MOL   C46017026   1.568   5.797   0.135 -0.2630 -0.4644  0.2042
   34MOL   H46117027   1.325   6.411   7.070  1.5319  2.8016  1.7812
   34MOL   H46217028   1.443   6.295   7.041 -2.7955 -3.6018  1.5278
   34MOL   H46317029   1.279   6.345   7.295  0.7305  0.0970  1.5267
   34MOL   H46417030   1.294   6.222   7.479 -0.1903 -0.8846  0.1604
   34MOL   H46517031   1.460   6.289   7.485 -2.3917  2.1260 -0.2515
   34MOL   H46617032   1.535   6.056   7.462  0.9124  1.1751  1.3310
   34MOL   H46717033   1.374   5.991   7.455  0.7061 -0.4200 -0.4205
   34MOL   H46817034   1.483   6.143   7.692  0.0406 -2.0994  3.7086
   34MOL   H46917035   1.335   6.065   7.700  0.1759 -2.0090  0.9118
   34MOL   H47017036   1.486   5.857   7.634  1.5351  0.4956 -0.4085
   34MOL   H47117037   1.614   5.952   7.695 -0.3193  2.4074 -1.6976
   34MOL   H47217038   1.446   5.977   0.133  1.0094 -0.2397  1.4929
   34MOL   H47317039   1.362   5.844   0.067 -1.1745  0.5384  1.6412
   34MOL   H47417040   1.533   5.774   0.236 -1.9491  0.6055 -0.1108
   34MOL   H47517041   1.585   5.705   0.079  0.2278  0.7329 -1.6601
   34MOL   H47617042   1.663   5.848   0.150 -0.6326  0.4057 -0.3155
   34MOL   C47717043   1.233   6.175   7.183 -0.4767 -0.3278 -0.1745
   34MOL   C47817044   1.106   6.223   7.109 -0.4935 -0.3019  0.1016
   34MOL   O47917045   1.127   6.202   6.970 -0.6232 -0.3039 -0.0817
   34MOL   C48017046   1.029   6.256   6.885  0.4991 -0.0253  0.0498
   34MOL   C48117047   1.082   6.384   6.816 -0.0970 -0.4291 -0.2100
   34MOL   C48217048   1.176   6.352   6.704  0.1025 -0.4431  0.2393
   34MOL   C48317049   1.268   6.463   6.653 -0.2810 -0.0666 -0.1957
   34MOL   C48417050   1.184   6.557   6.564 -0.4338  0.1474 -0.2397
   34MOL   C48517051   1.266   6.669   6.491  0.1439  0.3061 -0.1238
   34MOL   H48617052   1.294   6.106   7.124  2.9386  1.3817  1.2439
   34MOL   H48717053   1.193   6.127   7.272 -0.3212 -2.5775 -1.2617
   34MOL   H48817054   1.022   6.158   7.133 -0.6683 -0.4442 -0.8587
   34MOL   H48917055   0.941   6.276   6.947  0.5658 -2.8980  1.1105
   34MOL   H49017056   1.005   6.181   6.810 -2.0915  1.1693 -0.4080
   34MOL   H49117057   1.118   6.461   6.883 -2.6503 -0.2692  1.0297
   34MOL   H49217058   0.998   6.437   6.772 -0.2970 -2.3581 -2.2457
   34MOL   H49317059   1.242   6.273   6.741  0.0350 -0.0318  1.2354
   34MOL   H49417060   1.129   6.299   6.621  1.3684 -1.6192  0.2544
   34MOL   H49517061   1.300   6.532   6.731 -0.0984 -0.1245 -0.2201
   34MOL   H49617062   1.356   6.433   6.597  0.9743  0.8702  1.2576
   34MOL   H49717063   1.129   6.506   6.485  0.3213 -0.8339 -0.1356
   34MOL   H49817064   1.113   6.607   6.630 -0.4103 -0.4648  0.2641
   34MOL   H49917065   1.200   6.742   6.445 -0.7793 -0.0955  0.5473
   34MOL   H50017066   1.328   6.726   6.560  1.7816 -2.1978  0.5444
   34MOL   H50117067   1.332   6.623   6.418  0.0340  0.9768 -0.6537
   34MOL   H50217068   1.080   6.326   7.133 -0.5748 -0.9000  2.6881
   35MOL     C117069   2.010   0.730   5.003  0.0898 -0.0947  0.1198
   35MOL     C217070   2.099   0.685   5.118 -1.0757 -0.9839 -0.1794
   35MOL     O317071   2.233   0.693   5.070  0.5421  0.4043  0.0986
   35MOL     C417072   2.308   0.812   5.090  0.4193 -0.6717 -1.1079
   35MOL     C517073   2.430   0.791   5.002 -1.0181 -0.5891  0.1935
   35MOL     C617074   2.545   0.706   5.049 -0.5976 -0.1330 -0.2176
   35MOL     C717075   2.647   0.676   4.932  1.2741 -0.3416 -0.0182
   35MOL     C817076   2.745   0.577   4.979 -0.5925  0.0097  0.2648
   35MOL     C917077   2.832   0.527   4.862  0.0506  0.4517  0.3343
   35MOL    H1017078   1.910   0.687   5.006  0.9275 -2.0034  1.9024
   35MOL    H1117079   1.990   0.837   5.015  0.3650  0.1417 -1.4291
   35MOL    H1217080   2.086   0.742   5.210 -0.6208 -0.5902 -0.3594
   35MOL    H1317081   2.325   0.828   5.197  0.3508  0.1369 -1.2142
   35MOL    H1417082   2.247   0.894   5.051  1.2927  1.2200  1.4013
   35MOL    H1517083   2.468   0.887   4.967 -1.0229 -0.7460 -0.2540
   35MOL    H1617084   2.392   0.757   4.905 -1.5038 -0.6685  0.4076
   35MOL    H1717085   2.598   0.748   5.134  0.5086  0.3344 -1.1156
   35MOL    H1817086   2.508   0.615   5.095  1.8919 -0.1771  1.7969
   35MOL    H1917087   2.600   0.642   4.839  2.0793  1.1084 -0.9737
   35MOL    H2017088   2.701   0.770   4.917  0.5131  0.3892  1.7112
   35MOL    H2117089   2.703   0.489   5.027  1.7452 -2.5512 -2.2223
   35MOL    H2217090   2.819   0.618   5.048 -0.6376 -0.6269  0.6971
   35MOL    H2317091   2.760   0.482   4.793  1.1234 -0.1424 -0.4045
   35MOL    H2417092   2.889   0.613   4.828 -0.5625  1.6040  2.1391
   35MOL    H2517093   2.905   0.450   4.889 -1.5942 -1.1648  0.3060
   35MOL    H2617094   2.043   0.720   4.900 -2.2533  0.0033 -0.6644
   35MOL    C2717095   2.059   0.547   5.159 -0.3553 -0.4448  0.6180
   35MOL    C2817096   2.132   0.493   5.283 -0.2336 -0.8201 -0.1309
   35MOL    O2917097   2.103   0.577   5.394 -0.1745  0.1844 -0.3346
   35MOL    C3017098   2.213   0.650   5.456  0.4972 -0.7250  0.2607
   35MOL    C3117099   2.168   0.704   5.596  0.4635 -0.2135  0.0436
   35MOL    C3217100   2.144   0.605   5.709 -0.4102  0.4800 -0.2614
   35MOL    C3317101   1.994   0.565   5.735 -0.0132  0.2101 -0.1586
   35MOL    C3417102   1.970   0.511   5.878 -0.5121  0.5327 -0.4608
   35MOL    C3517103   2.042   0.381   5.913 -0.3895  0.7692  0.5117
   35MOL    H3617104   1.951   0.538   5.176 -0.9305  1.9540 -1.3153
   35MOL    H3717105   2.079   0.488   5.069  0.2088 -0.4180  0.7274
   35MOL    H3817106   2.240   0.496   5.267 -0.2423 -0.1389 -0.0827
   35MOL    H3917107   2.241   0.736   5.395  0.8008 -1.6536 -0.9334
   35MOL    H4017108   2.304   0.590   5.460  0.5774 -0.7654 -1.5228
   35MOL    H4117109   2.082   0.770   5.589  0.0579 -0.7331  0.1737
   35MOL    H4217110   2.253   0.762   5.634  3.5939 -2.3874 -3.2359
   35MOL    H4317111   2.199   0.516   5.675  0.3891  1.0459 -0.4685
   35MOL    H4417112   2.191   0.652   5.795  2.0815  1.4670 -2.1077
   35MOL    H4517113   1.941   0.658   5.716 -0.3571  0.1102  0.3202
   35MOL    H4617114   1.948   0.501   5.659 -1.2179  0.6005  0.2295
   35MOL    H4717115   2.004   0.578   5.957  0.9081 -0.0093 -0.6053
   35MOL    H4817116   1.861   0.504   5.889 -0.1758 -1.6955  2.0304
   35MOL    H4917117   2.028   0.354   6.017  1.2734 -1.1954  0.2593
   35MOL    H5017118   1.997   0.295   5.864  0.9206  1.6328 -2.3662
   35MOL    H5117119   2.149   0.393   5.894 -0.0790  0.0842  1.7593
   35MOL    C5217120   2.107   0.344   5.320 -0.0848 -0.7177 -0.1629
   35MOL    C5317121   2.190   0.295   5.437  0.2804 -0.4137  0.0668
   35MOL    O5417122   2.131   0.185   5.496  0.1263  0.1713  0.1882
   35MOL    C5517123   2.091   0.209   5.628 -0.0182  0.5323 -0.1375
   35MOL    C5617124   2.031   0.074   5.672 -0.4873 -0.3471 -0.4470
   35MOL    C5717125   2.134   7.744   5.716 -0.3708 -0.3322  0.0853
   35MOL    C5817126   2.078   7.604   5.711 -0.5503  0.2463 -0.2596
   35MOL    C5917127   2.175   7.510   5.787  0.0219 -0.1637 -0.3357
   35MOL    C6017128   2.126   7.359   5.798  0.4682  0.2378  0.4269
   35MOL    H6117129   2.114   0.281   5.231  0.2610 -1.4303  0.3652
   35MOL    H6217130   2.002   0.347   5.350 -0.2540  0.5366 -0.8346
   35MOL    H6317131   2.200   0.383   5.501 -0.3939  0.6421 -1.2678
   35MOL    H6417132   2.010   0.283   5.627  1.3638  2.0825 -0.5446
   35MOL    H6517133   2.174   0.248   5.686  0.9112 -0.6479 -0.6627
   35MOL    H6617134   1.960   0.042   5.596 -0.2744  0.0545 -0.8123
   35MOL    H6717135   1.971   0.101   5.760  3.2351  2.3650  1.3800
   35MOL    H6817136   2.222   7.745   5.651 -0.7960 -3.6364 -0.6151
   35MOL    H6917137   2.150   0.003   5.817 -3.3853  2.2514 -0.2731
   35MOL    H7017138   1.977   7.616   5.751 -0.1648  1.8093  0.3126
   35MOL    H7117139   2.063   7.577   5.607 -0.0061  0.1717 -0.3234
   35MOL    H7217140   2.272   7.514   5.737  0.7583  1.9910  1.1919
   35MOL    H7317141   2.195   7.545   5.888  0.3919 -2.5348  0.4482
   35MOL    H7417142   2.195   7.283   5.835 -0.7584  0.2014  2.6626
   35MOL    H7517143   2.047   7.351   5.872 -0.0909  2.0093  0.0387
   35MOL    H7617144   2.091   7.327   5.700  1.0362  0.9422 -0.0168
   35MOL    C7717145   2.338   0.255   5.408  0.2259 -0.1135 -0.2832
   35MOL    C7817146   2.424   0.214   5.527  0.1193  0.1870 -0.3338
   35MOL    O7917147   2.395   0.318   5.624 -0.0610  0.0733  0.2979
   35MOL    C8017148   2.446   0.296   5.750 -0.4570 -0.4400 -0.6916
   35MOL    C8117149   2.459   0.432   5.822 -0.2561 -0.2998 -0.4474
   35MOL    C8217150   2.572   0.528   5.776 -0.7816  0.0734 -0.3910
   35MOL    C8317151   2.719   0.470   5.797  0.0668  0.5454 -0.4179
   35MOL    C8417152   2.817   0.585   5.800  0.1569  0.0838  0.5582
   35MOL    C8517153   2.963   0.557   5.840 -0.2754  0.7051 -0.9256
   35MOL    H8617154   2.402   0.330   5.362  1.4221 -0.7272  0.3605
   35MOL    H8717155   2.337   0.174   5.335 -0.3173 -0.9248  0.6175
   35MOL    H8817156   2.391   0.118   5.567  1.3021 -0.7601 -1.6106
   35MOL    H8917157   2.548   0.263   5.734  1.1722  3.7682  0.5278
   35MOL    H9017158   2.389   0.217   5.799  0.2112 -0.3278  0.2663
   35MOL    H9117159   2.466   0.419   5.930 -1.3605 -1.0930 -0.4613
   35MOL    H9217160   2.360   0.478   5.827  0.8163  1.8739  1.2356
   35MOL    H9317161   2.542   0.534   5.672  0.2542 -1.7450 -0.8172
   35MOL    H9417162   2.550   0.624   5.823 -0.8736 -1.6415  3.2481
   35MOL    H9517163   2.708   0.418   5.892  0.2392 -0.9343 -1.1946
   35MOL    H9617164   2.744   0.395   5.723 -0.0119  1.1457 -1.0565
   35MOL    H9717165   2.827   0.629   5.701  0.3648 -0.2424  0.4332
   35MOL    H9817166   2.781   0.660   5.872 -0.6221 -0.5274  0.8087
   35MOL    H9917167   2.961   0.496   5.930 -2.8451  0.0043 -1.4088
   35MOL   H10017168   3.018   0.510   5.758  1.0288  0.5645  0.0181
   35MOL   H10117169   3.006   0.651   5.873  3.5109 -2.1977  2.9906
   35MOL   C10217170   2.569   0.191   5.493 -0.4216 -0.0899 -0.3856
   35MOL   C10317171   2.597   0.106   5.368  0.1084 -0.2952  0.6879
   35MOL   O10417172   2.581   0.186   5.246  0.3213  0.5466 -0.1437
   35MOL   C10517173   2.568   0.112   5.129  0.2646 -0.5761  0.9672
   35MOL   C10617174   2.534   0.196   5.004 -0.4374 -0.3617  0.2355
   35MOL   C10717175   2.398   0.260   5.029  0.3824  0.7212 -0.1202
   35MOL   C10817176   2.361   0.359   4.920 -0.1193 -0.9167 -0.4567
   35MOL   C10917177   2.336   0.302   4.780  0.1193 -0.0365  0.9298
   35MOL   C11017178   2.299   0.415   4.682 -0.4286 -0.0920 -0.0064
   35MOL   H11117179   2.630   0.281   5.486 -3.2686  1.8558 -1.0978
   35MOL   H11217180   2.616   0.144   5.579  0.0931 -0.9233 -1.1228
   35MOL   H11317181   2.514   0.036   5.362  1.0582 -1.2887 -1.4983
   35MOL   H11417182   2.508   0.022   5.141 -0.2315 -0.5716 -1.2682
   35MOL   H11517183   2.669   0.077   5.107  0.6132  1.5826 -1.1092
   35MOL   H11617184   2.534   0.135   4.914 -1.0392  0.1942 -0.1457
   35MOL   H11717185   2.609   0.270   4.974  0.5038 -1.3026  0.2203
   35MOL   H11817186   2.322   0.181   5.034  1.0609  0.0805  0.2376
   35MOL   H11917187   2.395   0.312   5.124 -1.1331  1.0735 -0.3413
   35MOL   H12017188   2.284   0.424   4.962  0.9654 -0.0191  0.1478
   35MOL   H12117189   2.445   0.427   4.915  1.3142 -2.7349 -1.5968
   35MOL   H12217190   2.418   0.246   4.735  2.1075  2.6301  1.1193
   35MOL   H12317191   2.243   0.245   4.780 -0.8394  1.4724 -1.5357
   35MOL   H12417192   2.272   0.377   4.584 -0.7627  0.6824 -0.2154
   35MOL   H12517193   2.217   0.476   4.721  0.6992  0.4623  1.5853
   35MOL   H12617194   2.369   0.497   4.668 -2.1255  0.9913 -2.3429
   35MOL   C12717195   2.736   0.036   5.376  0.8339 -0.1515  0.3090
   35MOL   C12817196   2.755   7.674   5.435  0.1794 -0.4926  0.3919
   35MOL   O12917197   2.736   7.699   5.572 -0.3012  0.3563 -0.1629
   35MOL   C13017198   2.611   7.653   5.631 -0.1999 -0.1860  0.0084
   35MOL   C13117199   2.609   7.709   5.777 -0.0910  0.1213  0.9846
   35MOL   C13217200   2.488   7.666   5.865 -0.0228 -0.8116 -0.5471
   35MOL   C13317201   2.515   7.709   6.012  0.4211 -0.8441 -0.7734
   35MOL   C13417202   2.396   7.665   6.107 -0.0320 -0.1483  0.2776
   35MOL   C13517203   2.297   0.001   6.119 -0.4787 -0.1491 -0.0688
   35MOL   H13617204   2.770   0.019   5.274  0.2852 -0.7829  0.2297
   35MOL   H13717205   2.799   0.115   5.417  0.6773 -1.1267  2.4604
   35MOL   H13817206   2.691   7.608   5.377  0.6272 -1.1921  0.6881
   35MOL   H13917207   2.607   7.544   5.624 -1.6592 -0.0714 -1.1999
   35MOL   H14017208   2.525   7.697   5.580 -1.7336 -0.8082  1.9703
   35MOL   H14117209   2.623   0.040   5.769  1.6805 -0.1764 -0.1687
   35MOL   H14217210   2.701   7.679   5.827 -0.2784 -1.3460  0.4778
   35MOL   H14317211   2.396   7.708   5.823  0.4763  0.2928 -0.5444
   35MOL   H14417212   2.463   7.560   5.864  0.6301 -0.9600 -2.0881
   35MOL   H14517213   2.610   7.669   6.048  0.2714  0.4863  1.1631
   35MOL   H14617214   2.529   0.040   6.016 -0.4835 -0.6908 -1.5122
   35MOL   H14717215   2.345   7.573   6.078 -1.3012  1.0828 -1.4879
   35MOL   H14817216   2.441   7.649   6.205  0.0947 -1.3800  0.0289
   35MOL   H14917217   2.231   7.748   6.200  1.0166  0.3388  1.3615
   35MOL   H15017218   2.344   0.098   6.135 -1.3187  0.2686 -0.1101
   35MOL   H15117219   2.245   7.776   6.023 -2.4959 -1.0149  1.0121
   35MOL   C15217220   2.899   7.623   5.429  0.1304  0.3040 -0.4643
   35MOL   C15317221   2.911   7.470   5.461  0.0381  0.1894 -0.2699
   35MOL   O15417222   2.842   7.403   5.354 -0.0921 -0.1348  0.1784
   35MOL   C15517223   2.787   7.276   5.394 -0.7048  0.0650 -0.2487
   35MOL   C15617224   2.754   7.197   5.264 -0.1597  0.0584  0.1555
   35MOL   C15717225   2.880   7.132   5.200 -0.3034 -1.0055 -0.0107
   35MOL   C15817226   2.843   7.062   5.074  0.4954  0.1333 -0.8079
   35MOL   C15917227   2.960   6.998   4.993  0.2348 -0.1706  0.3072
   35MOL   C16017228   2.900   6.945   4.856  0.1629 -0.2095 -0.7860
   35MOL   H16117229   2.949   7.638   5.334  1.2682  0.7824  0.1877
   35MOL   H16217230   2.960   7.684   5.496  1.0961  0.3325 -1.3643
   35MOL   H16317231   2.856   7.444   5.552  0.2183 -0.2248 -0.2804
   35MOL   H16417232   2.690   7.288   5.442 -1.2101 -2.0955 -0.6881
   35MOL   H16517233   2.847   7.207   5.454 -1.1713 -0.0651  0.0665
   35MOL   H16617234   2.718   7.261   5.184  0.8493  0.1752 -0.2112
   35MOL   H16717235   2.692   7.108   5.281 -0.1171  0.2951  1.6045
   35MOL   H16817236   2.952   7.214   5.192 -1.9461  0.3494 -1.4286
   35MOL   H16917237   2.928   7.071   5.276 -0.9146  0.3386  1.5041
   35MOL   H17017238   2.781   6.974   5.091  1.3228 -0.2931  0.0116
   35MOL   H17117239   2.788   7.123   5.002 -0.0062  0.7365  0.0837
   35MOL   H17217240   3.033   7.075   4.966  0.6379 -0.1464  1.4391
   35MOL   H17317241   2.993   6.921   5.062  0.3310  0.0169  0.4748
   35MOL   H17417242   2.819   7.003   4.812  0.0738 -1.6996 -2.6316
   35MOL   H17517243   2.978   6.929   4.782 -1.8952 -0.9675 -2.8556
   35MOL   H17617244   2.854   6.850   4.884  2.1686 -1.0207 -0.1718
   35MOL   C17717245   3.055   7.424   5.470  0.3999 -0.3612  0.0681
   35MOL   C17817246   3.138   7.494   5.587 -0.0642 -0.2647 -0.1347
   35MOL   O17917247   3.093   7.446   5.722  0.4661 -0.0361 -0.0885
   35MOL   C18017248   2.993   7.523   5.786 -0.0947  0.2284  0.0535
   35MOL   C18117249   2.978   7.476   5.929  0.5907  0.1222 -0.1871
   35MOL   C18217250   3.103   7.494   6.021  0.6984  0.1959  0.0673
   35MOL   C18317251   3.071   7.477   6.167 -0.8482  0.1318 -0.3502
   35MOL   C18417252   3.180   7.542   6.253 -0.3874 -0.1966 -0.2964
   35MOL   C18517253   3.179   7.512   6.405  0.3091  0.0382  0.0703
   35MOL   H18617254   3.047   7.315   5.471  3.4118 -0.6636 -0.7210
   35MOL   H18717255   3.106   7.452   5.377  1.2126  1.5153  1.0461
   35MOL   H18817256   3.124   7.602   5.580 -0.3027 -0.4878 -3.9775
   35MOL   H18917257   2.898   7.514   5.732  0.9903  0.2024 -1.9090
   35MOL   H19017258   3.033   7.625   5.782 -1.0260  0.5328 -3.3227
   35MOL   H19117259   2.953   7.370   5.928  1.5514 -0.0953 -1.1044
   35MOL   H19217260   2.892   7.535   5.962  0.3751  0.1928 -0.8686
   35MOL   H19317261   3.184   7.426   5.995 -0.2917 -1.6710  1.7028
   35MOL   H19417262   3.131   7.599   6.013  3.1524 -0.2695  1.9089
   35MOL   H19517263   2.977   7.527   6.189 -1.5083 -0.2657 -2.1968
   35MOL   H19617264   3.064   7.371   6.192  0.0217  0.3443  0.8142
   35MOL   H19717265   3.273   7.507   6.207  0.6066  0.6278  1.0519
   35MOL   H19817266   3.179   7.648   6.228  1.5566 -0.6792 -2.6522
   35MOL   H19917267   3.086   7.549   6.447 -1.2843 -2.3328 -1.2444
   35MOL   H20017268   3.187   7.403   6.415  1.1575  0.1486  0.6827
   35MOL   H20117269   3.263   7.556   6.459  0.0086 -1.0803  1.5094
   35MOL   C20217270   3.281   7.458   5.577  0.2411 -0.2232 -0.1141
   35MOL   C20317271   3.379   7.555   5.642  0.5021  0.5073  0.0704
   35MOL   O20417272   3.514   7.521   5.612 -0.0638 -0.9046 -0.0994
   35MOL   C20517273   3.550   7.581   5.488 -0.2704 -0.3134  0.0661
   35MOL   C20617274   3.687   7.533   5.446 -0.0936  0.2585  0.5812
   35MOL   C20717275   3.696   7.377   5.440 -0.4781  0.0679 -0.2128
   35MOL   C20817276   3.668   7.315   5.302 -0.3040  0.0452  0.1571
   35MOL   C20917277   3.683   7.164   5.298 -0.0265 -0.8780  0.3289
   35MOL   C21017278   3.822   7.112   5.346 -0.3550 -0.1570  0.3138
   35MOL   H21117279   3.296   7.361   5.624  0.7303  0.4822  1.1905
   35MOL   H21217280   3.311   7.447   5.472  1.1786  0.8092  0.0429
   35MOL   H21317281   3.355   7.654   5.602  0.6417  0.5888  0.1886
   35MOL   H21417282   3.545   7.688   5.506 -0.3815 -0.3330  0.1551
   35MOL   H21517283   3.476   7.570   5.408 -0.7424  1.7360  0.2020
   35MOL   H21617284   3.757   7.556   5.527  0.6396 -1.2472  0.4000
   35MOL   H21717285   3.722   7.580   5.354 -1.3730 -0.0511 -0.0796
   35MOL   H21817286   3.801   7.356   5.458 -0.7491 -1.2885 -0.1812
   35MOL   H21917287   3.635   7.331   5.517 -1.0075  0.3734 -0.4508
   35MOL   H22017288   3.564   7.343   5.285 -0.4234 -1.3939 -1.6649
   35MOL   H22117289   3.720   7.357   5.216  0.3591 -2.0069 -0.4835
   35MOL   H22217290   3.604   7.127   5.364 -1.4789  0.2270 -0.7696
   35MOL   H22317291   3.675   7.131   5.195  0.8858 -1.1318  0.3360
   35MOL   H22417292   3.901   7.161   5.289 -0.8854  2.2715  1.5672
   35MOL   H22517293   3.849   7.152   5.444  0.6933 -2.6433  1.0683
   35MOL   H22617294   3.827   7.004   5.342 -0.6877 -0.1412 -0.6970
   35MOL   C22717295   3.370   7.575   5.795 -0.0365 -0.4067 -1.0175
   35MOL   C22817296   3.473   7.670   5.874  0.5408  0.4178 -1.0619
   35MOL   O22917297   3.447   0.030   5.866  0.0191 -0.1985 -0.0803
   35MOL   C23017298   3.497   0.100   5.754 -0.0884 -0.1928  0.0999
   35MOL   C23117299   3.452   0.249   5.759 -0.1517 -0.2321  0.2089
   35MOL   C23217300   3.304   0.257   5.805 -0.6581  0.0138 -0.8530
   35MOL   C23317301   3.195   0.205   5.709  0.2868  0.4233  0.6778
   35MOL   C23417302   3.057   0.203   5.778  0.2555 -0.2263 -0.3789
   35MOL   C23517303   2.948   0.165   5.679  0.0113 -0.7547 -0.8630
   35MOL   H23617304   3.267   7.606   5.811  0.1172 -1.0449  1.4525
   35MOL   H23717305   3.369   7.471   5.828  1.0219 -0.0841  0.0827
   35MOL   H23817306   3.575   7.649   5.840  0.3704 -3.3153  0.4882
   35MOL   H23917307   3.454   0.056   5.664 -1.4638  1.0004  0.1457
   35MOL   H24017308   3.605   0.094   5.757 -0.1445 -0.6147  1.6835
   35MOL   H24117309   3.457   0.297   5.662 -0.4240 -0.6954 -0.0352
   35MOL   H24217310   3.530   0.296   5.818 -2.0988  1.2125  1.6994
   35MOL   H24317311   3.293   0.220   5.907 -1.2943 -1.0102 -1.2737
   35MOL   H24417312   3.288   0.364   5.813  1.3921  0.3497 -1.0915
   35MOL   H24517313   3.199   0.258   5.614  1.6081  2.1156  1.6514
   35MOL   H24617314   3.229   0.110   5.670 -1.0154  1.1789 -2.4131
   35MOL   H24717315   3.068   0.131   5.859 -1.9590 -1.0839 -0.8053
   35MOL   H24817316   3.025   0.296   5.825  2.1070  0.2581 -0.0033
   35MOL   H24917317   2.955   0.071   5.624  2.8847 -1.7456  1.0710
   35MOL   H25017318   2.849   0.171   5.724 -0.1538 -0.0374 -1.3127
   35MOL   H25117319   2.946   0.237   5.598 -2.1658 -0.2045 -0.3654
   35MOL   C25217320   3.455   7.630   6.023 -0.3976 -0.3175  0.3676
   35MOL   C25317321   3.578   7.662   6.109 -0.3890  0.2703 -0.3852
   35MOL   O25417322   3.691   7.610   6.049 -0.3526 -0.0357  0.4863
   35MOL   C25517323   3.787   7.704   6.011  0.3946  0.5699 -0.4405
   35MOL   C25617324   3.898   7.628   5.928 -0.0621 -0.0071  0.2650
   35MOL   C25717325   3.854   7.558   5.801 -0.2476  0.6516 -0.7307
   35MOL   C25817326   3.974   7.478   5.755 -0.2524  0.5468 -0.3485
   35MOL   C25917327   4.070   7.568   5.682  0.0170 -0.2040 -0.1681
   35MOL   C26017328   4.165   7.488   5.596 -1.0224  0.2861 -0.0650
   35MOL   H26117329   3.362   7.676   6.057 -2.4217 -2.4453 -2.1136
   35MOL   H26217330   3.429   7.525   6.029 -0.9421 -0.2013  0.0516
   35MOL   H26317331   3.584   7.771   6.112  1.7050  0.1451  1.1463
   35MOL   H26417332   3.839   7.749   6.095  2.5776 -0.7411 -1.0518
   35MOL   H26517333   3.737   0.011   5.963 -3.9045  0.3790  3.4070
   35MOL   H26617334   3.944   7.550   5.988 -0.1277 -1.1760 -1.1675
   35MOL   H26717335   3.969   7.708   5.903 -0.4174 -0.4575 -2.2896
   35MOL   H26817336   3.778   7.480   5.818 -0.7257  1.5023  1.2307
   35MOL   H26917337   3.809   7.628   5.731 -3.1839  0.7269  1.1329
   35MOL   H27017338   4.022   7.424   5.837 -0.3043 -0.7222 -1.1449
   35MOL   H27117339   3.933   7.404   5.686 -0.0028  0.7992 -0.7689
   35MOL   H27217340   4.010   7.633   5.618 -0.3810  0.9857  1.3720
   35MOL   H27317341   4.126   7.639   5.743  0.1563 -0.5843  0.1471
   35MOL   H27417342   4.229   7.429   5.663 -1.3030 -1.3024 -1.1737
   35MOL   H27517343   4.117   7.423   5.523 -0.7223  0.2915 -0.2671
   35MOL   H27617344   4.238   7.542   5.535 -1.4429 -1.3624 -2.0798
   35MOL   C27717345   3.572   7.595   6.245  0.0981  0.0819 -0.1801
   35MOL   C27817346   3.675   7.627   6.358  0.5883  1.2028 -0.4217
   35MOL   O27917347   3.675   7.767   6.391 -0.6234 -0.3552  0.1919
   35MOL   C28017348   3.796   0.040   6.447 -0.5381 -0.6301  0.1899
   35MOL   C28117349   3.777   0.195   6.448 -0.2941 -0.5619  0.4100
   35MOL   C28217350   3.861   0.273   6.555  0.1621 -0.2036 -0.1290
   35MOL   C28317351   3.855   0.426   6.530 -0.2758  0.0347  0.0932
   35MOL   C28417352   3.928   0.506   6.643 -0.3233 -0.2766  0.0333
   35MOL   C28517353   4.068   0.458   6.674 -0.0207  0.4090  0.8738
   35MOL   H28617354   3.478   7.607   6.299  1.7376 -0.7582  2.9233
   35MOL   H28717355   3.585   7.489   6.224  1.5666 -0.2877  2.4327
   35MOL   H28817356   3.775   7.604   6.323  1.5226  0.6464  2.4384
   35MOL   H28917357   3.884   0.010   6.391  0.1843  0.0769  0.9420
   35MOL   H29017358   3.812   7.774   6.546 -1.0617  0.5188  0.7850
   35MOL   H29117359   3.677   0.220   6.484 -0.5576  0.1328 -0.7860
   35MOL   H29217360   3.790   0.230   6.346  0.4129 -0.2275  0.6129
   35MOL   H29317361   3.823   0.251   6.655  0.0595  0.5181 -0.0037
   35MOL   H29417362   3.965   0.248   6.532 -0.3197  0.1388 -2.9264
   35MOL   H29517363   3.901   0.449   6.434  0.3758 -0.4889  0.2770
   35MOL   H29617364   3.751   0.456   6.518 -0.3312  0.3622  1.3282
   35MOL   H29717365   3.921   0.611   6.617  0.6525 -0.3958 -0.7307
   35MOL   H29817366   3.865   0.508   6.732  0.1143 -2.8178  0.4602
   35MOL   H29917367   4.133   0.535   6.715 -1.5409  2.5030 -0.5067
   35MOL   H30017368   4.061   0.384   6.753  0.9967 -0.3712  0.2607
   35MOL   H30117369   4.112   0.415   6.583  1.6487 -0.7341  2.1883
   35MOL   C30217370   3.643   7.539   6.485 -0.2306  0.6449  0.4968
   35MOL   C30317371   3.650   7.387   6.458  0.3109  0.0141 -0.3919
   35MOL   O30417372   3.528   7.328   6.410 -0.1813 -0.7279 -0.5825
   35MOL   C30517373   3.542   7.212   6.322  0.2070  0.4698  0.1110
   35MOL   C30617374   3.397   7.168   6.269  0.1035  0.5300 -0.0964
   35MOL   C30717375   3.395   7.044   6.185 -0.5272 -0.5517 -0.6124
   35MOL   C30817376   3.256   6.988   6.153 -0.1349 -0.2516  0.1396
   35MOL   C30917377   3.252   6.846   6.092 -0.2393  0.2069  0.2297
   35MOL   C31017378   3.107   6.804   6.063 -0.0343 -0.0972 -0.4087
   35MOL   H31117379   3.710   7.564   6.567 -1.1593 -1.0693  1.8105
   35MOL   H31217380   3.539   7.540   6.517 -0.0691 -0.1499  1.0652
   35MOL   H31317381   3.725   7.369   6.381  1.3195  0.9844  0.3533
   35MOL   H31417382   3.587   7.127   6.373 -0.3574 -0.9884 -1.7652
   35MOL   H31517383   3.616   7.230   6.244  0.6294  2.0414  0.8609
   35MOL   H31617384   3.347   7.252   6.220  1.7231  1.6481  0.1166
   35MOL   H31717385   3.321   7.150   6.345 -0.2437 -0.0716 -0.5793
   35MOL   H31817386   3.455   7.057   6.095  0.2762 -1.2477 -0.1848
   35MOL   H31917387   3.452   6.967   6.236 -0.2663 -0.3510 -0.6026
   35MOL   H32017388   3.195   6.984   6.244 -1.4883  3.2750 -0.5314
   35MOL   H32117389   3.209   7.054   6.081  0.1201 -0.3066 -0.0783
   35MOL   H32217390   3.302   6.847   5.996  1.2800  1.6037  0.9966
   35MOL   H32317391   3.304   6.773   6.154  0.1600 -0.6995 -1.1530
   35MOL   H32417392   3.097   6.710   6.007  0.7453 -2.2566  2.9263
   35MOL   H32517393   3.042   6.787   6.149  0.8384 -0.4665  0.1754
   35MOL   H32617394   3.056   6.878   6.001  0.3504  2.0285  1.7752
   35MOL   C32717395   3.695   7.304   6.584 -0.0798 -0.2650 -0.0619
   35MOL   C32817396   3.847   7.313   6.627 -0.2194  0.3271 -0.0277
   35MOL   O32917397   3.870   7.326   6.771 -0.0258 -0.1245  0.3884
   35MOL   C33017398   3.896   7.459   6.813 -0.1993  0.1845  0.1072
   35MOL   C33117399   3.963   7.463   6.947  0.0595  0.1451  0.8807
   35MOL   C33217400   4.081   7.374   6.966 -0.8263  0.4521 -0.0618
   35MOL   C33317401   4.138   7.372   7.113  0.3723  0.2641  0.1724
   35MOL   C33417402   4.085   7.262   7.204  0.0281  0.1583 -1.5012
   35MOL   C33517403   4.095   7.121   7.136  0.0536 -0.0354 -0.5640
   35MOL   H33617404   3.647   7.206   6.595  0.9834 -0.8203 -0.3015
   35MOL   H33717405   3.639   7.355   6.662  0.1043 -0.5183  0.2341
   35MOL   H33817406   3.898   7.386   6.565  0.1291  0.7249  0.7304
   35MOL   H33917407   3.800   7.511   6.819 -0.0979  0.1607  2.2065
   35MOL   H34017408   3.952   7.518   6.740  0.6008  0.5303  0.9883
   35MOL   H34117409   3.894   7.431   7.026 -0.2321  0.0532  0.5917
   35MOL   H34217410   3.985   7.567   6.967 -0.9422  0.6117 -0.3134
   35MOL   H34317411   4.073   7.276   6.918 -3.6048  2.0212 -2.9611
   35MOL   H34417412   4.162   7.421   6.909 -3.1880  1.5843 -2.6088
   35MOL   H34517413   4.247   7.370   7.110  0.3073 -0.4912 -2.9456
   35MOL   H34617414   4.116   7.469   7.157  0.2953  0.6846 -0.7809
   35MOL   H34717415   4.140   7.249   7.297 -0.3007  0.9208 -1.1931
   35MOL   H34817416   3.979   7.279   7.225  0.6147 -0.4857  2.2307
   35MOL   H34917417   4.015   7.094   7.066  0.6994 -1.2150 -0.8605
   35MOL   H35017418   4.197   7.109   7.101  1.2651  0.1449  2.8035
   35MOL   H35117419   4.080   7.051   7.218  1.0314 -1.3631 -1.5104
   35MOL   C35217420   3.920   7.179   6.593 -0.2145 -0.1591  0.5199
   35MOL   C35317421   3.918   7.121   6.448 -0.0466 -0.3995 -0.6419
   35MOL   O35417422   3.983   6.995   6.443  0.0438  0.2262 -0.0414
   35MOL   C35517423   3.898   6.878   6.460  0.1515  0.3197  0.0021
   35MOL   C35617424   3.956   6.752   6.395  0.3123 -0.7959 -0.0935
   35MOL   C35717425   4.099   6.734   6.453 -0.2155 -0.0375  0.1348
   35MOL   C35817426   4.178   6.609   6.378  0.1555 -0.2423 -0.2205
   35MOL   C35917427   4.288   6.559   6.467 -0.8332  0.0368 -0.4119
   35MOL   C36017428   4.401   6.653   6.488  1.0962 -0.1069 -0.1106
   35MOL   H36117429   4.022   7.174   6.630 -0.7025 -0.7766  1.8049
   35MOL   H36217430   3.875   7.095   6.647 -1.7292  0.1602 -0.2225
   35MOL   H36317431   3.816   7.117   6.410  0.9723  0.5051 -3.5989
   35MOL   H36417432   3.802   6.887   6.411  0.1471 -0.0766 -0.0684
   35MOL   H36517433   3.872   6.868   6.565  0.8447  1.4334  0.2942
   35MOL   H36617434   3.955   6.759   6.286 -1.2762  0.6816 -0.0157
   35MOL   H36717435   3.899   6.661   6.411 -0.0971 -0.7772 -1.4290
   35MOL   H36817436   4.167   6.815   6.430 -1.0931  0.4751 -0.6820
   35MOL   H36917437   4.099   6.721   6.562  0.6378 -0.5476  0.0801
   35MOL   H37017438   4.097   6.538   6.366  0.7680 -0.7987 -1.0949
   35MOL   H37117439   4.209   6.640   6.278  1.4440 -0.9240 -0.0414
   35MOL   H37217440   4.242   6.526   6.561 -1.3394  0.0258 -0.6612
   35MOL   H37317441   4.332   6.471   6.421 -0.1886  0.1032  0.0581
   35MOL   H37417442   4.435   6.686   6.390 -0.3482  1.5730 -0.0673
   35MOL   H37517443   4.371   6.741   6.544 -0.0808 -0.7751  0.3204
   35MOL   H37617444   4.490   6.604   6.530 -0.0769 -1.3742  0.9485
   35MOL   C37717445   4.008   7.204   6.354  0.5186 -0.0269 -1.0543
   35MOL   C37817446   4.015   7.152   6.203 -0.1125  0.3370 -0.8215
   35MOL   O37917447   4.075   7.246   6.116 -0.4945 -0.3304 -0.3736
   35MOL   C38017448   4.214   7.265   6.138  1.1081  0.2667  0.3087
   35MOL   C38117449   4.262   7.349   6.020 -0.6070 -0.4247  0.3102
   35MOL   C38217450   4.412   7.382   6.022 -0.0666 -0.1465  0.5920
   35MOL   C38317451   4.437   7.480   5.900  0.3723 -0.2393 -0.0659
   35MOL   C38417452   4.586   7.494   5.883 -0.2908  0.3228 -0.3684
   35MOL   C38517453   4.659   7.391   5.809  0.7419 -0.1045 -0.2706
   35MOL   H38617454   3.967   7.304   6.363  0.0488 -0.3029 -0.1087
   35MOL   H38717455   4.111   7.198   6.391 -0.8550 -0.6553  2.8612
   35MOL   H38817456   4.072   7.059   6.198 -1.2124 -0.2760 -2.2112
   35MOL   H38917457   4.271   7.172   6.149 -0.3580 -0.7585 -0.5854
   35MOL   H39017458   4.227   7.318   6.232  1.2051  0.3752  0.2347
   35MOL   H39117459   4.209   7.444   6.031  1.0670  0.6458 -0.6851
   35MOL   H39217460   4.232   7.300   5.928  0.7361  1.9229 -1.4439
   35MOL   H39317461   4.438   7.426   6.119  1.0101  1.2838 -0.3365
   35MOL   H39417462   4.459   7.286   6.004 -0.1039 -0.1054  0.2703
   35MOL   H39517463   4.398   7.433   5.810 -0.0442 -0.9051  0.4515
   35MOL   H39617464   4.382   7.573   5.889 -1.7201 -1.5704 -1.0465
   35MOL   H39717465   4.618   7.590   5.844  1.1315 -0.3088 -0.7979
   35MOL   H39817466   4.627   7.491   5.984  0.0296 -0.9306 -0.5295
   35MOL   H39917467   4.621   7.389   5.707 -0.5236  0.7941  0.1739
   35MOL   H40017468   4.767   7.404   5.819  0.5757  1.0226  0.1495
   35MOL   H40117469   4.649   7.292   5.854  1.5162 -0.9026 -1.8351
   35MOL   C40217470   3.877   7.139   6.134 -0.3495  0.2317 -0.0872
   35MOL   C40317471   3.879   7.050   6.008  0.9483  0.0886  0.6415
   35MOL   O40417472   3.754   7.067   5.941  0.0853  0.4625  0.2487
   35MOL   C40517473   3.750   7.181   5.860 -0.4299  0.1421 -1.2306
   35MOL   C40617474   3.611   7.181   5.793  0.4842  0.1896 -0.0695
   35MOL   C40717475   3.587   7.066   5.696 -0.3211  0.2367  0.4715
   35MOL   C40817476   3.443   7.065   5.650 -0.0289 -0.8599 -0.1633
   35MOL   C40917477   3.426   6.955   5.538 -0.7265  0.4591  0.2854
   35MOL   C41017478   3.413   6.811   5.586 -0.2409 -0.7059  0.3082
   35MOL   H41117479   3.835   7.239   6.136  0.5742  0.6407 -1.0691
   35MOL   H41217480   3.805   7.083   6.195 -1.4128  1.1300 -0.4984
   35MOL   H41317481   3.955   7.072   5.933  0.4175 -0.3950 -0.0333
   35MOL   H41417482   3.826   7.176   5.782 -0.7089  0.2619 -1.5117
   35MOL   H41517483   3.762   7.268   5.924  2.7565 -1.4504  0.4327
   35MOL   H41617484   3.606   7.281   5.750  2.5543  0.0070 -0.7722
   35MOL   H41717485   3.545   7.171   5.880  2.8957  3.9848  2.3752
   35MOL   H41817486   3.641   7.091   5.605  0.5001 -0.4768  0.7594
   35MOL   H41917487   3.617   6.968   5.734  2.8662  0.2675 -1.7933
   35MOL   H42017488   3.384   7.055   5.741  0.9260 -1.1467  0.4375
   35MOL   H42117489   3.420   7.166   5.616 -1.3817 -1.1735 -0.1981
   35MOL   H42217490   3.340   6.976   5.475  0.6763  0.5100 -1.6462
   35MOL   H42317491   3.515   6.960   5.475 -0.4443 -1.9171  0.4542
   35MOL   H42417492   3.425   6.761   5.490  1.0120 -0.5843  0.3824
   35MOL   H42517493   3.500   6.786   5.647 -0.5585  0.7054  1.3739
   35MOL   H42617494   3.320   6.800   5.640  0.3077 -0.8755  1.2198
   35MOL   C42717495   3.893   6.891   6.047  0.1682 -0.0210 -0.3345
   35MOL   C42817496   3.881   6.789   5.932  0.5737 -0.0463  0.2780
   35MOL   O42917497   3.987   6.821   5.838 -0.3861  0.2910 -0.6661
   35MOL   C43017498   3.945   6.889   5.720  0.4699  0.1086  0.0086
   35MOL   C43117499   4.065   6.927   5.641 -0.2340 -0.2848 -0.2821
   35MOL   C43217500   4.145   7.044   5.699 -0.1640  0.4808 -0.1231
   35MOL   C43317501   4.251   7.115   5.602  0.3039 -0.3591  0.0215
   35MOL   C43417502   4.380   7.042   5.603  0.2423  0.2670 -0.2612
   35MOL   C43517503   4.481   7.088   5.491  0.2209 -0.4898  0.1677
   35MOL   H43617504   3.994   6.871   6.085  0.1746 -0.8300 -0.7699
   35MOL   H43717505   3.825   6.868   6.129 -0.9423  0.3039 -1.1578
   35MOL   H43817506   3.782   6.806   5.888  0.8512 -0.6132 -0.5760
   35MOL   H43917507   3.871   6.965   5.746  0.0009  0.2079 -1.5296
   35MOL   H44017508   3.886   6.815   5.665  2.2479 -0.7004 -0.8535
   35MOL   H44117509   4.031   6.955   5.542  1.0805  2.0584 -0.1020
   35MOL   H44217510   4.122   6.834   5.631 -0.5402 -0.3229 -1.7001
   35MOL   H44317511   4.074   7.123   5.723 -0.5402  0.6020 -1.5366
   35MOL   H44417512   4.198   7.021   5.791  1.5146 -0.4862 -1.2892
   35MOL   H44517513   4.213   7.103   5.501  0.9932 -1.6178 -0.0984
   35MOL   H44617514   4.255   7.222   5.622 -0.2122 -0.3266 -0.0300
   35MOL   H44717515   4.432   7.033   5.699  0.5450 -1.7118 -0.5844
   35MOL   H44817516   4.357   6.940   5.572 -2.0285  1.2117 -1.7889
   35MOL   H44917517   4.447   7.071   5.389 -0.7349  1.1380  0.1947
   35MOL   H45017518   4.515   7.192   5.492  0.3149 -0.5290  1.3915
   35MOL   H45117519   4.575   7.033   5.499  1.3374  1.1221 -1.2217
   35MOL   C45217520   3.896   6.635   5.969 -0.7563  1.0742 -0.4747
   35MOL   C45317521   3.767   6.574   6.026  0.5347  0.2477 -1.3938
   35MOL   O45417522   3.812   6.468   6.104  0.0379 -0.4321  0.2330
   35MOL   C45517523   3.721   6.423   6.204 -0.2174  0.4884 -0.4352
   35MOL   C45617524   3.757   6.277   6.221  0.0806 -0.0697 -0.7250
   35MOL   C45717525   3.711   6.192   6.104 -0.2809  0.0731 -0.1494
   35MOL   C45817526   3.765   6.047   6.104  0.3476  0.0466 -0.0997
   35MOL   C45917527   3.723   5.969   5.975 -0.7757  0.2526 -0.0645
   35MOL   C46017528   3.775   5.823   5.963  0.3528  0.9546  0.1926
   35MOL   H46117529   3.931   6.574   5.887 -2.8791  0.4948 -0.9654
   35MOL   H46217530   3.980   6.623   6.039 -1.6189 -0.1065  0.3837
   35MOL   H46317531   3.727   6.648   6.096  0.0879 -0.2570 -1.1095
   35MOL   H46417532   3.615   6.430   6.179 -0.7029  3.8933  2.1123
   35MOL   H46517533   3.731   6.480   6.296  0.7826 -0.1054 -0.1702
   35MOL   H46617534   3.714   6.222   6.305  0.2699  2.5552  1.1319
   35MOL   H46717535   3.864   6.263   6.232  0.2135  0.1393 -1.7662
   35MOL   H46817536   3.602   6.189   6.097 -0.2595  1.1165 -1.0695
   35MOL   H46917537   3.736   6.248   6.013 -4.7594 -1.7274 -2.6818
   35MOL   H47017538   3.874   6.047   6.105  0.3449  0.6641  0.3999
   35MOL   H47117539   3.726   5.999   6.195 -0.5295  1.0418  0.0542
   35MOL   H47217540   3.617   5.977   5.949 -1.1718  0.8544  1.6765
   35MOL   H47317541   3.775   6.015   5.891  0.1161 -2.6201 -1.1763
   35MOL   H47417542   3.879   5.800   5.984  0.1408 -1.7146 -1.4569
   35MOL   H47517543   3.709   5.780   6.039 -2.7726  0.7403 -2.4970
   35MOL   H47617544   3.747   5.769   5.873  0.6460 -2.2613  1.9473
   35MOL   C47717545   3.670   6.539   5.919  0.1542  0.2904  0.0752
   35MOL   C47817546   3.526   6.516   5.953 -0.2500 -0.1002 -0.9830
   35MOL   O47917547   3.441   6.521   5.844  0.5061 -0.3673  0.2903
   35MOL   C48017548   3.303   6.482   5.865 -0.4393 -0.5763 -0.5317
   35MOL   C48117549   3.232   6.503   5.732 -0.3304 -0.2206  0.8562
   35MOL   C48217550   3.283   6.401   5.632  0.1421 -0.1956  0.5637
   35MOL   C48317551   3.189   6.410   5.507 -0.2746 -0.0182 -0.2270
   35MOL   C48417552   3.081   6.301   5.510  0.3499 -0.1393  0.2464
   35MOL   C48517553   2.986   6.319   5.395 -0.3558  0.2135 -0.2731
   35MOL   H48617554   3.666   6.622   5.849  0.4983 -0.3289 -0.6819
   35MOL   H48717555   3.713   6.454   5.867 -2.3659 -0.5803 -0.6616
   35MOL   H48817556   3.520   6.425   6.013  0.0454  0.1174 -0.6205
   35MOL   H48917557   3.259   6.540   5.946  3.6320  0.4617  1.0933
   35MOL   H49017558   3.303   6.375   5.885 -0.6642 -1.1580 -3.4799
   35MOL   H49117559   3.249   6.607   5.705  0.9873 -0.6602 -0.0479
   35MOL   H49217560   3.125   6.488   5.749 -0.1220 -4.1157 -0.7708
   35MOL   H49317561   3.382   6.426   5.593 -0.3033  2.2718  0.9221
   35MOL   H49417562   3.285   6.296   5.663  0.7397 -0.2889  0.2141
   35MOL   H49517563   3.147   6.510   5.509  1.1107  0.5461  1.7133
   35MOL   H49617564   3.242   6.390   5.414 -0.5797 -1.2600 -0.1423
   35MOL   H49717565   3.123   6.201   5.501 -0.1710 -0.4648  1.3826
   35MOL   H49817566   3.028   6.295   5.605  0.6232 -1.5838  0.3209
   35MOL   H49917567   2.950   6.422   5.401  0.8537  0.5673  1.3575
   35MOL   H50017568   3.032   6.309   5.297 -1.0890 -2.2523 -0.3952
   35MOL   H50117569   2.891   6.267   5.410 -1.9225  2.2095 -2.8460
   35MOL   H50217570   3.501   6.599   6.020 -1.2477 -0.5160 -0.8195
   36MOL     C117571   4.772   2.848   0.386 -0.0198 -0.1086  0.0563
   36MOL     C217572   4.739   2.981   0.313  0.5520 -0.0732 -0.0742
   36MOL     O317573   4.870   3.033   0.279  0.1832  0.1753  0.1583
   36MOL     C417574   4.947   2.958   0.177 -0.2604  0.1684 -0.1775
   36MOL     C517575   5.033   3.044   0.092 -0.5366  0.1967 -0.0831
   36MOL     C617576   5.140   2.956   0.017  0.1456 -0.0227 -0.2766
   36MOL     C717577   5.215   3.053   7.694  0.4598  0.3895 -0.2361
   36MOL     C817578   5.360   3.017   7.660 -0.6083  0.6285  0.5946
   36MOL     C917579   5.439   3.139   7.602  0.0635  0.5898  0.4861
   36MOL    H1017580   4.833   2.782   0.325 -1.3497 -1.3011 -0.0134
   36MOL    H1117581   4.827   2.862   0.479 -0.0231  2.3046 -0.2728
   36MOL    H1217582   4.675   2.964   0.227 -1.8765  0.8310  1.5209
   36MOL    H1317583   4.882   2.912   0.103  1.5204 -1.8494 -0.5502
   36MOL    H1417584   5.008   2.876   0.217 -0.9355 -0.2077  0.0937
   36MOL    H1517585   5.089   3.113   0.156  0.6400 -1.7147  0.9859
   36MOL    H1617586   4.978   3.109   0.024  0.3062 -0.3249 -1.2814
   36MOL    H1717587   5.204   2.912   0.093 -0.2171 -0.1860 -0.0621
   36MOL    H1817588   5.101   2.867   7.745  0.6118 -0.9183  0.9462
   36MOL    H1917589   5.163   3.077   7.601  0.5996 -0.7418 -0.6237
   36MOL    H2017590   5.226   3.148   7.745 -0.4058  1.2884 -1.7030
   36MOL    H2117591   5.362   2.935   7.588 -0.4850  1.9649 -0.9622
   36MOL    H2217592   5.413   2.965   7.739 -2.3438 -0.3447  1.1354
   36MOL    H2317593   5.447   3.213   7.682  1.1694 -1.1801  2.0651
   36MOL    H2417594   5.537   3.104   7.569 -0.6380  0.5662 -1.6714
   36MOL    H2517595   5.381   3.180   7.519  1.4444  1.2064 -0.1834
   36MOL    H2617596   4.692   2.777   0.406  1.6877 -0.9157  4.3954
   36MOL    C2717597   4.665   3.085   0.407  0.3283  0.2704  0.5766
   36MOL    C2817598   4.550   3.024   0.493  0.1702  0.8598  0.1531
   36MOL    O2917599   4.508   3.114   0.590  0.0966 -0.0454  0.2179
   36MOL    C3017600   4.572   3.087   0.717  0.4204  0.0210 -0.0712
   36MOL    C3117601   4.548   3.212   0.807  0.6817 -0.4831  0.3698
   36MOL    C3217602   4.614   3.210   0.945  0.2716 -0.3176 -0.2993
   36MOL    C3317603   4.627   3.338   1.027 -0.1954 -0.3267 -0.2554
   36MOL    C3417604   4.674   3.319   1.172  0.5396  0.3716  0.6703
   36MOL    C3517605   4.645   3.442   1.271 -0.3353  0.6306 -0.0384
   36MOL    H3617606   4.742   3.132   0.468  0.2175  1.8711 -0.5068
   36MOL    H3717607   4.626   3.174   0.358 -1.5313 -0.9310 -0.2203
   36MOL    H3817608   4.590   2.936   0.545 -0.5901  0.7890  0.6263
   36MOL    H3917609   4.681   3.081   0.708  0.3328 -0.8294 -0.5934
   36MOL    H4017610   4.525   2.999   0.761  1.5109 -0.5516 -0.0155
   36MOL    H4117611   4.440   3.225   0.817  0.7522  0.5623 -0.0930
   36MOL    H4217612   4.587   3.300   0.754 -3.1048  0.6020 -0.7817
   36MOL    H4317613   4.554   3.142   1.006 -1.1282  1.1458 -0.0223
   36MOL    H4417614   4.709   3.158   0.933 -0.6218 -1.9337 -0.6102
   36MOL    H4517615   4.698   3.392   0.965  1.4706 -0.2523  1.6743
   36MOL    H4617616   4.531   3.390   1.017 -0.7206 -0.7778  2.2483
   36MOL    H4717617   4.622   3.232   1.212 -1.4683  0.7980 -0.9564
   36MOL    H4817618   4.778   3.287   1.182  0.1286 -0.8369  1.2859
   36MOL    H4917619   4.536   3.456   1.273 -0.4510 -0.3825  1.2131
   36MOL    H5017620   4.683   3.409   1.367 -2.1368 -0.0926  0.4607
   36MOL    H5117621   4.682   3.537   1.234  2.1558  0.3422  1.6620
   36MOL    C5217622   4.426   2.979   0.410 -0.0192  0.6961  0.4295
   36MOL    C5317623   4.300   2.916   0.489  0.4423  0.2464 -0.5577
   36MOL    O5417624   4.201   2.893   0.395 -0.3522 -0.2277  0.0747
   36MOL    C5517625   4.115   2.993   0.337  0.1481 -0.1843 -0.4301
   36MOL    C5617626   4.011   2.914   0.269  1.2910 -0.2397 -0.1783
   36MOL    C5717627   3.914   3.005   0.197  0.2581 -0.3643 -0.5547
   36MOL    C5817628   3.799   2.924   0.156 -0.2399  0.4776 -0.4968
   36MOL    C5917629   3.682   2.997   0.091  0.4493 -0.6160 -0.1643
   36MOL    C6017630   3.572   3.047   0.187  0.7976  0.2120 -0.4134
   36MOL    H6117631   4.454   2.892   0.351 -0.6144 -0.2467  1.5165
   36MOL    H6217632   4.397   3.060   0.342 -0.4707  0.6915  0.6119
   36MOL    H6317633   4.269   2.994   0.558 -2.1261 -0.4996 -0.8163
   36MOL    H6417634   4.173   3.055   0.269  0.3167 -1.2110 -1.2347
   36MOL    H6517635   4.062   3.049   0.414 -3.0895 -0.9456 -2.0462
   36MOL    H6617636   3.953   2.852   0.337 -0.9211  1.3502 -0.5681
   36MOL    H6717637   4.059   2.842   0.203  1.4645 -0.4155  0.1359
   36MOL    H6817638   3.899   3.097   0.254  2.1042  0.0307 -0.6762
   36MOL    H6917639   3.962   3.039   0.105 -1.9482  2.1681 -0.8348
   36MOL    H7017640   3.828   2.840   0.093  2.7671  0.0851  1.2938
   36MOL    H7117641   3.765   2.873   0.247 -2.2993  0.2832 -1.3363
   36MOL    H7217642   3.705   3.081   0.026  0.5803 -0.6084 -0.1075
   36MOL    H7317643   3.642   2.927   0.018 -0.3043 -0.5757  0.2011
   36MOL    H7417644   3.485   3.076   0.128  0.9857 -3.7738 -2.8182
   36MOL    H7517645   3.537   2.971   0.256 -1.3844  0.8238 -0.8106
   36MOL    H7617646   3.596   3.130   0.254  2.2381 -1.2598  0.9145
   36MOL    C7717647   4.343   2.785   0.572 -0.0754  0.0951 -0.0751
   36MOL    C7817648   4.228   2.725   0.656  0.3514 -1.0236  0.1554
   36MOL    O7917649   4.213   2.814   0.769  0.3719  0.4982  0.7017
   36MOL    C8017650   4.081   2.878   0.778 -0.3851  0.0305 -0.2684
   36MOL    C8117651   4.061   2.956   0.904 -0.9229 -1.1110 -0.1673
   36MOL    C8217652   4.170   3.067   0.941 -0.0752  0.4581  0.7268
   36MOL    C8317653   4.130   3.140   1.066  0.0517  0.2049  0.0427
   36MOL    C8417654   4.246   3.216   1.130  0.4224  0.5601  0.5562
   36MOL    C8517655   4.206   3.289   1.258  0.4694  0.1920  0.0846
   36MOL    H8617656   4.421   2.809   0.644  1.5794 -3.8112 -0.4169
   36MOL    H8717657   4.381   2.708   0.505  0.9502 -0.3606  1.0130
   36MOL    H8817658   4.132   2.716   0.605  0.7477 -2.0537 -0.4053
   36MOL    H8917659   3.994   2.814   0.765  0.7818 -1.5291 -0.4620
   36MOL    H9017660   4.078   2.951   0.696  2.0270 -0.9479 -1.2615
   36MOL    H9117661   4.048   2.883   0.984 -2.1862  1.5918  2.2057
   36MOL    H9217662   3.962   3.000   0.893 -0.5675 -0.3089 -0.1458
   36MOL    H9317663   4.264   3.023   0.976  1.7101  4.6418  1.5509
   36MOL    H9417664   4.193   3.130   0.855 -0.8495  0.7507  0.7309
   36MOL    H9517665   4.057   3.215   1.035  2.4867  2.1554 -1.1477
   36MOL    H9617666   4.085   3.073   1.139  0.8508 -0.9695 -0.5379
   36MOL    H9717667   4.330   3.152   1.156 -0.2287 -0.2675  0.6600
   36MOL    H9817668   4.283   3.290   1.059 -0.7233  0.6206  0.0042
   36MOL    H9917669   4.300   3.333   1.294  0.9593 -0.3484 -0.5270
   36MOL   H10017670   4.119   3.350   1.237 -0.5440 -1.6224 -1.1401
   36MOL   H10117671   4.173   3.217   1.334 -2.4566  1.4331  0.0502
   36MOL   C10217672   4.250   2.584   0.704  0.1006 -1.1768 -0.1913
   36MOL   C10317673   4.248   2.471   0.590 -0.5801  0.3965 -0.2799
   36MOL   O10417674   4.280   2.341   0.646  0.1815  0.0920 -0.2834
   36MOL   C10517675   4.415   2.332   0.699  0.0476  0.5144 -0.2757
   36MOL   C10617676   4.465   2.187   0.726  0.3036 -0.3775 -0.4537
   36MOL   C10717677   4.608   2.175   0.785  0.2473 -0.0791  0.1285
   36MOL   C10817678   4.656   2.033   0.774  0.9915 -0.1689  0.2996
   36MOL   C10917679   4.805   2.023   0.820  0.6975  0.1961  1.1303
   36MOL   C11017680   4.872   1.881   0.840 -0.0173 -0.3872 -0.4449
   36MOL   H11117681   4.352   2.596   0.741  0.1272  2.9708 -1.3560
   36MOL   H11217682   4.185   2.566   0.790 -0.3936 -1.1951 -0.5677
   36MOL   H11317683   4.318   2.488   0.509 -1.3104  2.2695 -0.5377
   36MOL   H11417684   4.421   2.390   0.791 -0.5866  0.3313 -0.1123
   36MOL   H11517685   4.479   2.381   0.626  1.1774  0.6116  0.7674
   36MOL   H11617686   4.472   2.142   0.627 -1.1051  1.2182 -1.2934
   36MOL   H11717687   4.393   2.138   0.792  1.7526 -1.9011  0.0648
   36MOL   H11817688   4.672   2.238   0.724  0.5407 -0.3313  0.1772
   36MOL   H11917689   4.622   2.202   0.889 -0.2894  2.0764 -0.3431
   36MOL   H12017690   4.594   1.971   0.839  1.5953 -1.7021 -0.5645
   36MOL   H12117691   4.646   2.009   0.668 -0.0219  0.3354  0.2727
   36MOL   H12217692   4.864   2.079   0.749  1.0496 -1.6015 -0.0224
   36MOL   H12317693   4.813   2.065   0.921  0.0662 -0.4103  1.4377
   36MOL   H12417694   4.816   1.805   0.893 -0.1454  0.9108  1.3034
   36MOL   H12517695   4.902   1.843   0.742  0.5423  0.4097 -0.5972
   36MOL   H12617696   4.957   1.906   0.903 -1.1788  0.9101  0.6590
   36MOL   C12717697   4.118   2.449   0.512 -0.3333  0.1394  0.5185
   36MOL   C12817698   4.137   2.364   0.384  0.1836  0.6124 -0.2149
   36MOL   O12917699   4.222   2.433   0.299 -0.7307 -0.0424 -0.4000
   36MOL   C13017700   4.322   2.364   0.235  0.3126 -0.3388  1.0457
   36MOL   C13117701   4.425   2.457   0.170  0.6199 -0.9336  0.9178
   36MOL   C13217702   4.537   2.489   0.271  0.0964 -0.2329 -0.2712
   36MOL   C13317703   4.640   2.582   0.220  0.3841 -0.2914  0.5643
   36MOL   C13417704   4.720   2.529   0.099 -1.3273 -0.4536 -0.2920
   36MOL   C13517705   4.835   2.621   0.054  0.9681 -0.2458 -0.4758
   36MOL   H13617706   4.046   2.401   0.578 -1.2358  0.7323 -0.0217
   36MOL   H13717707   4.061   2.539   0.491  1.3927  1.8351  2.8101
   36MOL   H13817708   4.172   2.266   0.413  0.4543  0.6142 -0.5350
   36MOL   H13917709   4.263   2.309   0.162 -1.4240  0.1025  2.0915
   36MOL   H14017710   4.369   2.291   0.302  1.0485  0.8738  1.8680
   36MOL   H14117711   4.378   2.549   0.137  1.5791 -0.6479  0.3218
   36MOL   H14217712   4.463   2.415   0.077  1.1056  0.5551  0.4376
   36MOL   H14317713   4.485   2.522   0.362 -2.7259  1.0639 -2.2673
   36MOL   H14417714   4.586   2.398   0.304  0.4064  0.2646  0.6728
   36MOL   H14517715   4.606   2.685   0.212  0.3797 -0.3774 -0.5684
   36MOL   H14617716   4.717   2.590   0.296  1.0268 -2.7782  0.2245
   36MOL   H14717717   4.763   2.432   0.125  0.6109  1.1335  2.7674
   36MOL   H14817718   4.673   2.511   0.003 -0.9185 -0.0779 -0.5663
   36MOL   H14917719   4.889   2.675   0.131  2.6795 -0.5021 -1.4793
   36MOL   H15017720   4.905   2.562   7.771  2.0664 -1.0571  1.5531
   36MOL   H15117721   4.785   2.700   7.776 -0.4283 -0.7481  0.0329
   36MOL   C15217722   4.000   2.348   0.300 -0.2836 -0.3051 -0.7050
   36MOL   C15317723   3.898   2.248   0.360 -0.1845 -0.2783  0.2299
   36MOL   O15417724   3.814   2.332   0.442  0.7215 -0.6019 -0.6478
   36MOL   C15517725   3.793   2.287   0.576 -0.5343  0.4476  0.1322
   36MOL   C15617726   3.774   2.414   0.660  0.2151 -0.3211 -0.3632
   36MOL   C15717727   3.756   2.392   0.811 -0.7008  0.4503  0.1986
   36MOL   C15817728   3.734   2.516   0.890 -0.7090  0.4902 -0.3450
   36MOL   C15917729   3.595   2.582   0.883  0.2928  0.0717  0.0406
   36MOL   C16017730   3.572   2.709   0.969 -0.1295 -0.2404 -0.3656
   36MOL   H16117731   3.954   2.447   0.296  0.7592  0.1731 -1.1178
   36MOL   H16217732   4.025   2.319   0.198 -2.7558 -0.0167 -1.4210
   36MOL   H16317733   3.961   2.184   0.422  0.5843  0.2537  0.0093
   36MOL   H16417734   3.875   2.223   0.606 -0.9014 -0.1516 -0.1266
   36MOL   H16517735   3.712   2.214   0.578 -0.2166  0.1242  1.2907
   36MOL   H16617736   3.687   2.472   0.631  2.1483  3.5678  1.1551
   36MOL   H16717737   3.856   2.483   0.642 -1.2545  2.1787  2.0909
   36MOL   H16817738   3.663   2.335   0.818 -0.5653 -0.0846 -2.0817
   36MOL   H16917739   3.833   2.329   0.855 -1.2263 -2.6737 -3.2129
   36MOL   H17017740   3.762   2.490   0.992  0.1707  1.1849 -0.4079
   36MOL   H17117741   3.810   2.587   0.858 -0.1790 -0.3059 -0.8592
   36MOL   H17217742   3.577   2.596   0.777  0.4126 -0.9118 -0.1230
   36MOL   H17317743   3.521   2.506   0.910  2.3395 -2.0762 -0.1451
   36MOL   H17417744   3.476   2.758   0.952 -0.0563  0.8466  2.0894
   36MOL   H17517745   3.595   2.675   1.070  0.6052 -1.3675 -0.9052
   36MOL   H17617746   3.650   2.780   0.942  0.1659 -0.2784  0.3856
   36MOL   C17717747   3.836   2.159   0.259 -0.4290  0.0969  0.4335
   36MOL   C17817748   3.753   2.039   0.320 -0.5290  0.5360 -0.2351
   36MOL   O17917749   3.676   1.993   0.209  0.1456  0.6647  0.2547
   36MOL   C18017750   3.742   1.960   0.087 -0.0782  0.0037  0.1786
   36MOL   C18117751   3.652   1.897   7.765  0.2421  0.4260  0.2245
   36MOL   C18217752   3.597   1.763   0.039 -0.5800 -0.2052  0.0844
   36MOL   C18317753   3.485   1.713   7.726 -1.3186 -0.0229  0.1458
   36MOL   C18417754   3.430   1.575   7.770  0.1422 -0.1906  0.4849
   36MOL   C18517755   3.332   1.510   7.671 -0.2442  0.8807  0.5355
   36MOL   H18617756   3.781   2.213   0.182 -0.1467 -0.5530 -0.2340
   36MOL   H18717757   3.921   2.106   0.215  0.0439  2.0165 -1.0376
   36MOL   H18817758   3.692   2.078   0.401  0.9223 -1.0444  1.6449
   36MOL   H18917759   3.830   1.896   0.090  0.1918  0.3247 -0.6724
   36MOL   H19017760   3.783   2.052   0.045  0.6767 -0.1804  0.5106
   36MOL   H19117761   3.717   1.866   7.684  0.9034 -0.1972  0.9743
   36MOL   H19217762   3.585   1.969   7.720  0.6010  0.8760  0.4112
   36MOL   H19317763   3.683   1.697   0.048  0.0908  0.6575  0.0897
   36MOL   H19417764   3.558   1.781   0.139 -1.5388  2.4680 -0.7026
   36MOL   H19517765   3.406   1.787   7.711  1.5018  2.8832 -1.1083
   36MOL   H19617766   3.516   1.704   7.622  0.8180  0.2494  0.7279
   36MOL   H19717767   3.511   1.506   0.015  2.3556  2.7337  1.7979
   36MOL   H19817768   3.377   1.600   0.085  0.8829 -0.8491  1.0846
   36MOL   H19917769   3.274   1.424   7.705 -2.9158  1.4917 -2.2771
   36MOL   H20017770   3.262   1.580   7.624  0.9103 -0.0242 -2.7118
   36MOL   H20117771   3.390   1.474   7.586 -0.6173  2.2583 -0.3220
   36MOL   C20217772   3.843   1.928   0.391 -0.2598 -0.1460  0.2581
   36MOL   C20317773   3.785   1.793   0.435  0.3958  0.0073 -0.3616
   36MOL   O20417774   3.675   1.822   0.523 -0.1525 -0.1772 -0.1731
   36MOL   C20517775   3.537   1.820   0.469 -0.2691 -0.0626  0.7579
   36MOL   C20617776   3.442   1.799   0.583  0.3229  0.0308 -1.0419
   36MOL   C20717777   3.294   1.795   0.540  0.2896  0.4763  0.4412
   36MOL   C20817778   3.197   1.732   0.650 -0.2037  0.1207  0.2181
   36MOL   C20917779   3.054   1.718   0.613  0.2522 -0.1342  0.5275
   36MOL   C21017780   2.975   1.834   0.640  0.3954 -0.1729  0.4234
   36MOL   H21117781   3.929   1.910   0.327  0.1177 -1.1991  1.0351
   36MOL   H21217782   3.888   1.971   0.480  0.7714 -1.2917  0.3055
   36MOL   H21317783   3.746   1.736   0.350  0.5616 -0.2159 -0.2857
   36MOL   H21417784   3.514   1.735   0.405 -2.1977  0.7901  0.2963
   36MOL   H21517785   3.507   1.914   0.422 -1.6749  0.9143  3.4895
   36MOL   H21617786   3.459   1.876   0.658 -2.8792  0.2968 -0.5002
   36MOL   H21717787   3.476   1.704   0.622 -1.4783 -0.1279  0.2284
   36MOL   H21817788   3.269   1.898   0.517  1.3992  0.0984 -2.7705
   36MOL   H21917789   3.274   1.734   0.452 -1.6064 -1.5543  2.2149
   36MOL   H22017790   3.218   1.626   0.669 -0.7892 -0.0849 -0.2664
   36MOL   H22117791   3.209   1.786   0.744  0.9031  1.1843 -0.5100
   36MOL   H22217792   3.052   1.670   0.515  0.0319 -0.7421  0.8223
   36MOL   H22317793   3.012   1.642   0.679 -1.3385 -0.3690 -0.7180
   36MOL   H22417794   2.876   1.813   0.600 -0.5323  3.1137  0.8363
   36MOL   H22517795   2.979   1.860   0.746 -3.0132  1.4444  0.2144
   36MOL   H22617796   3.013   1.928   0.600  0.9005 -1.2959 -1.8222
   36MOL   C22717797   3.887   1.713   0.521 -0.2187 -0.1303  1.4278
   36MOL   C22817798   3.842   1.568   0.547 -0.3801 -0.2020 -1.4566
   36MOL   O22917799   3.834   1.490   0.424  0.4120  0.4895 -0.1004
   36MOL   C23017800   3.703   1.453   0.381 -0.3491  0.0635 -0.4434
   36MOL   C23117801   3.694   1.392   0.241  0.0347  0.4011  0.9027
   36MOL   C23217802   3.750   1.242   0.257 -0.0435 -0.2543 -0.4932
   36MOL   C23317803   3.761   1.187   0.112 -0.3280  0.1206  0.0857
   36MOL   C23417804   3.800   1.035   0.111 -0.2288 -0.2907  0.8907
   36MOL   C23517805   3.852   0.972   7.764  0.0953 -0.3394  0.1413
   36MOL   H23617806   3.977   1.703   0.461 -0.6234 -3.1231  1.2320
   36MOL   H23717807   3.911   1.767   0.612 -1.5700  1.6371  0.7774
   36MOL   H23817808   3.746   1.561   0.597  0.5031 -0.0080  0.3017
   36MOL   H23917809   3.639   1.541   0.388  0.6658  0.7472  0.4769
   36MOL   H24017810   3.669   1.380   0.454  2.7207 -0.2573  0.7553
   36MOL   H24117811   3.750   1.446   0.164 -1.4530  0.9788  0.1944
   36MOL   H24217812   3.588   1.396   0.214  0.8993  0.9765 -2.6311
   36MOL   H24317813   3.849   1.235   0.304 -0.0089  2.2553 -0.1410
   36MOL   H24417814   3.678   1.187   0.317  1.2691 -1.8246 -0.3121
   36MOL   H24517815   3.671   1.195   0.051 -0.5180  0.9536  0.4852
   36MOL   H24617816   3.843   1.246   0.071  0.0641 -1.6642 -1.8344
   36MOL   H24717817   3.877   1.038   0.189  1.0052 -0.2620 -0.3133
   36MOL   H24817818   3.729   0.973   0.165  1.2940 -2.1953  0.7822
   36MOL   H24917819   3.910   1.039   7.701  0.8697 -2.2870 -1.2678
   36MOL   H25017820   3.918   0.887   0.009 -2.1826 -1.8588  1.2509
   36MOL   H25117821   3.771   0.935   7.702 -1.0099 -1.5691  2.2526
   36MOL   C25217822   3.945   1.503   0.634  0.1814 -0.1021  0.6308
   36MOL   C25317823   3.919   1.513   0.787  0.0301  0.4885  0.0100
   36MOL   O25417824   3.912   1.649   0.829 -0.1787  0.4809 -0.2912
   36MOL   C25517825   3.787   1.710   0.842  0.1739 -0.3409 -0.8172
   36MOL   C25617826   3.783   1.863   0.847  0.3806 -0.2345 -0.0260
   36MOL   C25717827   3.823   1.932   0.979  0.2947 -0.0158  0.0083
   36MOL   C25817828   3.768   2.075   0.989 -0.0873 -0.6477  0.2885
   36MOL   C25917829   3.755   2.114   1.136  0.2934  0.0301  0.0697
   36MOL   C26017830   3.710   2.255   1.174  0.6925  0.3806 -0.5118
   36MOL   H26117831   3.950   1.399   0.602 -3.2461 -1.4686  4.1973
   36MOL   H26217832   4.044   1.543   0.611 -0.7237  0.6390 -2.2683
   36MOL   H26317833   3.829   1.453   0.799  1.2152 -1.1571  0.8951
   36MOL   H26417834   3.748   1.675   0.938  1.2546 -3.5411 -1.4950
   36MOL   H26517835   3.718   1.682   0.763 -0.2424  1.7298 -1.2120
   36MOL   H26617836   3.680   1.888   0.820  0.8695  0.9320 -0.8266
   36MOL   H26717837   3.830   1.907   0.760  0.3562  0.4536  0.3084
   36MOL   H26817838   3.785   1.879   1.066  0.8521  0.8295  0.7621
   36MOL   H26917839   3.931   1.943   0.981  0.2133  1.3109 -1.2331
   36MOL   H27017840   3.845   2.148   0.965 -0.5947  0.8478  2.9763
   36MOL   H27117841   3.687   2.092   0.919  0.5613  0.5679 -0.1903
   36MOL   H27217842   3.670   2.062   1.179  0.4850 -0.0013  0.4065
   36MOL   H27317843   3.851   2.093   1.184  0.2479 -2.5110 -0.8325
   36MOL   H27417844   3.679   2.268   1.278 -2.5853 -0.7055 -1.2835
   36MOL   H27517845   3.786   2.330   1.154 -0.9891  2.3154  0.1106
   36MOL   H27617846   3.624   2.290   1.115  1.8915  1.4717 -1.6496
   36MOL   C27717847   4.025   1.433   0.859  0.1237  0.0452  0.4149
   36MOL   C27817848   3.974   1.411   1.006 -0.5896 -0.5869 -0.0501
   36MOL   O27917849   4.053   1.315   1.066 -0.1363  0.6683 -0.4574
   36MOL   C28017850   4.036   1.183   1.027  0.1524 -0.2715  0.4733
   36MOL   C28117851   4.105   1.080   1.117  1.1121  1.0209  0.0277
   36MOL   C28217852   4.042   1.072   1.258  0.0322  0.6065  0.3063
   36MOL   C28317853   4.115   0.978   1.354 -0.1458  0.3372  0.2136
   36MOL   C28417854   4.052   0.992   1.490  0.0552 -0.3238 -0.8633
   36MOL   C28517855   4.115   0.907   1.595 -0.5244  0.1106  0.4733
   36MOL   H28617856   4.049   1.343   0.802 -0.6546 -0.8224  1.4542
   36MOL   H28717857   4.123   1.481   0.858 -0.8347  2.1273  2.5695
   36MOL   H28817858   3.876   1.364   0.997 -0.4494 -0.8267 -0.3513
   36MOL   H28917859   4.067   1.162   0.925 -1.0644 -1.3349  0.3005
   36MOL   H29017860   3.931   1.153   1.023  0.0047  0.3210 -0.0949
   36MOL   H29117861   4.207   1.116   1.126  2.0172 -1.3430 -0.5646
   36MOL   H29217862   4.110   0.978   1.079  1.0089  0.7505  0.7351
   36MOL   H29317863   4.058   1.167   1.309 -1.4546  0.1428  1.6647
   36MOL   H29417864   3.936   1.050   1.263  0.5331 -1.6884  1.2850
   36MOL   H29517865   4.095   0.884   1.303  0.0672  0.8592 -0.8383
   36MOL   H29617866   4.218   1.012   1.359  0.5641 -1.8098  0.7321
   36MOL   H29717867   4.037   1.092   1.531  0.9124 -0.6946  0.3914
   36MOL   H29817868   3.954   0.946   1.476 -0.5404  0.8966 -0.7586
   36MOL   H29917869   4.223   0.916   1.610 -0.2415  0.2056 -1.5640
   36MOL   H30017870   4.065   0.925   1.690  0.5444 -2.9029  1.6603
   36MOL   H30117871   4.114   0.799   1.586 -1.5468  0.2197 -0.9169
   36MOL   C30217872   3.962   1.534   1.098 -0.5950 -0.5845 -0.5073
   36MOL   C30317873   3.916   1.503   1.239 -0.5646 -0.1174 -0.1050
   36MOL   O30417874   3.793   1.438   1.247  0.5891 -0.1890 -0.8772
   36MOL   C30517875   3.810   1.313   1.313 -0.0246  0.2170 -0.0047
   36MOL   C30617876   3.671   1.251   1.333 -0.5322  0.6342 -0.5778
   36MOL   C30717877   3.673   1.116   1.400  0.1263  0.0885  0.3756
   36MOL   C30817878   3.707   1.110   1.550  0.3872 -0.0658 -0.2911
   36MOL   C30917879   3.621   0.999   1.607  0.7380  0.4981  0.1297
   36MOL   C31017880   3.496   1.043   1.694  0.1001  0.2709 -0.0314
   36MOL   H31117881   4.061   1.578   1.109  0.0162 -1.8138 -0.9603
   36MOL   H31217882   3.903   1.614   1.054  0.0324  0.2626  0.1707
   36MOL   H31317883   3.991   1.438   1.284 -1.0081 -0.5164  0.0726
   36MOL   H31417884   3.867   1.316   1.406  1.4523 -1.3320 -0.8318
   36MOL   H31517885   3.866   1.249   1.245 -0.0606  0.4854 -0.2856
   36MOL   H31617886   3.643   1.240   1.228 -0.7304 -0.8294 -0.3833
   36MOL   H31717887   3.604   1.320   1.383 -1.3713 -1.1612  0.8354
   36MOL   H31817888   3.569   1.085   1.390  0.0407  0.9641 -1.5623
   36MOL   H31917889   3.734   1.041   1.348  0.3042 -0.4598  1.3506
   36MOL   H32017890   3.813   1.091   1.565 -0.3436 -1.8435  3.1954
   36MOL   H32117891   3.682   1.205   1.598  1.7570  0.4299 -0.5474
   36MOL   H32217892   3.592   0.918   1.539 -2.0802  1.7487 -0.2420
   36MOL   H32317893   3.684   0.942   1.676  0.4817 -1.5513 -1.2584
   36MOL   H32417894   3.524   1.126   1.758  1.2034 -0.8554  1.0051
   36MOL   H32517895   3.408   1.076   1.640 -0.8744  0.0827  1.4147
   36MOL   H32617896   3.465   0.953   1.748 -1.1956  1.0856  0.5985
   36MOL   C32717897   3.897   1.627   1.333 -0.7212 -0.0542 -0.5636
   36MOL   C32817898   4.027   1.697   1.387 -0.1691  0.3834 -0.0185
   36MOL   O32917899   3.999   1.814   1.469 -0.3711  0.2306 -0.5818
   36MOL   C33017900   3.961   1.931   1.402 -0.3509 -0.0592 -0.4756
   36MOL   C33117901   3.977   2.052   1.490 -0.1864 -0.6014 -0.3740
   36MOL   C33217902   4.122   2.062   1.543  0.0755  0.2788  0.1557
   36MOL   C33317903   4.152   2.192   1.616 -0.2604  0.3823  0.7640
   36MOL   C33417904   4.166   2.318   1.525  0.4679  0.9589 -0.5931
   36MOL   C33517905   4.180   2.439   1.619  0.1491 -0.1110 -0.1686
   36MOL   H33617906   3.836   1.589   1.415  1.2889  1.0843  1.5270
   36MOL   H33717907   3.837   1.700   1.279  0.7030  0.1739 -1.8640
   36MOL   H33817908   4.078   1.725   1.295  0.4625  2.1599  0.8431
   36MOL   H33917909   3.861   1.914   1.360 -0.4564 -1.3102  0.2678
   36MOL   H34017910   4.027   1.950   1.318 -1.1700 -0.3961 -1.2026
   36MOL   H34117911   3.900   2.062   1.566  1.2667  3.1434  0.7260
   36MOL   H34217912   3.958   2.139   1.427  1.5429  2.1004  2.6345
   36MOL   H34317913   4.128   1.985   1.620 -0.5011  1.7537  1.7291
   36MOL   H34417914   4.196   2.043   1.465 -1.9763  0.7078 -1.9303
   36MOL   H34517915   4.068   2.198   1.685  0.2434 -2.1096  1.6424
   36MOL   H34617916   4.245   2.183   1.673  1.1569  0.3831 -1.4731
   36MOL   H34717917   4.258   2.301   1.469  0.8545  0.3194  0.2195
   36MOL   H34817918   4.077   2.321   1.462  0.2326  1.0170 -0.2593
   36MOL   H34917919   4.104   2.437   1.697  1.3063 -1.9300  0.9783
   36MOL   H35017920   4.274   2.441   1.676 -0.1562 -0.3939  0.3537
   36MOL   H35117921   4.176   2.531   1.562 -0.7588 -1.0989 -1.7236
   36MOL   C35217922   4.110   1.598   1.482  0.2772  0.2999 -0.1523
   36MOL   C35317923   4.259   1.629   1.464  0.0834 -0.5200  0.0219
   36MOL   O35417924   4.304   1.596   1.334 -0.1673 -0.2701 -0.3686
   36MOL   C35517925   4.321   1.462   1.308  0.4443  0.4507  0.2254
   36MOL   C35617926   4.343   1.448   1.156  0.4971 -0.7095  0.0826
   36MOL   C35717927   4.470   1.515   1.107 -0.0140 -0.3124  0.9265
   36MOL   C35817928   4.481   1.491   0.956  0.3340  0.1394 -0.4487
   36MOL   C35917929   4.597   1.569   0.885 -0.3468  0.1199 -0.1061
   36MOL   C36017930   4.583   1.568   0.738 -0.2739  0.3646  0.4856
   36MOL   H36117931   4.075   1.620   1.583  0.4598  1.7245 -0.3873
   36MOL   H36217932   4.083   1.495   1.460  1.2834  0.1797 -0.8666
   36MOL   H36317933   4.257   1.737   1.475 -0.2927 -0.4167 -1.0083
   36MOL   H36417934   4.228   1.416   1.341  0.9653 -0.1100  0.9114
   36MOL   H36517935   4.410   1.419   1.354  1.0506  0.2632 -1.0915
   36MOL   H36617936   4.261   1.498   1.104 -0.0797 -1.5619  0.1558
   36MOL   H36717937   4.350   1.345   1.120  3.0045 -1.2396  1.9804
   36MOL   H36817938   4.464   1.623   1.116 -0.6436 -0.3878  1.3925
   36MOL   H36917939   4.558   1.486   1.164  0.1188 -2.0264 -0.0977
   36MOL   H37017940   4.502   1.385   0.938 -2.0110 -0.5626  0.6893
   36MOL   H37117941   4.391   1.526   0.907  1.4788  2.4775 -0.9547
   36MOL   H37217942   4.596   1.669   0.929  1.3342  0.5127 -0.8933
   36MOL   H37317943   4.690   1.516   0.906 -0.6890 -1.1997 -1.7990
   36MOL   H37417944   4.504   1.633   0.700  0.7825  1.0953 -0.5077
   36MOL   H37517945   4.684   1.601   0.712  0.0253 -0.1362  1.0100
   36MOL   H37617946   4.578   1.469   0.692  1.4870  0.5797 -0.2213
   36MOL   C37717947   4.358   1.584   1.580 -0.2338  0.2139  0.4125
   36MOL   C37817948   4.509   1.635   1.572  0.3894 -0.0202 -1.3950
   36MOL   O37917949   4.599   1.560   1.665 -0.7876  0.7952  0.2764
   36MOL   C38017950   4.639   1.430   1.626  0.2703 -0.8180  1.0102
   36MOL   C38117951   4.734   1.405   1.744  0.8750 -0.7756 -0.2110
   36MOL   C38217952   4.670   1.410   1.887 -0.0098 -0.0695  0.3510
   36MOL   C38317953   4.776   1.361   1.981 -0.2351 -0.1987 -0.5221
   36MOL   C38417954   4.741   1.385   2.128  0.5282  0.8102  0.9269
   36MOL   C38517955   4.769   1.529   2.172 -0.1973 -0.7028 -0.4877
   36MOL   H38617956   4.326   1.614   1.680  0.5260  2.5110  0.0109
   36MOL   H38717957   4.374   1.477   1.588  0.5476  0.0557 -2.7089
   36MOL   H38817958   4.540   1.609   1.471  1.5757  0.3579 -1.1371
   36MOL   H38917959   4.691   1.434   1.530 -1.3140 -1.5878  0.0991
   36MOL   H39017960   4.558   1.357   1.631 -1.5226  1.0544 -0.1593
   36MOL   H39117961   4.798   1.493   1.738 -1.1878  0.9925  2.5819
   36MOL   H39217962   4.789   1.312   1.729 -0.4908 -1.7405  0.6255
   36MOL   H39317963   4.628   1.509   1.909 -0.4534  0.6889 -3.5577
   36MOL   H39417964   4.591   1.339   1.911 -0.0068  0.3631  1.7449
   36MOL   H39517965   4.772   1.252   1.978  1.3738 -0.3322  1.0177
   36MOL   H39617966   4.873   1.404   1.956 -0.6005  1.5451  0.9332
   36MOL   H39717967   4.643   1.353   2.162  0.4508  1.1049  0.9790
   36MOL   H39817968   4.808   1.317   2.182 -2.3021 -3.3430 -0.5155
   36MOL   H39917969   4.873   1.540   2.204 -0.8693  2.0040  0.8803
   36MOL   H40017970   4.724   1.591   2.095 -3.0248 -1.4054  0.5177
   36MOL   H40117971   4.709   1.544   2.262 -0.0749 -1.8359 -0.2054
   36MOL   C40217972   4.529   1.781   1.604  0.2989 -0.8609  0.5876
   36MOL   C40317973   4.596   1.872   1.496  0.0902  0.5078 -0.3816
   36MOL   O40417974   4.608   2.004   1.546 -0.3253  0.5428  0.1020
   36MOL   C40517975   4.706   2.029   1.645  0.4433 -0.1386 -0.2086
   36MOL   C40617976   4.697   2.176   1.685  0.8245 -0.1863 -0.1692
   36MOL   C40717977   4.572   2.209   1.771 -0.0053  0.4752  0.5212
   36MOL   C40817978   4.554   2.355   1.812 -0.3113 -0.2273 -0.3299
   36MOL   C40917979   4.427   2.385   1.901  1.0427 -0.2103 -0.2425
   36MOL   C41017980   4.396   2.535   1.907  0.1411 -0.0293 -0.0962
   36MOL   H41117981   4.595   1.790   1.690 -0.4299  0.8028  1.0011
   36MOL   H41217982   4.432   1.831   1.618  1.4418  2.4710 -2.6246
   36MOL   H41317983   4.694   1.835   1.468  0.3523  1.2827 -0.5157
   36MOL   H41417984   4.800   2.011   1.591  0.9287  0.2632  0.4970
   36MOL   H41517985   4.707   1.963   1.731 -2.8884 -0.6872 -0.5465
   36MOL   H41617986   4.706   2.236   1.594  1.3440 -0.6330 -0.4195
   36MOL   H41717987   4.783   2.200   1.747  1.5235  1.0074 -1.5723
   36MOL   H41817988   4.486   2.170   1.717  0.8740 -2.8015  1.4065
   36MOL   H41917989   4.565   2.144   1.857 -0.9092  1.7192  1.4149
   36MOL   H42017990   4.637   2.390   1.873 -0.4708 -0.8369  0.2478
   36MOL   H42117991   4.556   2.428   1.732  1.1103 -1.4339 -1.4154
   36MOL   H42217992   4.338   2.339   1.860 -0.3057  0.6147  1.7053
   36MOL   H42317993   4.438   2.353   2.005 -1.3909  1.1148  0.4603
   36MOL   H42417994   4.387   2.575   1.806 -0.9459  0.8564  0.3379
   36MOL   H42517995   4.297   2.553   1.949  0.8309 -0.6780  1.8717
   36MOL   H42617996   4.470   2.604   1.949 -0.9811  0.4246  1.2079
   36MOL   C42717997   4.501   1.873   1.374 -0.4444 -0.1412 -0.2829
   36MOL   C42817998   4.552   1.969   1.265 -0.7221  0.0998 -0.1860
   36MOL   O42917999   4.679   1.917   1.222  0.1016  0.1521 -0.2864
   36MOL   C43018000   4.790   1.995   1.247  0.1079 -0.1838 -0.0269
   36MOL   C43118001   4.908   1.900   1.217 -0.1382 -0.0575 -0.5656
   36MOL   C43218002   4.921   1.782   1.319 -0.1222 -1.2030  0.1746
   36MOL   C43318003   5.060   1.710   1.293  0.0414 -0.8531 -0.1763
   36MOL   C43418004   5.049   1.562   1.271 -0.2746  0.0844 -0.1767
   36MOL   C43518005   5.010   1.542   1.126  0.0065  0.6354  0.1580
   36MOL   H43618006   4.493   1.777   1.322  0.1430 -0.1745 -0.3135
   36MOL   H43718007   4.400   1.905   1.401 -0.4589 -1.5137  1.4037
   36MOL   H43818008   4.547   2.072   1.299  0.0932  0.1071 -0.0707
   36MOL   H43918009   4.789   2.030   1.350 -0.8794  0.2369 -0.1806
   36MOL   H44018010   4.787   2.086   1.188  2.4446  0.1175  0.2621
   36MOL   H44118011   4.994   1.966   1.224  0.3327 -0.8205  0.8672
   36MOL   H44218012   4.892   1.860   1.117 -0.9746 -2.1226  0.3803
   36MOL   H44318013   4.899   1.816   1.421 -2.9945 -0.9630 -0.4659
   36MOL   H44418014   4.838   1.716   1.295 -1.8035  1.2222 -0.9270
   36MOL   H44518015   5.109   1.754   1.207  0.4540 -1.3467 -0.1953
   36MOL   H44618016   5.134   1.725   1.372  1.1778  1.0622 -1.5586
   36MOL   H44718017   5.146   1.518   1.289 -1.4124 -1.3637  2.6448
   36MOL   H44818018   4.985   1.505   1.338  2.0694 -4.4139 -1.5795
   36MOL   H44918019   4.902   1.544   1.116 -0.0333  0.8926  0.6400
   36MOL   H45018020   5.044   1.619   1.056 -2.4320  0.2890 -1.4781
   36MOL   H45118021   5.043   1.448   1.081 -0.6505  0.9558 -1.0236
   36MOL   C45218022   4.485   1.954   1.120 -0.0190 -0.0553  0.4483
   36MOL   C45318023   4.338   2.008   1.111 -0.2175 -0.3864 -0.5812
   36MOL   O45418024   4.276   1.976   0.984 -0.4671 -0.1290  0.6651
   36MOL   C45518025   4.227   1.839   0.957 -0.6058  0.2932  0.5796
   36MOL   C45618026   4.187   1.823   0.808 -0.0171 -0.0807 -0.7488
   36MOL   C45718027   4.283   1.866   0.697  0.3527  0.1654 -0.3074
   36MOL   C45818028   4.245   1.802   0.562 -0.1979 -0.6698 -1.2485
   36MOL   C45918029   4.307   1.853   0.431  0.6958 -0.3464 -0.0082
   36MOL   C46018030   4.267   2.003   0.395 -0.3067  0.2143 -0.7552
   36MOL   H46118031   4.548   2.016   1.056 -0.4685  2.9307  2.7487
   36MOL   H46218032   4.495   1.853   1.081 -1.0260 -0.7555  1.9231
   36MOL   H46318033   4.285   1.956   1.191 -0.3912 -0.0854 -0.5028
   36MOL   H46418034   4.159   1.821   1.040 -0.7515  0.7169  0.5542
   36MOL   H46518035   4.304   1.771   0.992  0.2891  0.6237 -0.7255
   36MOL   H46618036   4.097   1.883   0.799 -1.4974 -2.1757 -0.2417
   36MOL   H46718037   4.149   1.723   0.789  1.6645 -0.3744 -2.7674
   36MOL   H46818038   4.265   1.973   0.694 -3.3859 -0.4189 -3.8328
   36MOL   H46918039   4.387   1.845   0.722  0.4918  0.5395 -0.5766
   36MOL   H47018040   4.264   1.695   0.573  0.8812 -0.6395 -2.6458
   36MOL   H47118041   4.136   1.804   0.556 -0.1630 -1.2322 -2.1999
   36MOL   H47218042   4.415   1.848   0.424  0.8070 -0.7009  1.7627
   36MOL   H47318043   4.269   1.791   0.349 -0.9670 -0.2626  0.6695
   36MOL   H47418044   4.290   2.072   0.476  0.9111  0.0044 -0.9063
   36MOL   H47518045   4.325   2.035   0.308 -0.4917  0.3803 -0.8185
   36MOL   H47618046   4.160   1.995   0.380 -1.0410 -0.9223  4.3054
   36MOL   C47718047   4.328   2.156   1.128 -0.3456  0.0782 -0.1371
   36MOL   C47818048   4.180   2.215   1.137 -0.0390  0.5242  0.2100
   36MOL   O47918049   4.183   2.359   1.138  0.2905 -0.5993 -0.0803
   36MOL   C48018050   4.077   2.414   1.051 -0.0835 -0.1122  0.0776
   36MOL   C48118051   4.091   2.563   1.059 -0.0354  0.7471 -0.9800
   36MOL   C48218052   4.071   2.618   1.204  0.3279 -0.1843 -0.1254
   36MOL   C48318053   3.927   2.592   1.252  0.7261 -0.0544  0.5614
   36MOL   C48418054   3.899   2.653   1.394  0.5407 -0.9837  0.0475
   36MOL   C48518055   3.766   2.607   1.451  0.2227 -1.0524 -0.3882
   36MOL   H48618056   4.363   2.170   1.230 -0.1085  0.9904 -0.3482
   36MOL   H48718057   4.390   2.199   1.050  0.5212  0.1324  0.5754
   36MOL   H48818058   4.127   2.174   1.051 -1.4979 -1.6806  2.0949
   36MOL   H48918059   3.981   2.376   1.085  1.2820 -2.3195  1.6190
   36MOL   H49018060   4.108   2.374   0.954  1.6400 -1.1529  1.0133
   36MOL   H49118061   4.032   2.606   0.978  1.2874  1.7560 -1.4101
   36MOL   H49218062   4.191   2.590   1.027  0.7168 -0.0516  0.6248
   36MOL   H49318063   4.134   2.572   1.280 -1.9494 -3.1798  0.0483
   36MOL   H49418064   4.085   2.725   1.195  0.6923 -0.3044 -1.0496
   36MOL   H49518065   3.858   2.639   1.182 -0.3590  0.8517  2.2192
   36MOL   H49618066   3.905   2.486   1.263  1.0163 -0.1711  0.0334
   36MOL   H49718067   3.969   2.622   1.471 -0.8729 -2.4350  0.7772
   36MOL   H49818068   3.892   2.762   1.394 -0.5564 -1.0475  0.3658
   36MOL   H49918069   3.745   2.669   1.538 -1.1147 -0.4321 -1.1409
   36MOL   H50018070   3.685   2.621   1.379  0.5753 -1.3502 -0.8486
   36MOL   H50118071   3.778   2.501   1.473 -1.6397 -1.2340 -0.1057
   36MOL   H50218072   4.122   2.187   1.225 -0.5059  0.9222  0.0344
   37MOL     C118073   5.806   5.389   0.556  0.7791 -0.4741 -0.1578
   37MOL     C218074   5.756   5.362   0.694  0.4405  0.3881  0.2856
   37MOL     O318075   5.768   5.228   0.714 -0.2874  0.3065  0.1587
   37MOL     C418076   5.754   5.180   0.848  0.8007  0.2917 -0.1483
   37MOL     C518077   5.779   5.030   0.855 -0.4186 -0.2809  0.0713
   37MOL     C618078   5.716   4.963   0.976 -0.7694  0.0248 -0.4364
   37MOL     C718079   5.748   4.812   0.988  0.0767 -0.2968  0.0954
   37MOL     C818080   5.702   4.763   1.128 -0.8156 -0.1732 -0.2713
   37MOL     C918081   5.815   4.743   1.232  0.4573 -0.0187  0.8857
   37MOL    H1018082   5.805   5.492   0.520 -2.2893 -1.1119 -1.9788
   37MOL    H1118083   5.909   5.355   0.540  0.7039 -0.7539 -0.0550
   37MOL    H1218084   5.829   5.400   0.765  1.2595 -1.3655  0.4118
   37MOL    H1318085   5.652   5.197   0.884  0.6956  0.5706 -0.5759
   37MOL    H1418086   5.825   5.223   0.919 -1.3948  1.4968  1.3801
   37MOL    H1518087   5.887   5.015   0.849 -0.2021  0.0514  2.6518
   37MOL    H1618088   5.742   4.977   0.768 -0.4072 -0.1690 -0.0031
   37MOL    H1718089   5.745   5.020   1.064 -0.2411  3.9582 -2.9959
   37MOL    H1818090   5.609   4.978   0.961 -1.1025 -2.3006 -0.4410
   37MOL    H1918091   5.702   4.749   0.913 -0.4749 -1.8966  1.7466
   37MOL    H2018092   5.856   4.799   0.983  0.5054  3.2347 -1.9528
   37MOL    H2118093   5.649   4.668   1.131  1.2770 -1.3368  1.1552
   37MOL    H2218094   5.633   4.837   1.168  1.3444 -0.0884  3.5341
   37MOL    H2318095   5.765   4.721   1.326 -0.2199 -2.2438  0.0246
   37MOL    H2418096   5.877   4.657   1.209 -1.2460 -1.0986  0.2225
   37MOL    H2518097   5.871   4.835   1.248  1.3050 -0.5613  1.0417
   37MOL    H2618098   5.744   5.338   0.483 -1.3930  1.0011  0.6332
   37MOL    C2718099   5.608   5.410   0.708  0.3733  0.5379  1.3648
   37MOL    C2818100   5.571   5.560   0.673 -0.5861  0.1906 -0.4913
   37MOL    O2918101   5.582   5.584   0.534 -0.5651 -0.7351 -0.2342
   37MOL    C3018102   5.611   5.723   0.508  0.0634  0.0344  0.0397
   37MOL    C3118103   5.586   5.761   0.363  0.1995 -0.0716  0.5081
   37MOL    C3218104   5.641   5.664   0.257 -0.2729  0.0692  1.4211
   37MOL    C3318105   5.608   5.700   0.110 -0.1011  0.3272  0.1649
   37MOL    C3418106   5.689   5.815   0.057  0.2938 -0.1411  0.1564
   37MOL    C3518107   5.642   5.871   7.703 -0.3430 -0.4296  0.6749
   37MOL    H3618108   5.548   5.346   0.644  0.2844 -0.4358  2.3992
   37MOL    H3718109   5.576   5.405   0.812 -1.9780 -0.3472  0.6095
   37MOL    H3818110   5.645   5.618   0.728  1.3530 -2.1182 -0.5963
   37MOL    H3918111   5.719   5.720   0.526  0.1138 -1.3745 -0.4070
   37MOL    H4018112   5.563   5.791   0.578  0.1347 -0.9375  1.0517
   37MOL    H4118113   5.610   5.865   0.340 -1.5560 -0.4846 -3.6219
   37MOL    H4218114   5.480   5.785   0.354 -0.0244 -1.9439 -2.1677
   37MOL    H4318115   5.750   5.658   0.269 -0.1095 -0.5905 -0.2768
   37MOL    H4418116   5.608   5.564   0.284  1.2689 -0.7946  0.1853
   37MOL    H4518117   5.631   5.622   0.038 -0.8198  0.8428 -0.6263
   37MOL    H4618118   5.501   5.719   0.100 -0.2980 -0.6946  0.1956
   37MOL    H4718119   5.671   5.895   0.128  0.2252  1.2125 -1.3691
   37MOL    H4818120   5.795   5.791   0.057  0.2307 -0.4803  1.2379
   37MOL    H4918121   5.684   5.971   7.695  0.0365 -0.7555 -1.7699
   37MOL    H5018122   5.672   5.812   7.617 -1.5026 -0.9300  0.5992
   37MOL    H5118123   5.535   5.893   7.697  0.2173  2.6324  1.2568
   37MOL    C5218124   5.438   5.601   0.732  0.4811 -0.8867 -0.0567
   37MOL    C5318125   5.313   5.516   0.691 -0.6824  0.4247 -0.2481
   37MOL    O5418126   5.207   5.568   0.768 -0.2853 -0.2862  0.2423
   37MOL    C5518127   5.191   5.480   0.879  0.2682  0.5274 -0.8342
   37MOL    C5618128   5.082   5.538   0.975  0.5035  0.1515  0.0277
   37MOL    C5718129   5.056   5.455   1.106  0.0719 -0.1664 -0.1081
   37MOL    C5818130   5.146   5.485   1.221  0.4221  0.7164  0.6423
   37MOL    C5918131   5.111   5.399   1.345  0.1114 -0.3117  0.3782
   37MOL    C6018132   5.219   5.404   1.452  0.3506 -0.4328 -0.1403
   37MOL    H6118133   5.410   5.706   0.719  0.2677 -1.0756 -1.1929
   37MOL    H6218134   5.448   5.596   0.840  0.0500  0.1039  0.0359
   37MOL    H6318135   5.342   5.414   0.713  2.5513  1.3701  0.0901
   37MOL    H6418136   5.279   5.475   0.943  0.2778  2.5651 -0.6452
   37MOL    H6518137   5.157   5.384   0.840 -0.5485  0.3672  0.2426
   37MOL    H6618138   4.994   5.546   0.911  1.0292  0.9192 -0.6169
   37MOL    H6718139   5.122   5.637   0.998  0.3681  0.2853 -0.2977
   37MOL    H6818140   4.955   5.477   1.142  0.0802  0.9697 -0.7487
   37MOL    H6918141   5.040   5.350   1.085  0.8068  0.0647 -1.8809
   37MOL    H7018142   5.245   5.459   1.185 -0.4603 -1.7413 -0.1506
   37MOL    H7118143   5.165   5.586   1.257 -1.7041  1.5968 -0.6243
   37MOL    H7218144   5.016   5.425   1.391 -0.0920 -0.8251  0.2509
   37MOL    H7318145   5.095   5.300   1.303 -2.0677 -0.2066  0.9447
   37MOL    H7418146   5.201   5.333   1.532 -1.9254 -1.0471 -1.1724
   37MOL    H7518147   5.320   5.402   1.411  1.2072  1.5726  1.7876
   37MOL    H7618148   5.213   5.505   1.493  0.6688  0.3939 -2.0536
   37MOL    C7718149   5.287   5.534   0.543  0.0908 -0.4549  0.0610
   37MOL    C7818150   5.166   5.456   0.486 -0.6094  0.2380  0.5125
   37MOL    O7918151   5.209   5.324   0.470 -0.1162  0.4923 -0.1989
   37MOL    C8018152   5.114   5.230   0.508  0.8808  0.4742 -0.1839
   37MOL    C8118153   5.160   5.087   0.509 -0.3653  0.8529  0.0388
   37MOL    C8218154   5.275   5.059   0.612 -0.5067  0.4282 -0.1741
   37MOL    C8318155   5.366   4.947   0.566 -0.4315  0.2695 -0.0984
   37MOL    C8418156   5.456   4.880   0.672 -0.1671 -0.0693 -0.4870
   37MOL    C8518157   5.543   4.776   0.611 -0.0591  0.1642  1.4252
   37MOL    H8618158   5.376   5.498   0.491 -1.5317 -1.9545 -1.8037
   37MOL    H8718159   5.283   5.641   0.524  0.6672 -0.8739 -2.6911
   37MOL    H8818160   5.090   5.461   0.565 -2.1488  0.2750 -0.9381
   37MOL    H8918161   5.026   5.245   0.446 -0.1108 -0.7721  0.9042
   37MOL    H9018162   5.082   5.251   0.610  0.6850 -0.4869 -0.0432
   37MOL    H9118163   5.197   5.054   0.412  0.3006 -1.2406  0.9705
   37MOL    H9218164   5.082   5.016   0.534 -0.2211  0.6765 -0.0119
   37MOL    H9318165   5.338   5.146   0.631  1.5836 -1.7495  3.4499
   37MOL    H9418166   5.226   5.035   0.706 -1.2470 -2.1843 -1.1715
   37MOL    H9518167   5.314   4.860   0.527 -1.4720  0.3452  1.0721
   37MOL    H9618168   5.422   4.983   0.481 -1.6377  4.0235  0.6265
   37MOL    H9718169   5.510   4.958   0.726 -2.0061  0.3439  0.8055
   37MOL    H9818170   5.387   4.842   0.747  1.3771  0.8461  1.4187
   37MOL    H9918171   5.593   4.730   0.697 -1.0839 -1.2040  1.3172
   37MOL   H10018172   5.479   4.694   0.576  1.5341 -1.3164  1.8852
   37MOL   H10118173   5.608   4.811   0.531 -0.9160  1.7684  1.4327
   37MOL   C10218174   5.100   5.508   0.361  0.9407  0.9428  0.2807
   37MOL   C10318175   5.067   5.660   0.360  0.2141  0.4198 -0.4380
   37MOL   O10418176   5.047   5.705   0.225 -0.0944  0.1385 -0.6727
   37MOL   C10518177   5.164   5.738   0.160  0.1602  0.3232  0.5063
   37MOL   C10618178   5.118   5.829   0.042 -0.5488  0.7781  0.3237
   37MOL   C10718179   5.045   5.959   0.078 -0.7940  0.4167 -0.3851
   37MOL   C10818180   5.018   6.038   7.731 -0.1992 -0.1570  0.2940
   37MOL   C10918181   4.930   6.163   7.747  0.0424 -0.4006  0.0263
   37MOL   C11018182   4.923   6.228   7.608  0.6582 -0.0164  0.4850
   37MOL   H11118183   5.181   5.487   0.291 -0.2434 -1.3599 -0.4665
   37MOL   H11218184   5.008   5.455   0.335  1.5216  1.2018 -2.5090
   37MOL   H11318185   5.140   5.727   0.406 -2.0745 -0.2648  4.5294
   37MOL   H11418186   5.205   5.646   0.118  1.0415  1.5524 -1.4260
   37MOL   H11518187   5.237   5.786   0.224  1.0263  0.4002 -0.5194
   37MOL   H11618188   5.054   5.771   7.753  1.1079  0.0083 -0.6279
   37MOL   H11718189   5.200   5.853   7.752  0.0063 -0.0812  0.6911
   37MOL   H11818190   4.947   5.926   0.112  0.4708 -1.5243  1.5117
   37MOL   H11918191   5.098   6.009   0.160 -0.2028  1.0031 -1.1163
   37MOL   H12018192   5.110   6.057   7.675  0.0983 -2.0987  0.0838
   37MOL   H12118193   4.962   5.975   7.662  0.3637  0.7718 -1.0544
   37MOL   H12218194   4.835   6.123   0.003 -0.5692  2.3356  1.7276
   37MOL   H12318195   4.953   6.236   0.047 -0.1615 -0.9510  0.6074
   37MOL   H12418196   4.875   6.325   7.618 -0.4463 -0.7687  2.8620
   37MOL   H12518197   5.027   6.242   7.581  0.9580 -1.9342  0.5413
   37MOL   H12618198   4.876   6.162   7.535 -1.1530  1.5333  0.2235
   37MOL   C12718199   4.929   5.687   0.437  0.1095  0.1938 -0.1378
   37MOL   C12818200   4.926   5.814   0.521 -0.2691  0.2740  0.0563
   37MOL   O12918201   4.807   5.812   0.602  0.3294  0.1218  0.3626
   37MOL   C13018202   4.823   5.745   0.734  0.3546 -0.5713  0.1932
   37MOL   C13118203   4.716   5.789   0.825 -0.0038  0.1572  0.4499
   37MOL   C13218204   4.728   5.934   0.861 -0.7833  0.1469  0.0706
   37MOL   C13318205   4.610   5.975   0.947 -0.4051 -0.4747 -0.8588
   37MOL   C13418206   4.624   6.123   0.994 -0.0649 -0.9293 -0.5092
   37MOL   C13518207   4.573   6.213   0.877  0.0590 -0.3864  0.0214
   37MOL   H13618208   4.843   5.685   0.371  1.3091  0.0308 -1.7238
   37MOL   H13718209   4.923   5.611   0.515 -3.1947  0.5513 -0.0044
   37MOL   H13818210   5.013   5.811   0.586  0.1802 -3.2076 -0.5925
   37MOL   H13918211   4.916   5.776   0.783  1.5597 -0.0603 -2.3233
   37MOL   H14018212   4.831   5.637   0.719 -1.5929 -0.7920  0.6350
   37MOL   H14118213   4.705   5.720   0.909 -0.7916  1.0005  1.0441
   37MOL   H14218214   4.627   5.770   0.765 -0.1564  1.2186  0.3354
   37MOL   H14318215   4.824   5.941   0.910 -0.5267  1.2967 -0.5815
   37MOL   H14418216   4.743   6.006   0.780  0.3899  1.5278  1.5113
   37MOL   H14518217   4.519   5.958   0.889  0.4073 -2.2113 -1.6520
   37MOL   H14618218   4.602   5.924   1.043  1.1279  3.6810  1.5948
   37MOL   H14718219   4.571   6.163   1.080  0.2171 -0.0037 -0.7647
   37MOL   H14818220   4.729   6.145   1.013 -0.3608  0.0495  0.0058
   37MOL   H14918221   4.640   6.210   0.790 -0.1351 -0.5130 -0.1224
   37MOL   H15018222   4.477   6.175   0.842  0.0657  0.3615 -0.8393
   37MOL   H15118223   4.568   6.318   0.907  0.6353 -0.4753  0.4574
   37MOL   C15218224   4.927   5.935   0.430  0.4307 -0.4471  0.8829
   37MOL   C15318225   4.917   6.075   0.503  0.1464  0.1564 -0.2080
   37MOL   O15418226   5.044   6.088   0.571 -0.0506  0.2512 -0.0265
   37MOL   C15518227   5.039   6.128   0.704 -0.2817  0.3242 -0.0584
   37MOL   C15618228   5.182   6.179   0.751  0.2279  0.1200 -0.8474
   37MOL   C15718229   5.222   6.310   0.694 -0.0353  0.2058 -0.3685
   37MOL   C15818230   5.370   6.358   0.729 -0.0769  0.2333  0.2000
   37MOL   C15918231   5.384   6.505   0.692 -0.1192 -0.5595 -0.2996
   37MOL   C16018232   5.522   6.549   0.726  0.3088  0.1843  0.1542
   37MOL   H16118233   5.018   5.930   0.369  0.4107  0.9050  0.7200
   37MOL   H16218234   4.844   5.927   0.360 -2.0101  1.2907  3.4933
   37MOL   H16318235   4.839   6.078   0.579  1.0051  0.4884  0.6695
   37MOL   H16418236   5.018   6.041   0.767 -0.8283 -0.1386 -0.8834
   37MOL   H16518237   4.973   6.209   0.735  1.2079  1.0901  1.2312
   37MOL   H16618238   5.252   6.100   0.724  0.7398 -0.4702  1.9505
   37MOL   H16718239   5.189   6.179   0.860  0.9776 -0.4725 -0.8879
   37MOL   H16818240   5.213   6.305   0.586 -0.1790 -0.1054 -0.3412
   37MOL   H16918241   5.143   6.378   0.726 -1.2386 -1.0337 -0.7032
   37MOL   H17018242   5.389   6.343   0.835 -0.6397 -0.7016  0.1804
   37MOL   H17118243   5.438   6.286   0.683 -1.3752 -0.5383 -0.5569
   37MOL   H17218244   5.356   6.524   0.588 -0.7254 -0.0506 -0.0509
   37MOL   H17318245   5.310   6.567   0.743 -0.8601 -0.7895 -1.0727
   37MOL   H17418246   5.536   6.657   0.726  0.1822  0.2227  3.1538
   37MOL   H17518247   5.548   6.523   0.828 -2.1321  0.2280  0.7951
   37MOL   H17618248   5.596   6.499   0.663 -1.4236  0.9207 -2.5457
   37MOL   C17718249   4.911   6.189   0.405 -0.2358  0.1012  0.8714
   37MOL   C17818250   4.914   6.334   0.465  0.2562  0.4288  0.2128
   37MOL   O17918251   4.955   6.432   0.372 -0.5263 -0.6721  0.1486
   37MOL   C18018252   5.095   6.457   0.368  0.6449 -0.6769 -0.3651
   37MOL   C18118253   5.128   6.583   0.289  0.5496  0.3023 -0.3495
   37MOL   C18218254   5.078   6.711   0.362 -0.4581 -0.9655  0.5508
   37MOL   C18318255   5.124   6.847   0.297  0.3101  0.1625  0.2318
   37MOL   C18418256   5.257   6.893   0.359 -0.0226 -0.2603  0.6596
   37MOL   C18518257   5.347   6.991   0.278  0.8187 -0.2214  0.2378
   37MOL   H18618258   4.999   6.181   0.341 -0.3865 -1.0978  0.7903
   37MOL   H18718259   4.825   6.169   0.341 -0.2406  0.6408  0.7070
   37MOL   H18818260   4.980   6.327   0.552 -1.3775 -1.2708  1.3865
   37MOL   H18918261   5.138   6.366   0.327 -2.2047 -2.6694  0.9434
   37MOL   H19018262   5.137   6.469   0.468 -1.3184  1.9078  0.2059
   37MOL   H19118263   5.073   6.581   0.195 -0.0748  2.5486 -0.0661
   37MOL   H19218264   5.235   6.587   0.264 -0.3484 -0.2166 -4.6957
   37MOL   H19318265   4.971   6.691   0.358  0.0781 -3.7363 -1.1204
   37MOL   H19418266   5.103   6.706   0.469  0.2677 -0.1678  0.4202
   37MOL   H19518267   5.136   6.829   0.190  0.1783  0.3516  0.1853
   37MOL   H19618268   5.059   6.935   0.297 -1.4731 -1.1095  0.3703
   37MOL   H19718269   5.229   6.955   0.444  0.7412 -2.4249  2.5391
   37MOL   H19818270   5.320   6.806   0.378  1.8021  0.8359 -0.2738
   37MOL   H19918271   5.357   6.965   0.173 -0.5406  0.1787  0.0035
   37MOL   H20018272   5.294   7.086   0.276  0.6978 -0.2875  0.3150
   37MOL   H20118273   5.446   6.993   0.325  0.6253 -1.1347  0.7084
   37MOL   C20218274   4.768   6.375   0.505  0.5302  0.0932  0.1416
   37MOL   C20318275   4.748   6.508   0.586 -0.6333  0.3683 -0.2192
   37MOL   O20418276   4.794   6.481   0.713 -0.3511  0.0193 -0.8648
   37MOL   C20518277   4.909   6.554   0.757 -0.4496 -0.4511  0.4802
   37MOL   C20618278   4.978   6.499   0.881  0.8078 -0.0586  0.0795
   37MOL   C20718279   4.881   6.510   0.992  0.4803  0.1048  0.0804
   37MOL   C20818280   4.915   6.443   1.123 -0.0072 -0.2473 -0.0905
   37MOL   C20918281   4.798   6.446   1.229  0.4061 -0.7087  0.0305
   37MOL   C21018282   4.851   6.385   1.355  0.4387 -0.2680  0.0614
   37MOL   H21118283   4.716   6.387   0.411  0.6005 -1.0847 -0.0565
   37MOL   H21218284   4.718   6.299   0.566 -1.2172  0.9041 -0.2816
   37MOL   H21318285   4.802   6.588   0.534 -1.3472  0.8851 -0.1657
   37MOL   H21418286   4.873   6.657   0.757  1.4475  0.3097 -2.6820
   37MOL   H21518287   4.988   6.550   0.681 -0.9474 -2.2879  0.0500
   37MOL   H21618288   5.061   6.564   0.908 -2.4407  4.1580  0.4997
   37MOL   H21718289   4.983   6.391   0.868 -0.3890 -0.2457  1.0025
   37MOL   H21818290   4.848   6.613   1.007 -0.3637 -0.1433 -0.0696
   37MOL   H21918291   4.793   6.454   0.960  0.4380 -0.1184  0.5829
   37MOL   H22018292   4.959   6.344   1.114  1.5174  0.2968  1.2314
   37MOL   H22118293   4.999   6.498   1.165  1.3756 -1.3235 -1.3873
   37MOL   H22218294   4.765   6.547   1.252 -0.1184 -0.5052 -1.5203
   37MOL   H22318295   4.714   6.389   1.189  1.4970 -3.0597  0.9713
   37MOL   H22418296   4.867   6.278   1.336 -0.0960 -0.2535 -0.5244
   37MOL   H22518297   4.935   6.443   1.392  0.1559 -0.7016  1.4162
   37MOL   H22618298   4.775   6.395   1.433 -1.2904 -0.4905 -1.5433
   37MOL   C22718299   4.601   6.536   0.589  0.8973 -0.7666  0.9094
   37MOL   C22818300   4.566   6.674   0.644 -0.2399 -0.1555  0.2726
   37MOL   O22918301   4.448   6.725   0.593 -0.3028  0.3364  0.6240
   37MOL   C23018302   4.462   6.790   0.462 -0.0944 -0.1980 -0.1724
   37MOL   C23118303   4.347   6.897   0.445 -0.1056 -0.0865 -0.0060
   37MOL   C23218304   4.323   6.941   0.299  0.1639 -0.3027  0.0843
   37MOL   C23318305   4.211   7.051   0.285  0.5622  0.5610 -0.6709
   37MOL   C23418306   4.217   7.105   0.141 -0.1144  0.0027  0.0002
   37MOL   C23518307   4.110   7.220   0.117 -0.1389  0.3455  0.7709
   37MOL   H23618308   4.577   6.544   0.482 -0.9751 -2.8353  1.1481
   37MOL   H23718309   4.537   6.457   0.628 -1.2388  0.7666  0.5988
   37MOL   H23818310   4.648   6.738   0.612  0.0521 -0.5238  0.2938
   37MOL   H23918311   4.475   6.716   0.383 -1.4704  1.3990 -1.9606
   37MOL   H24018312   4.552   6.850   0.463  1.7375 -2.8591 -1.0659
   37MOL   H24118313   4.371   6.993   0.491 -1.8550  0.1840  0.4098
   37MOL   H24218314   4.253   6.864   0.490  0.2261 -0.9040  0.1073
   37MOL   H24318315   4.422   6.971   0.264 -0.8515  0.5120 -2.1692
   37MOL   H24418316   4.283   6.862   0.235 -0.8662 -0.0475  0.4052
   37MOL   H24518317   4.114   7.009   0.311  0.3223  2.2103  1.1472
   37MOL   H24618318   4.228   7.131   0.356  0.7574 -0.3800  0.3610
   37MOL   H24718319   4.316   7.138   0.110 -0.5010  0.7074 -0.4822
   37MOL   H24818320   4.192   7.023   0.074  1.5322 -1.9788  1.7214
   37MOL   H24918321   4.068   7.201   0.019  0.0623  3.2271  0.0621
   37MOL   H25018322   4.026   7.220   0.186 -0.9992 -0.4657 -0.2878
   37MOL   H25118323   4.147   7.323   0.117  1.2312 -0.1243 -0.6697
   37MOL   C25218324   4.533   6.668   0.795 -0.8878  0.0722  0.1583
   37MOL   C25318325   4.546   6.807   0.851  0.1840 -0.1245 -0.7434
   37MOL   O25418326   4.683   6.851   0.858 -0.0447 -0.5497  0.3605
   37MOL   C25518327   4.706   6.986   0.823  0.5092  0.0615  0.5030
   37MOL   C25618328   4.857   7.008   0.868  0.1204  0.3035  0.8094
   37MOL   C25718329   4.965   6.967   0.769 -0.5026  0.1041 -0.3580
   37MOL   C25818330   5.102   6.973   0.832 -0.3872  0.3453  0.4065
   37MOL   C25918331   5.209   6.938   0.735  0.1702 -0.2195  0.2377
   37MOL   C26018332   5.346   6.938   0.801  0.3338 -0.3733 -0.0175
   37MOL   H26118333   4.438   6.620   0.817  0.2285 -1.8076  0.9956
   37MOL   H26218334   4.608   6.606   0.845 -0.1220 -1.4111 -2.6899
   37MOL   H26318335   4.484   6.873   0.791  0.1022 -0.3532 -0.9091
   37MOL   H26418336   4.638   7.047   0.882 -0.3676  0.3587 -0.7911
   37MOL   H26518337   4.699   7.005   0.716  0.2126  1.1387  0.7027
   37MOL   H26618338   4.874   6.951   0.959 -0.4890 -2.3808 -0.7027
   37MOL   H26718339   4.870   7.116   0.880  2.9387 -0.1023  1.6437
   37MOL   H26818340   4.945   6.874   0.716  0.5162 -0.3639  0.0550
   37MOL   H26918341   4.970   7.044   0.692 -1.1658 -0.9195 -1.4411
   37MOL   H27018342   5.126   7.070   0.875  0.9667 -0.1420  0.7613
   37MOL   H27118343   5.091   6.905   0.917  1.8914  1.2097  1.4275
   37MOL   H27218344   5.202   6.837   0.695  0.6560 -0.1734  0.0344
   37MOL   H27318345   5.208   7.007   0.650 -2.1951  0.6664  0.9390
   37MOL   H27418346   5.339   6.896   0.901 -1.4633  1.7771  0.7882
   37MOL   H27518347   5.423   6.887   0.742  0.2526 -0.1577 -0.3141
   37MOL   H27618348   5.383   7.038   0.821  0.6367  0.1097 -2.7476
   37MOL   C27718349   4.489   6.796   0.996  0.7741 -0.4162 -0.4451
   37MOL   C27818350   4.339   6.831   1.008  0.0212  0.5020 -0.3122
   37MOL   O27918351   4.250   6.739   0.945 -0.2454 -0.8270 -0.2656
   37MOL   C28018352   4.165   6.793   0.847 -0.0927  0.8276  0.2601
   37MOL   C28118353   4.049   6.694   0.821 -0.3648  0.1068  0.6989
   37MOL   C28218354   3.932   6.689   0.923 -0.9554 -0.0260 -0.2320
   37MOL   C28318355   3.820   6.597   0.877  0.3639 -0.2685  0.2214
   37MOL   C28418356   3.740   6.651   0.754  0.5526 -0.0498 -0.4932
   37MOL   C28518357   3.632   6.549   0.703 -0.9192  0.0843  0.1858
   37MOL   H28618358   4.503   6.699   1.045  0.5232 -0.5115 -0.5623
   37MOL   H28718359   4.548   6.873   1.046 -0.6605  0.0092  0.6206
   37MOL   H28818360   4.331   6.924   0.953  0.9714 -1.0907 -3.2598
   37MOL   H28918361   4.234   6.809   0.764  1.1184 -0.1241  1.0804
   37MOL   H29018362   4.122   6.886   0.886  1.1878  2.2944 -1.7046
   37MOL   H29118363   4.091   6.595   0.807 -1.3006 -0.3580  1.1598
   37MOL   H29218364   4.016   6.707   0.718  1.6965  0.3073  0.0277
   37MOL   H29318365   3.963   6.656   1.022 -0.1695 -0.0264 -0.4688
   37MOL   H29418366   3.891   6.790   0.930  3.6670  1.9019  1.4303
   37MOL   H29518367   3.870   6.503   0.855  0.9613  0.5665 -2.1702
   37MOL   H29618368   3.754   6.577   0.962 -0.1218 -2.3262 -0.6281
   37MOL   H29718369   3.691   6.746   0.776 -0.0935  0.3207 -3.3024
   37MOL   H29818370   3.802   6.685   0.671 -2.1688  0.0113 -2.5738
   37MOL   H29918371   3.598   6.568   0.601 -0.1669  0.7958  0.0613
   37MOL   H30018372   3.683   6.452   0.701 -0.9848 -0.0076  2.2684
   37MOL   H30118373   3.556   6.544   0.781  0.9336 -0.3352  2.0223
   37MOL   C30218374   4.293   6.854   1.145  0.1227  0.4607 -0.0634
   37MOL   C30318375   4.365   6.963   1.224 -0.0293 -1.0990  0.3964
   37MOL   O30418376   4.291   7.000   1.338  0.2755  0.2352  0.0947
   37MOL   C30518377   4.285   6.910   1.445 -0.3388  0.2787 -0.7801
   37MOL   C30618378   4.229   6.979   1.571 -0.4058  0.8004  0.4563
   37MOL   C30718379   4.323   7.084   1.618 -0.1659 -0.7813 -0.8013
   37MOL   C30818380   4.282   7.152   1.756 -0.6128 -0.6548  0.1020
   37MOL   C30918381   4.380   7.252   1.811  0.3164 -0.0261 -0.6230
   37MOL   C31018382   4.501   7.181   1.882 -0.3500 -0.4577 -0.3314
   37MOL   H31118383   4.185   6.871   1.147  0.3380  2.1159 -1.4853
   37MOL   H31218384   4.319   6.766   1.203 -1.5841  1.2902  2.0314
   37MOL   H31318385   4.457   6.917   1.260  0.1289 -0.5532  0.6981
   37MOL   H31418386   4.385   6.870   1.461 -0.1407  0.4010 -1.6891
   37MOL   H31518387   4.224   6.822   1.421  0.5692 -0.9225  1.1516
   37MOL   H31618388   4.207   6.912   1.655 -0.5581 -0.6227 -0.7020
   37MOL   H31718389   4.131   7.018   1.544 -0.3365  1.4408  1.1118
   37MOL   H31818390   4.426   7.051   1.628  0.0118 -1.3638 -4.0497
   37MOL   H31918391   4.332   7.152   1.534 -0.3214  1.7746  1.1750
   37MOL   H32018392   4.186   7.194   1.727 -0.8635 -1.2138  0.1198
   37MOL   H32118393   4.247   7.078   1.827 -4.2133 -1.3740 -2.3124
   37MOL   H32218394   4.432   7.303   1.729  1.0467  0.4674  0.1447
   37MOL   H32318395   4.338   7.319   1.887  1.6238 -0.3934  0.4293
   37MOL   H32418396   4.570   7.152   1.803  0.5706 -0.9402  0.6354
   37MOL   H32518397   4.564   7.254   1.932 -2.0495  0.7061  0.1339
   37MOL   H32618398   4.485   7.102   1.955 -0.9709 -0.4307 -0.4354
   37MOL   C32718399   4.392   7.097   1.143 -0.3934  0.7021 -0.2967
   37MOL   C32818400   4.474   7.196   1.227  0.1524 -0.0278  0.3058
   37MOL   O32918401   4.602   7.141   1.245 -0.3770  0.0612 -0.1348
   37MOL   C33018402   4.650   7.115   1.382  0.3338  0.3025 -0.7892
   37MOL   C33118403   4.803   7.081   1.371 -0.1472  0.2914  0.1228
   37MOL   C33218404   4.828   6.959   1.277 -0.7987  0.4321  0.2656
   37MOL   C33318405   4.970   6.898   1.314  0.0735  0.2719  1.0936
   37MOL   C33418406   5.015   6.802   1.206  0.6075  0.2301  1.0876
   37MOL   C33518407   5.162   6.769   1.213 -0.4003  0.9934  0.4439
   37MOL   H33618408   4.298   7.143   1.112 -1.1389 -0.5639  0.0561
   37MOL   H33718409   4.445   7.066   1.053  1.5503 -1.0018  1.3854
   37MOL   H33818410   4.428   7.205   1.325  1.1212  1.0447  0.6634
   37MOL   H33918411   4.585   7.037   1.423  0.3921  0.2838 -0.7320
   37MOL   H34018412   4.638   7.211   1.431  1.9961  0.1205  0.0022
   37MOL   H34118413   4.837   7.061   1.473  1.0610  2.4160  0.1614
   37MOL   H34218414   4.857   7.170   1.339  1.6204 -1.1900 -1.1288
   37MOL   H34318415   4.755   6.881   1.300  1.6480 -1.9481  0.2575
   37MOL   H34418416   4.827   6.975   1.169  1.3054 -1.8367 -0.1349
   37MOL   H34518417   5.031   6.987   1.329 -1.1154  0.7149  3.5394
   37MOL   H34618418   4.995   6.856   1.412  1.3313 -1.6204 -0.0009
   37MOL   H34718419   4.953   6.713   1.211  0.2255  0.4691  0.6824
   37MOL   H34818420   4.995   6.837   1.104 -1.9909  1.2806  1.9216
   37MOL   H34918421   5.220   6.857   1.186  0.7390 -0.0419 -0.5442
   37MOL   H35018422   5.179   6.745   1.318 -0.9209  0.3553  0.3879
   37MOL   H35118423   5.182   6.685   1.146 -2.7026  0.9135 -0.2048
   37MOL   C35218424   4.487   7.332   1.148  0.1121 -0.1987  0.2215
   37MOL   C35318425   4.528   7.447   1.241  0.2413 -0.3161  0.6536
   37MOL   O35418426   4.406   7.485   1.301  1.0504  0.1199  1.1203
   37MOL   C35518427   4.401   7.482   1.444  0.5022  0.0466 -0.3213
   37MOL   C35618428   4.249   7.519   1.472  0.2285 -0.1085 -0.3112
   37MOL   C35718429   4.217   7.514   1.627  0.1772  0.0244 -0.4368
   37MOL   C35818430   4.091   7.607   1.638 -0.2437  0.1447  0.7084
   37MOL   C35918431   4.039   7.617   1.791  0.1713  0.8371  0.0870
   37MOL   C36018432   3.915   7.702   1.818 -0.2298  0.1913 -0.3622
   37MOL   H36118433   4.573   7.320   1.083  0.3813 -0.6813  0.6617
   37MOL   H36218434   4.396   7.358   1.094  0.5328  0.1345 -0.3367
   37MOL   H36318435   4.594   7.410   1.319  1.6355  0.0800 -0.3174
   37MOL   H36418436   4.476   7.550   1.485  3.1477 -0.6815 -3.7337
   37MOL   H36518437   4.430   7.382   1.476 -0.6387 -0.3293 -0.4446
   37MOL   H36618438   4.184   7.468   1.401 -0.5931 -0.1291  0.4511
   37MOL   H36718439   4.256   7.617   1.424 -0.7169  0.3043  0.3728
   37MOL   H36818440   4.205   7.412   1.663  3.3447 -0.3319 -0.3071
   37MOL   H36918441   4.295   7.562   1.685 -1.2703  0.2823  1.3635
   37MOL   H37018442   4.123   7.711   1.624 -1.8375  0.5477 -0.1076
   37MOL   H37118443   4.017   7.565   1.570 -0.1981  0.2235  0.6107
   37MOL   H37218444   4.026   7.516   1.828 -1.8662 -0.6058 -4.1951
   37MOL   H37318445   4.116   7.668   1.849  2.7583 -2.2950 -0.4868
   37MOL   H37418446   3.823   7.651   1.790 -0.6796  0.2074  1.0362
   37MOL   H37518447   3.898   7.715   1.925  1.2377  0.0925 -0.1117
   37MOL   H37618448   3.916   0.023   1.773 -1.0639 -0.5525 -2.0608
   37MOL   C37718449   4.595   7.564   1.170  0.0014 -0.4003  0.9647
   37MOL   C37818450   4.734   7.532   1.104  0.6817 -0.2448  0.5312
   37MOL   O37918451   4.740   7.444   0.992 -0.1170 -0.4294 -0.4055
   37MOL   C38018452   4.713   7.493   0.858  0.2047 -0.0295 -0.1411
   37MOL   C38118453   4.734   7.384   0.752  0.1567  0.0054  0.6915
   37MOL   C38218454   4.880   7.361   0.713 -0.2550 -0.5246 -0.1147
   37MOL   C38318455   4.885   7.295   0.572  0.0831 -0.7707  0.1492
   37MOL   C38418456   5.027   7.290   0.511  1.0259 -0.1417 -0.8169
   37MOL   C38518457   5.023   7.212   0.377 -0.1783 -0.2609 -0.7034
   37MOL   H38618458   4.531   7.595   1.088  0.6110  1.4740  1.1566
   37MOL   H38718459   4.600   7.658   1.226 -0.1564  1.0430 -1.3480
   37MOL   H38818460   4.782   7.626   1.076  1.6214 -1.0325 -0.5557
   37MOL   H38918461   4.775   7.576   0.824  1.3706 -0.5886  0.6057
   37MOL   H39018462   4.614   7.537   0.863 -0.0251 -0.2778 -2.1640
   37MOL   H39118463   4.690   7.422   0.660  2.6058  1.3416  0.0282
   37MOL   H39218464   4.688   7.292   0.788  0.1920  0.3520  1.6587
   37MOL   H39318465   4.936   7.454   0.719  1.6018 -1.6894  1.1155
   37MOL   H39418466   4.927   7.303   0.792  0.9151  2.5769  1.5544
   37MOL   H39518467   4.838   7.197   0.567 -3.1720  0.5193  3.5989
   37MOL   H39618468   4.829   7.358   0.502 -0.8368  0.4643  1.9736
   37MOL   H39718469   5.064   7.392   0.500 -2.0647  1.5907  3.3223
   37MOL   H39818470   5.085   7.240   0.589 -0.3566 -0.3949  0.0676
   37MOL   H39918471   4.955   7.255   0.304  0.5112  0.3299 -1.0015
   37MOL   H40018472   5.117   7.225   0.323 -0.1120  1.4720 -0.2121
   37MOL   H40118473   5.001   7.106   0.389 -0.4842 -0.3030 -1.6051
   37MOL   C40218474   4.837   7.459   1.196 -0.7049 -0.0938  0.5173
   37MOL   C40318475   4.988   7.487   1.166 -0.2521  0.3305  0.5516
   37MOL   O40418476   5.065   7.371   1.211 -0.3625 -0.1664  0.1297
   37MOL   C40518477   5.071   7.269   1.114  0.1852 -0.7427 -0.0940
   37MOL   C40618478   5.184   7.186   1.166 -0.7528 -0.1488  0.5483
   37MOL   C40718479   5.325   7.247   1.147  0.4877 -0.4257 -0.1761
   37MOL   C40818480   5.446   7.171   1.215  0.3729  0.3413 -0.1740
   37MOL   C40918481   5.578   7.246   1.208  0.1568  0.4622 -0.5649
   37MOL   C41018482   5.628   7.294   1.070  0.9108  0.5913 -0.0398
   37MOL   H41118483   4.819   7.352   1.185 -0.2482 -0.3229  1.8275
   37MOL   H41218484   4.815   7.492   1.298  1.7776  3.5716 -0.0216
   37MOL   H41318485   5.003   7.509   1.060 -0.9575  0.7816  0.5428
   37MOL   H41418486   5.096   7.298   1.012 -0.0890 -0.3503 -0.0496
   37MOL   H41518487   4.975   7.218   1.106  0.1502 -0.5087 -1.3301
   37MOL   H41618488   5.182   7.089   1.117  0.2075  0.0701  0.0612
   37MOL   H41718489   5.171   7.176   1.274  1.3478 -0.5787  0.7829
   37MOL   H41818490   5.343   7.269   1.042 -0.1727  0.2459 -0.1538
   37MOL   H41918491   5.323   7.344   1.197 -1.1203 -0.0213 -0.9792
   37MOL   H42018492   5.427   7.166   1.323  0.9353  2.4128  0.0556
   37MOL   H42118493   5.445   7.071   1.174  1.1886  0.8491 -1.4660
   37MOL   H42218494   5.568   7.325   1.283  0.3857  1.6033 -1.6988
   37MOL   H42318495   5.661   7.190   1.252 -1.1647 -1.3970 -0.4010
   37MOL   H42418496   5.582   7.388   1.039  1.0480  0.4610 -0.6407
   37MOL   H42518497   5.735   7.313   1.072  0.8073  1.2870 -0.8273
   37MOL   H42618498   5.627   7.212   0.998 -1.4024  0.9733 -0.4965
   37MOL   C42718499   5.030   7.611   1.242 -0.0899 -0.2326 -0.2574
   37MOL   C42818500   5.165   7.664   1.200 -0.1565  0.1407 -0.4340
   37MOL   O42918501   5.165   7.684   1.057 -0.5553  0.3929  0.1095
   37MOL   C43018502   5.266   7.609   0.985 -0.3035  0.4031 -0.2134
   37MOL   C43118503   5.243   7.617   0.831  0.3384  0.8461  0.1075
   37MOL   C43218504   5.360   7.547   0.751 -0.0948  0.8254 -0.3288
   37MOL   C43318505   5.364   7.589   0.605 -0.3877  0.0076 -0.6405
   37MOL   C43418506   5.485   7.536   0.544  0.4074 -0.0036 -0.4449
   37MOL   C43518507   5.512   7.392   0.532  0.0211 -0.1527 -0.3133
   37MOL   H43618508   4.962   7.694   1.223  1.3083  0.8043 -0.7859
   37MOL   H43718509   5.040   7.600   1.350  2.0452 -4.4641 -0.7533
   37MOL   H43818510   5.242   7.597   1.237  1.1654  2.9675  2.1085
   37MOL   H43918511   5.280   7.508   1.024  1.0387  1.8909  3.3006
   37MOL   H44018512   5.357   7.660   1.015 -1.5085  2.0510  0.6946
   37MOL   H44118513   5.227   7.720   0.798 -2.7299  0.5684  0.5256
   37MOL   H44218514   5.149   7.565   0.807  0.6364  0.5007 -0.3275
   37MOL   H44318515   5.454   7.570   0.802 -0.8832  0.2080  1.4286
   37MOL   H44418516   5.348   7.440   0.764  0.5654  0.9944  1.9750
   37MOL   H44518517   5.273   7.560   0.553 -0.8896  1.1790 -0.4315
   37MOL   H44618518   5.367   7.697   0.595 -0.1824 -0.1133 -2.0820
   37MOL   H44718519   5.493   7.577   0.443 -1.4284  2.2892  0.2820
   37MOL   H44818520   5.571   7.577   0.597 -0.3352  1.9374 -0.7041
   37MOL   H44918521   5.589   7.380   0.456 -0.5691 -0.6461 -0.8386
   37MOL   H45018522   5.554   7.341   0.619  1.5961  0.3670 -0.7431
   37MOL   H45118523   5.432   7.325   0.501 -0.4505  0.2791 -0.0419
   37MOL   C45218524   5.201   0.021   1.266  0.4681 -0.6832  0.5772
   37MOL   C45318525   5.346   0.072   1.251 -0.1488 -0.2062 -0.4332
   37MOL   O45418526   5.425   7.751   1.329 -0.6131  0.2422  0.3390
   37MOL   C45518527   5.544   7.707   1.265  0.7539 -0.2165  0.1176
   37MOL   C45618528   5.632   7.649   1.371  0.0930 -0.2178  0.8124
   37MOL   C45718529   5.779   7.627   1.330  0.3421 -0.2921 -0.2200
   37MOL   C45818530   5.879   7.595   1.445 -0.0224  0.3767 -0.1241
   37MOL   C45918531   5.850   7.461   1.521 -0.3264 -0.8141 -0.0668
   37MOL   C46018532   5.886   7.334   1.444 -0.7242  0.2491  0.7288
   37MOL   H46118533   5.127   0.092   1.231 -0.4593 -1.6298  0.6063
   37MOL   H46218534   5.167   0.022   1.370 -2.4050  0.7628 -0.3564
   37MOL   H46318535   5.377   0.075   1.147 -1.1181 -1.6744 -0.7617
   37MOL   H46418536   5.585   0.020   1.221  0.4902 -1.1669 -2.1933
   37MOL   H46518537   5.515   7.631   1.191  3.5015 -2.0565  0.8173
   37MOL   H46618538   5.589   7.556   1.409 -1.5116 -0.5736 -1.7766
   37MOL   H46718539   5.627   7.721   1.453 -2.8535  1.3273 -0.6560
   37MOL   H46818540   5.782   7.560   1.245 -3.0858 -0.5184 -0.2060
   37MOL   H46918541   5.814   7.724   1.292 -1.7314  0.1229 -1.0970
   37MOL   H47018542   5.968   7.584   1.384 -0.0419 -0.9062  0.0813
   37MOL   H47118543   5.891   7.670   1.523  1.8713 -0.9865  0.9163
   37MOL   H47218544   5.908   7.466   1.613  0.6761  1.2016 -0.7802
   37MOL   H47318545   5.746   7.453   1.551 -0.1289 -3.3974  0.0628
   37MOL   H47418546   5.830   7.330   1.351  0.7831 -0.0932 -0.1930
   37MOL   H47518547   5.994   7.329   1.425 -0.6123  1.8682  0.8240
   37MOL   H47618548   5.863   7.239   1.490 -0.1063 -1.0999 -1.6394
   37MOL   C47718549   5.359   0.202   1.327 -0.3026 -0.1631  0.2936
   37MOL   C47818550   5.494   0.273   1.315 -0.9397 -0.3686 -0.1763
   37MOL   O47918551   5.481   0.399   1.385  0.7966  0.1113  0.1190
   37MOL   C48018552   5.587   0.425   1.479  0.1883 -0.1415 -0.1705
   37MOL   C48118553   5.571   0.359   1.619  0.3150 -0.1818  0.4117
   37MOL   C48218554   5.702   0.348   1.696 -0.3487  0.3449 -0.0023
   37MOL   C48318555   5.707   0.241   1.811 -0.7052  0.6808  0.3986
   37MOL   C48418556   5.838   0.257   1.885 -0.3563 -0.0667 -0.4076
   37MOL   C48518557   5.854   0.134   1.984  0.6726  0.6357 -0.6034
   37MOL   H48618558   5.291   0.271   1.277 -0.4783 -1.4996 -1.3262
   37MOL   H48718559   5.334   0.182   1.431 -1.9486 -0.0839 -0.0810
   37MOL   H48818560   5.555   0.208   1.378 -1.6205  0.0686  0.9515
   37MOL   H48918561   5.579   0.533   1.491  0.3058 -0.1941  0.4085
   37MOL   H49018562   5.678   0.389   1.432  0.7926 -2.5417  2.6858
   37MOL   H49118563   5.529   0.258   1.616 -0.0425 -0.0019 -0.8704
   37MOL   H49218564   5.502   0.414   1.683 -0.9213 -1.6998  0.4346
   37MOL   H49318565   5.778   0.318   1.623  1.5351  0.9570  1.6734
   37MOL   H49418566   5.720   0.446   1.740 -0.4551  1.0148 -1.4061
   37MOL   H49518567   5.630   0.247   1.889 -0.2603  2.4814  0.7268
   37MOL   H49618568   5.695   0.140   1.772 -2.1965  0.5858  1.0588
   37MOL   H49718569   5.917   0.264   1.809  0.1085  1.7757  0.2207
   37MOL   H49818570   5.841   0.350   1.941  3.7192  0.3157 -1.0577
   37MOL   H49918571   5.772   0.139   2.055  1.3534 -0.8070  0.3146
   37MOL   H50018572   5.853   0.045   1.922  1.5953 -0.3060  0.7047
   37MOL   H50118573   5.948   0.135   2.040 -1.0170 -3.1579  2.4431
   37MOL   H50218574   5.530   0.293   1.214 -1.3624  0.1447 -0.2323
   38MOL     C118575   4.300   6.412   7.471  0.2844 -0.4117  0.3765
   38MOL     C218576   4.332   6.263   7.431  0.7386 -1.0320  0.5276
   38MOL     O318577   4.390   6.201   7.539  0.4387  0.1927  0.3416
   38MOL     C418578   4.301   6.115   7.600 -0.2383 -0.9061 -0.7479
   38MOL     C518579   4.374   6.068   7.726  0.6471  0.1341  0.1755
   38MOL     C618580   4.482   5.958   7.699 -0.2558  0.8897  0.0505
   38MOL     C718581   4.552   5.906   0.051  0.1853  0.1592  0.5704
   38MOL     C818582   4.673   5.817   0.016 -0.1587 -0.0380  0.0287
   38MOL     C918583   4.645   5.665   0.009 -0.2425 -1.0620 -0.1422
   38MOL    H1018584   4.216   6.403   7.540 -2.8690 -1.1316 -3.3446
   38MOL    H1118585   4.381   6.459   7.526  0.9171 -3.5581  2.2480
   38MOL    H1218586   4.243   6.211   7.396  1.2354 -0.9385 -0.9035
   38MOL    H1318587   4.288   6.024   7.542  3.5843 -0.7303 -2.0309
   38MOL    H1418588   4.212   6.170   7.632  0.1274 -0.2762 -0.7962
   38MOL    H1518589   4.299   6.031   0.018 -0.2694 -0.1562 -0.9559
   38MOL    H1618590   4.423   6.151   0.000  1.4846  0.0706 -0.5047
   38MOL    H1718591   4.449   5.873   7.640 -0.4984  0.0070  1.4443
   38MOL    H1818592   4.562   6.004   7.642 -0.0575 -0.5073 -0.8201
   38MOL    H1918593   4.587   5.996   0.100  0.6636 -0.9373  2.2849
   38MOL    H2018594   4.470   5.857   0.103 -1.3825 -0.1434 -2.0986
   38MOL    H2118595   4.758   5.829   0.083  0.1722  0.7655 -0.5341
   38MOL    H2218596   4.710   5.840   7.693 -0.6922  0.7732  0.0186
   38MOL    H2318597   4.728   5.598   7.763  0.5285  0.3921 -1.7254
   38MOL    H2418598   4.611   5.630   0.106  0.6373 -3.1285 -0.5355
   38MOL    H2518599   4.563   5.650   7.716 -0.7158  0.3741  0.0812
   38MOL    H2618600   4.285   6.471   7.380 -1.0760  0.9427  1.4515
   38MOL    C2718601   4.431   6.254   7.318 -0.7332 -0.2721 -0.2738
   38MOL    C2818602   4.448   6.112   7.251 -0.4529  0.0608  0.0251
   38MOL    O2918603   4.328   6.045   7.231 -0.3743 -0.0803  0.3145
   38MOL    C3018604   4.330   5.911   7.261 -1.0606 -0.0126 -0.7236
   38MOL    C3118605   4.180   5.860   7.273 -0.4302  0.5074  0.5797
   38MOL    C3218606   4.177   5.707   7.306 -0.3582 -0.2741 -0.5401
   38MOL    C3318607   4.038   5.642   7.282 -0.0351 -0.3576  0.1626
   38MOL    C3418608   4.028   5.497   7.342  0.6179 -0.0215  0.4009
   38MOL    C3518609   3.885   5.436   7.320 -0.3682  0.0885 -0.1921
   38MOL    H3618610   4.397   6.326   7.244 -1.7942  0.0904  0.5569
   38MOL    H3718611   4.531   6.287   7.346 -0.9529 -0.8489  1.2623
   38MOL    H3818612   4.517   6.055   7.314  0.3553 -0.6487 -1.4595
   38MOL    H3918613   4.376   5.905   7.360  0.1137 -1.1035 -1.3180
   38MOL    H4018614   4.389   5.849   7.194 -0.1483 -1.2692  1.2125
   38MOL    H4118615   4.130   5.869   7.177 -2.2509  1.5916  1.5954
   38MOL    H4218616   4.133   5.916   7.354 -1.1301 -2.1553  2.0955
   38MOL    H4318617   4.252   5.647   7.255 -0.2967 -0.0358 -0.7310
   38MOL    H4418618   4.184   5.700   7.414 -1.9645 -0.0878 -0.4013
   38MOL    H4518619   3.959   5.708   7.317  2.8331  2.0898  2.2870
   38MOL    H4618620   4.029   5.629   7.174  3.0490  1.5613 -0.3685
   38MOL    H4718621   4.110   5.437   7.303 -1.7092 -1.6518 -2.1299
   38MOL    H4818622   4.035   5.506   7.450  0.4067  1.7383  0.2953
   38MOL    H4918623   3.807   5.503   7.356 -1.5077 -0.7578 -1.0290
   38MOL    H5018624   3.865   5.418   7.214  0.6871  0.0530 -0.3927
   38MOL    H5118625   3.889   5.340   7.371  3.6879  0.3014  0.0687
   38MOL    C5218626   4.508   6.113   7.108  0.3721  0.4196  0.5175
   38MOL    C5318627   4.657   6.147   7.112 -0.7511 -0.0199  0.0655
   38MOL    O5418628   4.728   6.029   7.149  0.3471  0.5222 -0.5390
   38MOL    C5518629   4.823   6.038   7.259  0.1695  0.7745 -0.3658
   38MOL    C5618630   4.860   5.892   7.305 -0.5436 -0.7006 -0.0913
   38MOL    C5718631   4.735   5.809   7.344 -0.3933  0.7952  0.3013
   38MOL    C5818632   4.766   5.667   7.411  0.6426 -0.9660 -0.4125
   38MOL    C5918633   4.847   5.569   7.324 -0.1647  0.0512 -0.8164
   38MOL    C6018634   4.869   5.437   7.405 -0.0441 -0.0803 -0.6759
   38MOL    H6118635   4.452   6.186   7.049  0.7769  0.3755  0.0794
   38MOL    H6218636   4.499   6.020   7.053 -1.2721  0.8608  0.0248
   38MOL    H6318637   4.677   6.230   7.179  0.8665 -0.2497 -0.1013
   38MOL    H6418638   4.788   6.101   7.341  2.0520  1.3990 -0.0045
   38MOL    H6518639   4.916   6.088   7.232  1.5332 -0.8207  1.2090
   38MOL    H6618640   4.917   5.894   7.398 -2.8982 -0.5579  1.3966
   38MOL    H6718641   4.911   5.840   7.224  0.5102  1.2704 -0.7262
   38MOL    H6818642   4.689   5.883   7.410  1.4303  2.2000  0.0276
   38MOL    H6918643   4.665   5.792   7.262  1.1655 -1.1025 -0.6601
   38MOL    H7018644   4.819   5.691   7.503 -1.7009 -0.9864  0.9835
   38MOL    H7118645   4.671   5.616   7.429  0.0776  0.3190  0.3940
   38MOL    H7218646   4.782   5.559   7.237  1.2957  0.1285 -1.9381
   38MOL    H7318647   4.943   5.615   7.299  0.3886  0.1454  1.3750
   38MOL    H7418648   4.772   5.393   7.426 -0.6135  0.9008 -1.2255
   38MOL    H7518649   4.921   5.361   7.346  1.0349  0.9229 -1.0339
   38MOL    H7618650   4.914   5.459   7.502 -1.2349  0.2042 -0.1774
   38MOL    C7718651   4.726   6.183   6.974  0.2132 -0.1429  0.4830
   38MOL    C7818652   4.663   6.312   6.907 -0.6902 -0.0721  0.8417
   38MOL    O7918653   4.705   6.321   6.773 -0.3293 -0.2089 -0.0372
   38MOL    C8018654   4.613   6.257   6.676 -0.0544  0.4489 -0.6464
   38MOL    C8118655   4.696   6.241   6.548 -0.5599 -0.1089  0.0361
   38MOL    C8218656   4.614   6.192   6.424 -0.8198  0.9336 -0.4550
   38MOL    C8318657   4.698   6.223   6.300 -0.0370  0.6114  0.1350
   38MOL    C8418658   4.630   6.167   6.176  0.3817 -0.5098  0.8290
   38MOL    C8518659   4.725   6.151   6.055  0.0116  0.7351  0.6521
   38MOL    H8618660   4.698   6.105   6.904  1.3666  0.4120 -0.6190
   38MOL    H8718661   4.834   6.182   6.989  0.5453  0.5801 -1.6739
   38MOL    H8818662   4.554   6.318   6.908 -0.5997  1.9970  0.2784
   38MOL    H8918663   4.529   6.324   6.656 -0.8791 -0.5766 -0.6473
   38MOL    H9018664   4.571   6.162   6.710 -1.6350  1.1317 -0.6182
   38MOL    H9118665   4.776   6.170   6.567 -0.8574 -1.3294 -2.9884
   38MOL    H9218666   4.741   6.338   6.528  0.3131 -0.7620 -1.2191
   38MOL    H9318667   4.576   6.091   6.437  2.9073 -0.3987  0.7251
   38MOL    H9418668   4.518   6.244   6.417 -0.9171  0.6730 -1.1235
   38MOL    H9518669   4.722   6.327   6.281  1.8970 -0.1689 -1.8259
   38MOL    H9618670   4.788   6.164   6.312 -0.7187  0.1386  3.3683
   38MOL    H9718671   4.600   6.067   6.209 -0.4006 -0.9657 -1.1547
   38MOL    H9818672   4.533   6.205   6.144  1.1513  0.8387  0.0329
   38MOL    H9918673   4.750   6.249   6.013  3.0987 -0.4795 -0.5012
   38MOL   H10018674   4.821   6.105   6.077 -1.1979 -1.4930  1.4800
   38MOL   H10118675   4.676   6.102   5.971  1.6527  1.7401 -0.9319
   38MOL   C10218676   4.714   6.433   6.983  0.6473 -0.3530  0.5153
   38MOL   C10318677   4.635   6.564   6.947  0.4020 -0.1615 -0.1446
   38MOL   O10418678   4.505   6.551   7.006  0.2075  0.6786  0.1296
   38MOL   C10518679   4.405   6.580   6.915 -0.3325 -0.6872 -0.2389
   38MOL   C10618680   4.271   6.586   6.993 -0.0940 -0.3808  0.5315
   38MOL   C10718681   4.159   6.645   6.906 -0.5030  0.4880  0.1093
   38MOL   C10818682   4.154   6.795   6.903 -0.1291 -0.0418 -0.3708
   38MOL   C10918683   4.026   6.845   6.837  0.1727 -0.6861 -0.0467
   38MOL   C11018684   3.893   6.844   6.916 -0.3471  0.1613 -0.0148
   38MOL   H11118685   4.700   6.426   7.091 -0.4987 -0.8531  0.3332
   38MOL   H11218686   4.822   6.433   6.967  0.6907 -0.2190  0.8029
   38MOL   H11318687   4.621   6.569   6.839 -0.1029 -1.8510 -0.1755
   38MOL   H11418688   4.407   6.520   6.824 -3.1006  1.6165 -1.8883
   38MOL   H11518689   4.424   6.680   6.875 -0.0725 -1.2551 -1.5780
   38MOL   H11618690   4.282   6.641   7.086 -0.0631  0.2841  0.1357
   38MOL   H11718691   4.234   6.484   7.010 -0.7577 -0.1187  0.6816
   38MOL   H11818692   4.175   6.615   6.802 -2.7826 -0.9776  0.1404
   38MOL   H11918693   4.064   6.597   6.930 -0.7553  1.3072  0.7627
   38MOL   H12018694   4.160   6.824   7.008 -1.4921  1.3376 -0.6573
   38MOL   H12118695   4.240   6.848   6.862  0.7461  0.3880  1.9005
   38MOL   H12218696   4.049   6.947   6.807  1.0551 -1.3060 -1.4972
   38MOL   H12318697   4.015   6.793   6.742 -0.0734  1.4036 -1.1783
   38MOL   H12418698   3.890   6.903   7.008 -1.9430  0.2786 -0.1324
   38MOL   H12518699   3.813   6.897   6.864  0.3870  0.1541 -1.1636
   38MOL   H12618700   3.855   6.750   6.954  0.1937 -0.3664 -0.7682
   38MOL   C12718701   4.691   6.694   6.996 -0.0828  0.3728  0.5261
   38MOL   C12818702   4.773   6.787   6.893  0.3432 -0.2115  0.1774
   38MOL   O12918703   4.676   6.812   6.788 -0.4439 -0.4786  0.4765
   38MOL   C13018704   4.593   6.927   6.808  0.5159 -0.2404  0.5358
   38MOL   C13118705   4.531   6.970   6.681  0.1628 -0.1156  1.5958
   38MOL   C13218706   4.428   7.080   6.681 -0.6715  0.3134  1.0046
   38MOL   C13318707   4.332   7.066   6.558 -0.2912 -0.1567 -0.3359
   38MOL   C13418708   4.392   7.104   6.421  0.2577  0.1730  0.4162
   38MOL   C13518709   4.465   7.244   6.418 -0.2715  0.0717 -0.2164
   38MOL   H13618710   4.608   6.749   7.039 -1.0270 -0.0414 -0.7445
   38MOL   H13718711   4.758   6.657   7.074 -0.4786 -2.7751 -0.5316
   38MOL   H13818712   4.801   6.880   6.944  2.8945 -1.1105  0.4586
   38MOL   H13918713   4.657   7.005   6.851 -0.0537  0.2432  0.5136
   38MOL   H14018714   4.517   6.899   6.881  0.1613 -0.6232  0.0138
   38MOL   H14118715   4.512   6.877   6.627  1.0001  0.3443  0.4989
   38MOL   H14218716   4.617   7.003   6.623 -0.0670  1.2205  2.0096
   38MOL   H14318717   4.369   7.062   6.772  0.9119  1.6386  2.3193
   38MOL   H14418718   4.482   7.174   6.693 -0.0020  0.3041 -1.5954
   38MOL   H14518719   4.286   6.967   6.559  0.7916 -0.6550  1.1360
   38MOL   H14618720   4.239   7.121   6.573 -0.1602  0.1337 -0.5756
   38MOL   H14718721   4.459   7.023   6.389  1.6810  1.0541  1.1063
   38MOL   H14818722   4.311   7.102   6.348  0.2109  2.2622  0.3862
   38MOL   H14918723   4.474   7.292   6.321  2.2933 -0.2084 -0.1397
   38MOL   H15018724   4.419   7.312   6.490 -0.7956  0.6358 -1.0739
   38MOL   H15118725   4.561   7.219   6.463 -0.7376 -3.7404 -1.1260
   38MOL   C15218726   4.893   6.715   6.826  0.2346 -0.3366 -0.5528
   38MOL   C15318727   5.022   6.708   6.906 -0.0418 -0.1499  0.0506
   38MOL   O15418728   5.002   6.629   7.020  0.0569  0.1298  0.1634
   38MOL   C15518729   5.067   6.665   7.146 -0.3516  0.4690  0.1529
   38MOL   C15618730   5.051   6.543   7.234  0.2673  0.4081  0.4535
   38MOL   C15718731   5.148   6.430   7.209 -0.6704  0.5357  0.1257
   38MOL   C15818732   5.120   6.318   7.307  0.2566  0.0752 -0.0334
   38MOL   C15918733   5.207   6.196   7.269 -0.1011 -0.2283  0.4333
   38MOL   C16018734   5.194   6.075   7.359  0.1809 -0.2209 -0.0813
   38MOL   H16118735   4.866   6.614   6.794 -0.8835 -0.4662  0.7153
   38MOL   H16218736   4.916   6.769   6.735 -2.1950 -0.3474 -1.2073
   38MOL   H16318737   5.054   6.809   6.933  2.4170 -0.9928  0.3786
   38MOL   H16418738   5.010   6.749   7.185 -1.0152 -0.2768  0.8078
   38MOL   H16518739   5.171   6.691   7.127 -0.8522  3.4369  1.1970
   38MOL   H16618740   4.953   6.498   7.217  0.8168  0.2734 -2.5457
   38MOL   H16718741   5.066   6.567   7.340  1.8808 -1.5186  0.6820
   38MOL   H16818742   5.128   6.389   7.110  0.5361 -2.8966  1.2267
   38MOL   H16918743   5.247   6.477   7.209  0.8428 -2.5169  0.5271
   38MOL   H17018744   5.138   6.357   7.407 -0.0674  2.2312 -0.7949
   38MOL   H17118745   5.018   6.284   7.289  1.0464 -3.3410  1.5712
   38MOL   H17218746   5.192   6.169   7.165 -1.5278  1.9064  0.0457
   38MOL   H17318747   5.312   6.226   7.267 -0.5567  1.5730  1.5702
   38MOL   H17418748   5.277   6.006   7.345  1.3114  0.8190  1.4778
   38MOL   H17518749   5.172   6.099   7.463 -1.8241  1.2347 -0.8131
   38MOL   H17618750   5.119   6.004   7.324 -1.3987  1.4848 -0.2475
   38MOL   C17718751   5.121   6.648   6.803  0.2199 -0.4470 -0.5600
   38MOL   C17818752   5.262   6.623   6.864 -0.2028  0.4370  0.3534
   38MOL   O17918753   5.335   6.545   6.771  0.0722 -0.1409 -0.1416
   38MOL   C18018754   5.316   6.402   6.798  0.3701  0.4811  0.9366
   38MOL   C18118755   5.417   6.343   6.892  0.1422 -0.6779 -0.2245
   38MOL   C18218756   5.400   6.196   6.916 -0.7944  1.1843 -0.2523
   38MOL   C18318757   5.526   6.136   6.992  0.2351  0.2852 -0.4730
   38MOL   C18418758   5.501   5.987   7.021 -0.3727 -0.0291  0.4587
   38MOL   C18518759   5.619   5.909   7.075 -0.1237 -0.3679  0.2400
   38MOL   H18618760   5.073   6.558   6.766 -1.5753  0.3627 -0.2594
   38MOL   H18718761   5.140   6.710   6.715  1.6015 -1.0543 -0.6977
   38MOL   H18818762   5.253   6.569   6.958 -0.6305  1.2520  0.7860
   38MOL   H18918763   5.324   6.349   6.703 -3.3961  1.4202  0.0169
   38MOL   H19018764   5.216   6.381   6.836  1.4091 -1.1651  2.8580
   38MOL   H19118765   5.425   6.396   6.987 -2.1199  0.4806 -0.6356
   38MOL   H19218766   5.511   6.368   6.843 -0.8149  2.0136 -0.7789
   38MOL   H19318767   5.306   6.178   6.969 -0.3499 -3.1253 -0.7949
   38MOL   H19418768   5.395   6.140   6.823 -2.0818  0.2421  0.3670
   38MOL   H19518769   5.617   6.152   6.934  0.7731  2.0505  0.8209
   38MOL   H19618770   5.541   6.196   7.082 -0.8481  0.4691 -0.4122
   38MOL   H19718771   5.402   5.975   7.065 -1.0513 -0.7841 -1.2347
   38MOL   H19818772   5.467   5.951   6.924 -0.7508 -1.5673  1.1477
   38MOL   H19918773   5.659   5.962   7.161  0.9383  0.2075 -0.5894
   38MOL   H20018774   5.602   5.805   7.105 -1.6502  0.2868  1.6963
   38MOL   H20118775   5.704   5.913   7.006 -1.5472  0.8086 -1.5006
   38MOL   C20218776   5.346   6.745   6.885  0.8778 -0.3284  0.2243
   38MOL   C20318777   5.488   6.726   6.958 -0.6228 -0.0434  0.1796
   38MOL   O20418778   5.466   6.687   7.089 -0.4138  0.1178 -0.4462
   38MOL   C20518779   5.576   6.632   7.160 -0.1887  0.6217 -0.2840
   38MOL   C20618780   5.526   6.561   7.293  0.2905 -0.0995  0.3500
   38MOL   C20718781   5.450   6.656   7.385  0.0136  0.2717  0.2435
   38MOL   C20818782   5.401   6.570   7.503  0.0681 -0.1721 -0.5148
   38MOL   C20918783   5.319   6.649   7.604  0.5734  0.0508  0.8400
   38MOL   C21018784   5.254   6.568   7.712 -0.5657  0.2786  0.7371
   38MOL   H21118785   5.366   6.786   6.786  2.7796  2.2534  1.6084
   38MOL   H21218786   5.277   6.813   6.935 -0.2791  0.3021 -2.1612
   38MOL   H21318787   5.546   6.648   6.909  1.1680 -0.9004  3.5127
   38MOL   H21418788   5.650   6.711   7.176 -0.6518  1.4468 -2.0285
   38MOL   H21518789   5.623   6.557   7.097  0.3643  0.2411  0.5753
   38MOL   H21618790   5.607   6.509   7.344  1.5667  3.1430  1.7023
   38MOL   H21718791   5.456   6.481   7.268  2.9323 -2.1355 -0.8109
   38MOL   H21818792   5.522   6.735   7.408 -0.0435  0.5275 -0.4475
   38MOL   H21918793   5.367   6.700   7.330 -1.5265 -1.5913  1.0021
   38MOL   H22018794   5.340   6.486   7.468  3.9599 -2.3683 -2.3679
   38MOL   H22118795   5.481   6.533   7.566  0.8114  2.1354 -0.0740
   38MOL   H22218796   5.380   6.719   7.661  0.4477  1.5194 -0.7919
   38MOL   H22318797   5.235   6.699   7.557  0.5681 -0.4873  0.2649
   38MOL   H22418798   5.336   6.531   7.773 -0.3426 -0.2325  0.1392
   38MOL   H22518799   5.186   6.629   7.771  0.4856  2.0099  0.1961
   38MOL   H22618800   5.184   6.492   7.680  0.8532 -0.2476 -1.2512
   38MOL   C22718801   5.570   6.858   6.955  0.0252  0.1979 -0.4987
   38MOL   C22818802   5.630   6.918   6.831 -0.1999  0.2174 -0.2182
   38MOL   O22918803   5.704   7.032   6.871  0.5330  0.3525  0.1259
   38MOL   C23018804   5.701   7.143   6.786  0.3989 -1.0756 -0.6924
   38MOL   C23118805   5.725   7.262   6.877 -0.4599 -0.1626 -0.0087
   38MOL   C23218806   5.864   7.264   6.927 -0.2274 -0.0914 -1.0335
   38MOL   C23318807   5.902   7.378   7.021  0.3788 -0.0632  0.0322
   38MOL   C23418808   6.036   7.363   7.089 -0.2063 -0.4112  0.0717
   38MOL   C23518809   6.072   7.468   7.198 -0.4913  0.5816 -0.0207
   38MOL   H23618810   5.528   6.936   7.019  2.4733 -0.1541  1.6220
   38MOL   H23718811   5.656   6.844   7.020 -0.3959  2.0999  0.4852
   38MOL   H23818812   5.552   6.955   6.765 -2.3865  1.5255  2.9518
   38MOL   H23918813   5.599   7.160   6.750  0.3981  1.4453  0.3590
   38MOL   H24018814   5.771   7.148   6.703  1.0619  0.4152 -0.0562
   38MOL   H24118815   5.662   7.269   6.966  0.4664  2.2908  0.5157
   38MOL   H24218816   5.720   7.353   6.818  0.8728  0.8864  1.4314
   38MOL   H24318817   5.881   7.172   6.984 -0.5723  0.4351 -0.0832
   38MOL   H24418818   5.936   7.255   6.844 -0.0809 -0.1128 -0.9047
   38MOL   H24518819   5.895   7.466   6.958  2.2389  0.5501  0.6590
   38MOL   H24618820   5.829   7.401   7.099  1.2381  0.0280  0.8176
   38MOL   H24718821   6.038   7.261   7.127  0.5172 -0.3700  0.1471
   38MOL   H24818822   6.116   7.362   7.015  0.9161 -3.0989  1.2463
   38MOL   H24918823   6.004   7.444   7.280 -2.0359 -0.2243 -1.5084
   38MOL   H25018824   6.169   7.467   7.247  0.2776 -0.6852 -1.5250
   38MOL   H25118825   6.045   7.570   7.173 -0.7458  0.5395  0.0765
   38MOL   C25218826   5.731   6.823   6.749 -0.1841 -0.8814 -0.6862
   38MOL   C25318827   5.669   6.739   6.633 -0.1015  0.0685 -0.3308
   38MOL   O25418828   5.737   6.621   6.601 -0.1485  0.9934  0.3451
   38MOL   C25518829   5.677   6.506   6.660  0.5508  0.1442 -0.2486
   38MOL   C25618830   5.761   6.378   6.615  0.6355 -0.2639 -0.5699
   38MOL   C25718831   5.684   6.248   6.625 -0.0924  0.7699  0.0094
   38MOL   C25818832   5.577   6.229   6.515 -0.3883 -0.2852 -0.1650
   38MOL   C25918833   5.489   6.104   6.544 -0.1087  0.6463 -0.0311
   38MOL   C26018834   5.546   5.975   6.609  0.5428 -0.3978 -0.1440
   38MOL   H26118835   5.811   6.885   6.708 -1.1589  1.9592  1.5632
   38MOL   H26218836   5.763   6.752   6.825 -0.1777  1.5841  1.6758
   38MOL   H26318837   5.563   6.727   6.653  0.3267 -1.3798  1.1725
   38MOL   H26418838   5.575   6.494   6.624  0.4608 -0.8176  0.3095
   38MOL   H26518839   5.671   6.515   6.768  2.3934 -2.0245  0.0537
   38MOL   H26618840   5.836   6.374   6.695 -0.3004  0.1542  0.3489
   38MOL   H26718841   5.811   6.404   6.522 -0.4257  2.3418 -0.4558
   38MOL   H26818842   5.759   6.169   6.631  0.0652  0.5982 -3.2340
   38MOL   H26918843   5.632   6.245   6.721  0.4211  0.8274  0.2934
   38MOL   H27018844   5.502   6.307   6.509 -1.7572 -1.6603 -1.1412
   38MOL   H27118845   5.619   6.206   6.417 -1.8494  1.9784 -1.3615
   38MOL   H27218846   5.400   6.129   6.602  1.4307 -0.5152  2.9553
   38MOL   H27318847   5.451   6.065   6.450 -1.9416  1.2570  0.4356
   38MOL   H27418848   5.550   5.980   6.718  0.5760  1.4641 -0.2045
   38MOL   H27518849   5.465   5.906   6.584 -0.5448  0.5721  0.6583
   38MOL   H27618850   5.646   5.955   6.570  0.6150 -0.7986  0.2449
   38MOL   C27718851   5.680   6.824   6.506 -0.0661 -0.8072 -0.3116
   38MOL   C27818852   5.624   6.759   6.381  0.5240  0.6152  0.2319
   38MOL   O27918853   5.479   6.770   6.395  0.3305  0.4841  0.2174
   38MOL   C28018854   5.407   6.653   6.408  0.3693 -0.0628 -0.2595
   38MOL   C28118855   5.260   6.688   6.409  0.2553 -0.2684 -0.8817
   38MOL   C28218856   5.158   6.579   6.425 -0.3088  0.4179  0.4348
   38MOL   C28318857   5.014   6.638   6.418 -0.3577  0.4899 -0.3969
   38MOL   C28418858   4.901   6.552   6.467 -0.1878  0.3035 -1.2320
   38MOL   C28518859   4.768   6.637   6.464 -0.1493 -0.4696  0.3811
   38MOL   H28618860   5.622   6.914   6.523 -0.0396 -0.8904  0.2173
   38MOL   H28718861   5.780   6.865   6.488  0.1548 -0.8516  0.7647
   38MOL   H28818862   5.659   6.656   6.375  0.8360  0.7752 -0.8063
   38MOL   H28918863   5.438   6.612   6.504  0.4332  0.6550  0.0315
   38MOL   H29018864   5.415   6.575   6.332  3.5742 -0.5673  0.5452
   38MOL   H29118865   5.249   6.735   6.311  0.9565 -1.9326 -1.7795
   38MOL   H29218866   5.247   6.769   6.481  0.7272  0.1629 -1.2716
   38MOL   H29318867   5.168   6.497   6.355  0.2869  0.8269  0.0387
   38MOL   H29418868   5.165   6.538   6.526  1.7226  0.9349  0.5127
   38MOL   H29518869   5.012   6.731   6.476 -2.7514 -0.1186  0.5306
   38MOL   H29618870   4.996   6.662   6.313 -0.9592  1.0296 -0.1773
   38MOL   H29718871   4.877   6.469   6.401 -0.7712  1.0879 -2.0065
   38MOL   H29818872   4.927   6.513   6.566 -1.5800  0.5377 -0.7601
   38MOL   H29918873   4.780   6.742   6.438 -0.5041 -0.7945 -1.0982
   38MOL   H30018874   4.692   6.591   6.401  0.1964 -1.4230  0.6322
   38MOL   H30118875   4.725   6.616   6.562 -1.2974 -0.5411 -0.1272
   38MOL   C30218876   5.655   6.845   6.251  0.5689 -0.1665  0.2213
   38MOL   C30318877   5.591   6.802   6.124 -0.0264 -0.5620  0.0365
   38MOL   O30418878   5.675   6.698   6.086  1.0629  0.5065  0.2476
   38MOL   C30518879   5.621   6.575   6.066 -0.4433  0.0543 -0.0561
   38MOL   C30618880   5.725   6.474   6.021 -0.9730  0.1491 -0.5379
   38MOL   C30718881   5.661   6.335   5.998  0.5284 -0.0791 -0.1230
   38MOL   C30818882   5.608   6.261   6.124 -1.1373  0.1640  0.8711
   38MOL   C30918883   5.567   6.118   6.089 -0.6057  0.6162 -0.0747
   38MOL   C31018884   5.477   6.097   5.973  0.3880  1.0368 -1.1216
   38MOL   H31118885   5.611   6.943   6.265 -1.4352 -0.8307 -1.1364
   38MOL   H31218886   5.760   6.861   6.229 -0.0478 -0.6755 -3.4621
   38MOL   H31318887   5.489   6.764   6.123 -0.2032 -0.0817 -0.5352
   38MOL   H31418888   5.552   6.595   5.983 -0.7707  1.6984  0.5924
   38MOL   H31518889   5.553   6.556   6.149 -0.8355  1.6591  0.0159
   38MOL   H31618890   5.808   6.478   6.093 -0.4790  1.8108 -1.1833
   38MOL   H31718891   5.784   6.508   5.936  4.2007 -0.6990  2.4978
   38MOL   H31818892   5.577   6.359   5.933  0.0121 -0.7736  0.2857
   38MOL   H31918893   5.733   6.267   5.954  0.3782  1.0455 -2.1631
   38MOL   H32018894   5.687   6.256   6.198  0.5745  2.2612 -0.7379
   38MOL   H32118895   5.517   6.306   6.163 -1.2624 -0.3603  1.1949
   38MOL   H32218896   5.653   6.054   6.066  0.0636  1.4331  0.1264
   38MOL   H32318897   5.521   6.082   6.181 -0.7797 -2.6382 -1.3453
   38MOL   H32418898   5.377   6.141   5.982  0.9295  1.9859  0.5500
   38MOL   H32518899   5.515   6.122   5.874  0.3554 -1.3636 -1.7874
   38MOL   H32618900   5.469   5.991   5.948  1.1264  0.8553 -0.5934
   38MOL   C32718901   5.603   6.914   6.025  0.5696 -0.2371  0.5991
   38MOL   C32818902   5.556   6.867   5.879 -0.2074  0.1441  0.4306
   38MOL   O32918903   5.520   6.996   5.820  0.0585 -0.7511 -0.3716
   38MOL   C33018904   5.382   7.035   5.840 -0.4308  0.0443 -0.1486
   38MOL   C33118905   5.368   7.186   5.817  0.2899 -0.1648  0.8286
   38MOL   C33218906   5.396   7.221   5.666  0.0473  0.0737 -0.1667
   38MOL   C33318907   5.369   7.369   5.623 -0.3802  0.6546  0.1905
   38MOL   C33418908   5.385   7.391   5.473  0.6413  0.8982 -0.3855
   38MOL   C33518909   5.528   7.409   5.435  0.2705  0.4469 -0.2708
   38MOL   H33618910   5.701   6.961   6.026  0.0952  0.8110 -0.6550
   38MOL   H33718911   5.532   6.982   6.071  0.3418 -0.1917  0.1835
   38MOL   H33818912   5.471   6.800   5.883 -0.4730  0.3545 -1.1378
   38MOL   H33918913   5.344   7.005   5.938 -1.0230 -1.4463 -0.8273
   38MOL   H34018914   5.324   6.982   5.765  0.4494  0.1185 -0.8947
   38MOL   H34118915   5.434   7.244   5.881  0.3880  1.9786 -1.1591
   38MOL   H34218916   5.266   7.211   5.848  0.5024  0.2938  1.1560
   38MOL   H34318917   5.498   7.206   5.633  0.3090  1.4214  0.0065
   38MOL   H34418918   5.334   7.148   5.614 -2.0690  1.6548  0.0597
   38MOL   H34518919   5.268   7.401   5.651  0.2508  0.1136  3.2792
   38MOL   H34618920   5.439   7.435   5.672 -0.0723 -0.0078  0.6508
   38MOL   H34718921   5.344   7.309   5.413  0.0255  1.3181 -0.5429
   38MOL   H34818922   5.327   7.475   5.437 -1.0053  0.0948  0.3235
   38MOL   H34918923   5.595   7.323   5.437 -0.0363  0.2253  0.9192
   38MOL   H35018924   5.537   7.440   5.331  1.6122 -0.0263 -0.3157
   38MOL   H35118925   5.577   7.491   5.487 -1.3622  1.4808 -0.3606
   38MOL   C35218926   5.666   6.804   5.787  0.3743 -0.2539 -0.2315
   38MOL   C35318927   5.607   6.729   5.673  0.1593  0.6669 -0.1050
   38MOL   O35418928   5.530   6.623   5.735  0.3927 -0.2086 -0.3477
   38MOL   C35518929   5.430   6.566   5.661  0.1834  0.1214  0.4162
   38MOL   C35618930   5.350   6.468   5.747  0.1009 -0.1566 -0.5515
   38MOL   C35718931   5.278   6.541   5.859 -0.2958 -0.1992 -0.6361
   38MOL   C35818932   5.171   6.458   5.937 -0.0262  0.5083 -0.6973
   38MOL   C35918933   5.108   6.513   6.063 -0.0445 -0.1438 -0.4677
   38MOL   C36018934   4.966   6.450   6.088  0.3312  0.0499  0.3200
   38MOL   H36118935   5.721   6.887   5.743  0.3574  0.4360  1.0297
   38MOL   H36218936   5.730   6.737   5.844 -2.8883 -1.9784  1.5675
   38MOL   H36318937   5.538   6.795   5.621 -2.8556 -0.8637  1.8156
   38MOL   H36418938   5.465   6.522   5.568 -0.8479  0.8921 -0.3623
   38MOL   H36518939   5.374   6.654   5.627  1.9335  0.3436 -2.0486
   38MOL   H36618940   5.418   6.391   5.785  0.6837  0.1302 -1.0063
   38MOL   H36718941   5.273   6.419   5.688 -1.9049  0.5627  1.4117
   38MOL   H36818942   5.359   6.572   5.925 -2.5262 -1.3117  2.7722
   38MOL   H36918943   5.226   6.633   5.830 -0.7846  0.4637  2.2131
   38MOL   H37018944   5.093   6.430   5.867  2.3554 -0.3905 -3.0795
   38MOL   H37118945   5.219   6.371   5.983 -0.5350  1.2136  1.2600
   38MOL   H37218946   5.165   6.498   6.154  0.2860 -1.6599 -0.9135
   38MOL   H37318947   5.094   6.620   6.048 -0.7555  0.0010  1.0980
   38MOL   H37418948   4.891   6.476   6.013  2.1298  0.4947 -1.3766
   38MOL   H37518949   4.982   6.342   6.096  3.8856  0.4923  0.0369
   38MOL   H37618950   4.938   6.486   6.187 -1.5088 -2.6821  0.8443
   38MOL   C37718951   5.715   6.655   5.593  0.3285 -0.1939 -0.6316
   38MOL   C37818952   5.814   6.747   5.514  0.3632  0.0514 -0.2981
   38MOL   O37918953   5.726   6.813   5.419 -0.2288  0.3722  0.0378
   38MOL   C38018954   5.780   6.934   5.366  0.1132 -0.9515  0.0583
   38MOL   C38118955   5.665   7.022   5.309 -0.5339  0.9255 -0.3098
   38MOL   C38218956   5.577   6.923   5.225  0.2328 -0.1876  0.6086
   38MOL   C38318957   5.459   7.005   5.163 -0.3977 -1.2227 -0.4664
   38MOL   C38418958   5.365   6.914   5.077 -0.1076 -0.3256  0.1588
   38MOL   C38518959   5.268   6.999   4.993  0.4406  0.2090  0.3480
   38MOL   H38618960   5.779   6.600   5.661  0.2634  2.4806  1.6734
   38MOL   H38718961   5.666   6.576   5.536  0.5211 -0.8390  0.0986
   38MOL   H38818962   5.870   6.814   5.579 -0.6981  0.9951 -0.3506
   38MOL   H38918963   5.851   6.911   5.286  1.2800  0.9226  0.5268
   38MOL   H39018964   5.842   6.984   5.440 -0.0863  0.2383 -0.5716
   38MOL   H39118965   5.707   7.106   5.255  1.3333  0.3295  0.1760
   38MOL   H39218966   5.613   7.064   5.395 -0.1692  1.5854 -0.4112
   38MOL   H39318967   5.637   6.879   5.146 -2.2423 -0.5424 -1.1195
   38MOL   H39418968   5.531   6.846   5.286 -2.4440  2.1491  1.6711
   38MOL   H39518969   5.402   7.074   5.226 -1.8200 -2.3381 -0.4949
   38MOL   H39618970   5.498   7.083   5.098  0.6954 -0.8280  0.6436
   38MOL   H39718971   5.433   6.860   5.012 -0.2186  1.4631 -1.4821
   38MOL   H39818972   5.306   6.836   5.127  1.8136 -1.2656  0.9930
   38MOL   H39918973   5.215   7.064   5.063  2.0387  0.6139  1.2290
   38MOL   H40018974   5.332   7.060   4.928  0.2994  1.2202  1.1444
   38MOL   H40118975   5.198   6.928   4.950  0.0949  0.0474  1.1663
   38MOL   C40218976   5.919   6.667   5.443 -0.2413 -0.1406  0.2483
   38MOL   C40318977   6.025   6.606   5.535 -0.0478  0.0703 -0.4531
   38MOL   O40418978   6.151   6.645   5.491  0.1611 -0.5554 -0.6933
   38MOL   C40518979   6.198   6.766   5.563  0.8233  0.2071  0.1414
   38MOL   C40618980   6.324   6.814   5.487 -0.1571  0.8557  0.2577
   38MOL   C40718981   6.306   6.815   5.333 -0.1944 -0.2360  0.4507
   38MOL   C40818982   6.413   6.890   5.254 -0.3721  0.3314 -0.2853
   38MOL   C40918983   6.397   6.905   5.105 -0.1713  0.4182 -0.1009
   38MOL   C41018984   6.509   6.977   5.037 -0.9600 -0.1275  0.6489
   38MOL   H41118985   5.971   6.724   5.365  0.2538 -0.7029  0.1613
   38MOL   H41218986   5.864   6.591   5.387  1.1214 -0.3967 -0.7708
   38MOL   H41318987   6.012   6.628   5.641 -0.0404  1.8662 -0.8213
   38MOL   H41418988   6.232   6.749   5.666 -1.6817  0.1864  1.0047
   38MOL   H41518989   6.117   6.839   5.558  0.0407 -0.6284  0.2875
   38MOL   H41618990   6.419   6.765   5.510 -0.9110 -1.0686 -0.6851
   38MOL   H41718991   6.348   6.916   5.518 -0.0716  0.0451  2.9765
   38MOL   H41818992   6.288   6.710   5.310  1.0105 -0.7982  1.9538
   38MOL   H41918993   6.208   6.855   5.305  0.8522  2.0786  0.0091
   38MOL   H42018994   6.422   6.994   5.285 -0.3112  0.4371 -0.6521
   38MOL   H42118995   6.516   6.855   5.264 -0.3010  1.0252  1.5001
   38MOL   H42218996   6.378   6.808   5.059  2.9657 -0.5082  0.4662
   38MOL   H42318997   6.311   6.968   5.082  0.1336  0.8768  0.0141
   38MOL   H42418998   6.532   7.077   5.074  1.3625 -0.9458  1.5332
   38MOL   H42518999   6.605   6.929   5.054 -0.4590  0.7921  0.4092
   38MOL   H42619000   6.497   6.985   4.929 -0.9115 -2.6670  0.4158
   38MOL   C42719001   6.013   6.452   5.539 -0.3459 -0.3707  0.1672
   38MOL   C42819002   6.112   6.376   5.632 -0.1371 -1.1012  0.1580
   38MOL   O42919003   6.091   6.408   5.772  0.2942  0.3149  0.0083
   38MOL   C43019004   6.209   6.400   5.851  0.6613 -0.0747 -0.7121
   38MOL   C43119005   6.176   6.379   6.002  0.1107  0.5162  0.3845
   38MOL   C43219006   6.101   6.248   6.031  0.5403 -0.0976 -0.3015
   38MOL   C43319007   6.070   6.236   6.178  0.1815 -0.4653  0.6193
   38MOL   C43419008   5.976   6.122   6.195 -0.1881  0.2726 -0.1889
   38MOL   C43519009   5.923   6.120   6.335  0.1665  0.6762 -0.9512
   38MOL   H43619010   5.916   6.421   5.577  0.3383 -0.6446  1.7505
   38MOL   H43719011   6.021   6.421   5.435  0.2049 -0.5624  0.2666
   38MOL   H43819012   6.210   6.413   5.602 -0.8962  1.5552  0.7904
   38MOL   H43919013   6.268   6.491   5.838  1.4541 -0.9016 -3.0773
   38MOL   H44019014   6.274   6.321   5.816  1.5192  0.0062  0.6462
   38MOL   H44119015   6.120   6.466   6.039  2.2815  1.7769  0.8104
   38MOL   H44219016   6.268   6.372   6.061 -0.7895  1.0204  1.8712
   38MOL   H44319017   6.009   6.256   5.973  0.3437 -2.1795 -0.3391
   38MOL   H44419018   6.158   6.164   5.991 -0.7647 -0.9484 -0.4073
   38MOL   H44519019   6.159   6.231   6.241 -0.2224 -0.4637  1.1967
   38MOL   H44619020   6.006   6.322   6.201 -1.0517 -0.5805 -2.1821
   38MOL   H44719021   5.887   6.125   6.131  0.9603 -1.3018 -1.9374
   38MOL   H44819022   6.031   6.029   6.178  0.3972  0.3562  1.1721
   38MOL   H44919023   6.013   6.124   6.397  1.2971  0.4291 -2.5210
   38MOL   H45019024   5.859   6.200   6.371  0.9642  1.4567 -1.2449
   38MOL   H45119025   5.872   6.024   6.347  0.4853  0.6202  0.0098
   38MOL   C45219026   6.090   6.224   5.598 -0.3002 -0.3937  0.1087
   38MOL   C45319027   5.966   6.150   5.658 -0.5560  0.3428 -0.8544
   38MOL   O45419028   5.992   6.013   5.680 -0.3526  0.2200 -0.7981
   38MOL   C45519029   6.000   5.964   5.818 -0.0848 -1.1556  0.2406
   38MOL   C45619030   5.959   5.817   5.810 -0.0873 -0.3331  0.1443
   38MOL   C45719031   6.067   5.727   5.746  0.0843  0.6221 -0.3036
   38MOL   C45819032   6.094   5.754   5.593  1.1809  0.1311 -0.0009
   38MOL   C45919033   6.187   5.645   5.547  0.0261  0.1778  0.0869
   38MOL   C46019034   6.197   5.639   5.393  0.2732  0.0774 -0.0171
   38MOL   H46119035   6.090   6.209   5.490  0.0656  2.4255 -0.3233
   38MOL   H46219036   6.183   6.174   5.626  0.0685 -1.0603 -2.1379
   38MOL   H46319037   5.944   6.194   5.755 -1.1498 -0.7033 -0.5123
   38MOL   H46419038   5.934   6.017   5.887  0.0935 -0.3878 -0.1684
   38MOL   H46519039   6.098   5.972   5.864  0.2639 -3.4256 -0.0829
   38MOL   H46619040   5.864   5.790   5.765  0.4515 -1.6233 -0.2297
   38MOL   H46719041   5.935   5.787   5.912 -2.0630  1.1914  0.1542
   38MOL   H46819042   6.160   5.740   5.802 -0.5053 -0.9232  1.0650
   38MOL   H46919043   6.044   5.625   5.775  2.8216  0.0681  0.0714
   38MOL   H47019044   6.002   5.738   5.536 -0.0659  1.1564  1.6464
   38MOL   H47119045   6.138   5.853   5.581  1.5196 -0.0017  0.1410
   38MOL   H47219046   6.283   5.638   5.598  0.5224 -1.5017 -1.0596
   38MOL   H47319047   6.137   5.552   5.574  0.9690  0.0892  1.5760
   38MOL   H47419048   6.099   5.664   5.352  0.0276  1.2123  1.2265
   38MOL   H47519049   6.266   5.708   5.343 -1.6733  1.2190 -1.1781
   38MOL   H47619050   6.215   5.541   5.347  0.9566  0.4480 -0.5521
   38MOL   C47719051   5.844   6.161   5.564 -0.2218  0.0598 -0.2121
   38MOL   C47819052   5.739   6.064   5.604 -0.1376 -0.1734  0.1693
   38MOL   O47919053   5.619   6.085   5.533  0.6370  0.1073  0.2610
   38MOL   C48019054   5.503   6.013   5.574  0.0702  0.1792 -0.0077
   38MOL   C48119055   5.383   6.116   5.587 -0.4514  0.9974  0.3090
   38MOL   C48219056   5.251   6.058   5.601 -0.0891  0.0783  0.1305
   38MOL   C48319057   5.135   6.163   5.581  0.3136  0.2337 -0.4521
   38MOL   C48419058   5.038   6.162   5.698  0.1591  0.1795  0.2160
   38MOL   C48519059   4.925   6.262   5.677 -0.0832 -0.4028  0.3344
   38MOL   H48619060   5.786   6.252   5.580 -0.9695 -0.2163 -1.2700
   38MOL   H48719061   5.873   6.145   5.460 -1.6827 -1.6729 -0.3773
   38MOL   H48819062   5.769   5.965   5.567  0.6722  0.5366 -1.1183
   38MOL   H48919063   5.511   5.959   5.669 -1.8095 -1.0629 -0.5289
   38MOL   H49019064   5.491   5.937   5.497 -2.0513 -0.2526  0.7115
   38MOL   H49119065   5.381   6.191   5.507  1.1150  0.5090 -0.2101
   38MOL   H49219066   5.407   6.177   5.674  0.4393 -0.7245  1.3014
   38MOL   H49319067   5.243   5.979   5.526 -0.2969  0.1171  0.1091
   38MOL   H49419068   5.227   6.007   5.694  1.2141 -0.5021  0.1499
   38MOL   H49519069   5.175   6.263   5.564  1.5031 -0.1570  0.0033
   38MOL   H49619070   5.074   6.145   5.492 -0.1373  0.6863 -0.2415
   38MOL   H49719071   4.999   6.063   5.721  0.8493 -0.1016  0.1771
   38MOL   H49819072   5.077   6.201   5.792 -1.3320  2.7822 -0.1985
   38MOL   H49919073   4.848   6.226   5.610  0.7789  0.2634 -1.0332
   38MOL   H50019074   4.873   6.277   5.772 -1.7562 -0.8437 -0.4996
   38MOL   H50119075   4.962   6.358   5.640  1.2942 -1.0850 -0.0670
   38MOL   H50219076   5.719   6.077   5.710  0.8970 -0.1732  0.3721
   39MOL     C119077   3.239   3.354   0.654  0.4255 -0.7109  0.2254
   39MOL     C219078   3.158   3.333   0.783  0.1631  0.2577  0.7231
   39MOL     O319079   3.131   3.462   0.837  0.9422  0.3458 -0.4578
   39MOL     C419080   3.012   3.477   0.913  0.0468  0.2831  0.8588
   39MOL     C519081   2.985   3.627   0.933 -0.6810  0.2613  0.4808
   39MOL     C619082   3.110   3.699   0.993  0.2977  0.1518 -0.3982
   39MOL     C719083   3.097   3.854   1.026 -0.0775 -0.2393 -0.1107
   39MOL     C819084   3.028   3.926   0.903  0.3504  0.2388 -0.0743
   39MOL     C919085   3.021   4.081   0.921 -0.1492  0.9161 -0.3630
   39MOL    H1019086   3.328   3.402   0.695 -0.0120  1.0005 -0.7687
   39MOL    H1119087   3.269   3.258   0.614  2.4444  0.5702 -1.4214
   39MOL    H1219088   3.064   3.286   0.752  0.0359  1.3476 -0.5673
   39MOL    H1319089   3.025   3.413   1.000 -0.0012 -1.7634 -0.5891
   39MOL    H1419090   2.927   3.430   0.863  0.1888  0.5058  0.3958
   39MOL    H1519091   2.898   3.648   0.996 -0.5970  1.9620  0.0382
   39MOL    H1619092   2.965   3.661   0.831 -0.9646 -1.1098  0.0630
   39MOL    H1719093   3.153   3.644   1.077  0.0269 -1.6536 -1.3964
   39MOL    H1819094   3.194   3.699   0.924  2.1482  0.3968  1.8212
   39MOL    H1919095   3.033   3.869   1.113 -1.1338  0.4367 -0.9782
   39MOL    H2019096   3.190   3.898   1.060  0.5811 -1.6196 -0.1053
   39MOL    H2119097   2.925   3.895   0.886  0.9317 -2.0779  0.4897
   39MOL    H2219098   3.077   3.912   0.807  1.3637  1.5021  0.2411
   39MOL    H2319099   2.973   4.090   1.019 -3.2280 -1.4630 -1.5605
   39MOL    H2419100   3.121   4.125   0.914  0.9269 -1.6034 -1.5027
   39MOL    H2519101   2.968   4.132   0.841 -0.7868 -1.8663 -1.7708
   39MOL    H2619102   3.193   3.424   0.584  2.8623 -0.5032 -1.2299
   39MOL    C2719103   3.224   3.253   0.894 -0.0875 -0.1385 -0.1479
   39MOL    C2819104   3.294   3.122   0.852  0.0654  0.1523 -0.0187
   39MOL    O2919105   3.366   3.059   0.959 -0.0161 -0.5315 -0.5955
   39MOL    C3019106   3.492   3.113   0.995  0.1475 -0.0898 -0.5894
   39MOL    C3119107   3.538   3.054   1.123 -0.2383  0.3691 -0.2148
   39MOL    C3219108   3.667   3.117   1.171 -1.0463 -0.7920 -0.4908
   39MOL    C3319109   3.705   3.066   1.314  0.7156  0.0820  0.2821
   39MOL    C3419110   3.832   3.137   1.356  0.8691  0.2463 -0.1588
   39MOL    C3519111   3.869   3.092   1.500 -0.4435 -0.0080  0.5952
   39MOL    H3619112   3.282   3.321   0.956 -0.6457 -0.3162  0.5688
   39MOL    H3719113   3.147   3.210   0.958 -1.7368  0.4880 -1.6601
   39MOL    H3819114   3.365   3.140   0.771  0.1204 -0.2947 -0.0703
   39MOL    H3919115   3.481   3.221   1.011 -0.6457 -0.4950  1.7593
   39MOL    H4019116   3.557   3.096   0.909 -2.0115  1.1435 -2.5430
   39MOL    H4119117   3.551   2.946   1.120  0.4630  0.4795 -1.6670
   39MOL    H4219118   3.460   3.074   1.196 -1.8250 -1.7957 -1.2724
   39MOL    H4319119   3.750   3.094   1.105 -1.3597  1.3826 -1.6706
   39MOL    H4419120   3.666   3.225   1.184  0.2410 -0.7134 -1.0069
   39MOL    H4519121   3.636   3.087   1.395 -0.4654  1.7568 -1.1378
   39MOL    H4619122   3.727   2.959   1.322 -1.5757 -0.3255  1.3189
   39MOL    H4719123   3.919   3.118   1.293  0.7373 -3.5502  0.7091
   39MOL    H4819124   3.822   3.246   1.357 -1.2464  0.1125 -2.2407
   39MOL    H4919125   3.785   3.119   1.563 -0.0947  0.1396  0.9977
   39MOL    H5019126   3.898   2.987   1.505 -1.4471 -0.2789  0.8621
   39MOL    H5119127   3.958   3.151   1.523  1.3155 -2.5957  0.6093
   39MOL    C5219128   3.197   3.009   0.807 -0.0137 -0.4265 -0.8369
   39MOL    C5319129   3.260   2.886   0.733 -0.0697  0.6213  0.0410
   39MOL    O5419130   3.172   2.772   0.752  0.3236 -0.3218  0.0327
   39MOL    C5519131   3.232   2.676   0.831 -0.6329  0.3723 -0.3726
   39MOL    C5619132   3.167   2.539   0.807 -0.2998 -0.6541 -0.2560
   39MOL    C5719133   3.027   2.540   0.877  0.4779 -0.0654  0.1217
   39MOL    C5819134   2.959   2.411   0.819 -0.5025  0.1032  0.3235
   39MOL    C5919135   2.828   2.369   0.888  0.3576  0.0308  0.2852
   39MOL    C6019136   2.724   2.480   0.892 -0.0759 -0.5556 -0.0124
   39MOL    H6119137   3.123   3.050   0.737 -0.2527 -1.5199 -1.2257
   39MOL    H6219138   3.142   2.975   0.894 -1.8455  1.7168 -1.1144
   39MOL    H6319139   3.361   2.870   0.771  0.0327  0.4178 -0.3127
   39MOL    H6419140   3.222   2.698   0.937 -0.1247 -1.0028 -0.0239
   39MOL    H6519141   3.334   2.652   0.800 -0.6539  0.1190 -0.2466
   39MOL    H6619142   3.227   2.464   0.860  0.8401  0.3765 -0.0675
   39MOL    H6719143   3.173   2.523   0.700 -0.2640  0.1113 -0.3704
   39MOL    H6819144   3.037   2.533   0.986  0.7130 -1.2628  0.0299
   39MOL    H6919145   2.982   2.638   0.861  0.6542  0.2646  1.5285
   39MOL    H7019146   2.934   2.420   0.713 -0.9142  0.8155  0.4722
   39MOL    H7119147   3.025   2.325   0.812  0.7898  1.1268 -0.3131
   39MOL    H7219148   2.788   2.286   0.831  0.4840  2.4531 -3.5014
   39MOL    H7319149   2.853   2.328   0.986  2.5491  0.6195 -0.0026
   39MOL    H7419150   2.684   2.505   0.794 -0.1317  1.2333  0.4468
   39MOL    H7519151   2.643   2.438   0.953  1.9830 -2.0672  1.7345
   39MOL    H7619152   2.751   2.570   0.947 -3.1282 -0.2824  1.1496
   39MOL    C7719153   3.274   2.909   0.579  0.7580  0.2784  0.1043
   39MOL    C7819154   3.363   2.809   0.498  0.7520 -0.2896 -0.2238
   39MOL    O7919155   3.490   2.871   0.486 -0.1608 -0.5815 -0.2700
   39MOL    C8019156   3.589   2.806   0.565 -0.2060 -0.0241  0.9054
   39MOL    C8119157   3.718   2.893   0.562 -0.8461  0.4886  0.2067
   39MOL    C8219158   3.705   3.021   0.653 -0.5321  0.1152 -0.8019
   39MOL    C8319159   3.816   3.122   0.639 -0.3032  0.4804  0.2598
   39MOL    C8419160   3.800   3.231   0.752 -0.2532  0.3717 -0.8327
   39MOL    C8519161   3.698   3.344   0.718  0.1397  0.7511  0.0232
   39MOL    H8619162   3.293   3.013   0.551 -0.4153  0.1528 -1.1746
   39MOL    H8719163   3.174   2.897   0.538  0.9635 -1.6315  0.1232
   39MOL    H8819164   3.361   2.715   0.554 -0.0004 -0.3102 -0.2900
   39MOL    H8919165   3.617   2.707   0.529  2.9803  0.8901  0.7189
   39MOL    H9019166   3.553   2.811   0.667  0.4253  1.6094  1.0683
   39MOL    H9119167   3.759   2.923   0.465  1.3789  2.9259  1.8177
   39MOL    H9219168   3.796   2.831   0.607  0.5427 -0.2415 -3.0669
   39MOL    H9319169   3.608   3.069   0.640 -0.1368  1.0932 -0.1724
   39MOL    H9419170   3.711   2.991   0.758  1.3136 -0.1340 -0.9552
   39MOL    H9519171   3.916   3.081   0.650 -0.8165 -1.4730 -1.8128
   39MOL    H9619172   3.810   3.158   0.536  2.1389  0.7229  0.1729
   39MOL    H9719173   3.780   3.194   0.853  1.0144  2.1571  0.1075
   39MOL    H9819174   3.898   3.278   0.762 -1.1126  1.9411  0.4810
   39MOL    H9919175   3.707   3.431   0.784 -0.4434 -0.2447  1.4321
   39MOL   H10019176   3.709   3.380   0.615  0.2338  0.9871  0.1146
   39MOL   H10119177   3.597   3.305   0.732 -0.1893  2.1191  1.6392
   39MOL   C10219178   3.301   2.777   0.360 -0.7138  0.5472 -0.5248
   39MOL   C10319179   3.354   2.647   0.289 -0.2781 -0.0094  0.4184
   39MOL   O10419180   3.269   2.621   0.172  0.4399 -0.4692 -0.0921
   39MOL   C10519181   3.165   2.536   0.192 -0.0294  0.3143 -0.8605
   39MOL   C10619182   3.068   2.534   0.074 -0.4602 -0.6851 -0.4746
   39MOL   C10719183   2.999   2.674   0.035  0.0320  0.1848  0.1162
   39MOL   C10819184   2.903   2.651   7.701 -0.1058  0.0746  0.0329
   39MOL   C10919185   2.813   2.781   7.696 -0.1607  0.4958 -0.3294
   39MOL   C11019186   2.880   2.890   7.607 -1.0111 -0.1963 -0.2917
   39MOL   H11119187   3.195   2.761   0.381 -0.6969  0.0734 -0.7861
   39MOL   H11219188   3.305   2.865   0.296  3.0024  0.3628 -0.6764
   39MOL   H11319189   3.342   2.568   0.363 -1.0287  0.9403  1.3207
   39MOL   H11419190   3.104   2.558   0.280  0.6218  1.6415 -0.7249
   39MOL   H11519191   3.195   2.433   0.212  1.5740  0.7655 -0.8957
   39MOL   H11619192   2.984   2.467   0.096 -0.1242 -0.9284  0.0870
   39MOL   H11719193   3.121   2.503   7.761 -0.0718  1.3518 -0.9635
   39MOL   H11819194   2.943   2.700   0.125 -1.2367  2.3221 -1.2295
   39MOL   H11919195   3.076   2.747   0.012  0.0464 -0.7672 -3.1323
   39MOL   H12019196   2.959   2.634   7.610 -0.6374 -3.1837  0.2346
   39MOL   H12119197   2.845   2.560   7.717 -1.9480  1.0722 -0.7800
   39MOL   H12219198   2.715   2.753   7.657 -0.1470  0.1403 -0.1073
   39MOL   H12319199   2.786   2.814   0.019  1.7778 -0.3627  0.4847
   39MOL   H12419200   2.832   2.987   7.596  1.0415  0.5969 -2.6729
   39MOL   H12519201   2.984   2.916   7.630 -0.4740 -1.0915 -1.6661
   39MOL   H12619202   2.884   2.850   7.506 -0.8990  0.7470 -0.6700
   39MOL   C12719203   3.500   2.644   0.240  0.2218  0.2794  0.8325
   39MOL   C12819204   3.539   2.522   0.154  0.5176  0.3542 -0.4633
   39MOL   O12919205   3.526   2.391   0.210 -0.0782  0.4311 -0.8545
   39MOL   C13019206   3.454   2.305   0.117 -0.2742 -0.0832 -0.0200
   39MOL   C13119207   3.393   2.194   0.201  0.2464 -0.3800  0.9242
   39MOL   C13219208   3.314   2.086   0.128 -0.2368 -0.1243 -0.2306
   39MOL   C13319209   3.274   1.973   0.218 -0.1992 -0.2332  0.5145
   39MOL   C13419210   3.181   1.874   0.155 -1.0715  0.2977 -0.3840
   39MOL   C13519211   3.037   1.881   0.213  0.4002  0.1495 -0.0792
   39MOL   H13619212   3.534   2.735   0.191  1.6075 -1.2161 -1.0249
   39MOL   H13719213   3.553   2.646   0.335 -0.3041  4.0879  1.1345
   39MOL   H13819214   3.486   2.527   0.059 -0.5729  0.2228  0.1361
   39MOL   H13919215   3.525   2.261   0.047 -1.8072 -1.9368 -0.4580
   39MOL   H14019216   3.385   2.368   0.062  1.9225  1.5826 -0.9124
   39MOL   H14119217   3.320   2.236   0.270  0.4310  1.4472  0.0371
   39MOL   H14219218   3.473   2.144   0.257  0.5606 -1.0130 -0.0854
   39MOL   H14319219   3.226   2.134   0.085  0.1293  2.0504  1.3853
   39MOL   H14419220   3.367   2.048   0.040 -1.4031 -2.0602 -0.1288
   39MOL   H14519221   3.362   1.918   0.250  1.1186  2.1106  1.0519
   39MOL   H14619222   3.229   2.003   0.313 -0.8435  1.5628 -0.3228
   39MOL   H14719223   3.175   1.881   0.046 -3.0129  1.4600 -0.2397
   39MOL   H14819224   3.211   1.777   0.193 -1.4136  0.4668  0.3322
   39MOL   H14919225   2.980   1.953   0.154  1.0106  0.4657 -0.2944
   39MOL   H15019226   2.995   1.784   0.187  1.2923 -0.0732 -0.7235
   39MOL   H15119227   3.028   1.911   0.317 -0.1542 -0.8484  0.1610
   39MOL   C15219228   3.687   2.539   0.112 -0.2166  0.1828 -0.5786
   39MOL   C15319229   3.738   2.495   7.750 -0.1598 -0.7848  0.3150
   39MOL   O15419230   3.692   2.593   7.651 -0.3550 -0.0423 -0.1188
   39MOL   C15519231   3.612   2.537   7.555  0.9293  0.4154 -0.3163
   39MOL   C15619232   3.543   2.647   7.464 -0.0629  0.8919  0.1338
   39MOL   C15719233   3.431   2.727   7.545 -0.5657 -0.3720 -0.4770
   39MOL   C15819234   3.340   2.790   7.449  0.2216 -0.6243  0.0067
   39MOL   C15919235   3.416   2.894   7.353  0.6939  0.3522  0.1369
   39MOL   C16019236   3.335   2.939   7.236 -0.1648 -0.0063  0.4041
   39MOL   H16119237   3.704   2.647   0.114  2.4139 -0.1911 -0.9259
   39MOL   H16219238   3.749   2.495   0.189 -2.0308 -1.8270 -0.2312
   39MOL   H16319239   3.706   2.395   7.720 -0.0639 -0.7508  0.1058
   39MOL   H16419240   3.532   2.472   7.592  0.8459  0.1483 -0.9495
   39MOL   H16519241   3.675   2.467   7.500  2.6241  0.5389  1.4330
   39MOL   H16619242   3.499   2.594   7.380  3.2666 -0.4110 -0.9024
   39MOL   H16719243   3.617   2.708   7.411 -1.0759 -0.7785 -3.3125
   39MOL   H16819244   3.365   2.676   7.615  0.9621 -2.2038 -0.3262
   39MOL   H16919245   3.480   2.809   7.596 -1.5420 -0.4744  0.6443
   39MOL   H17019246   3.294   2.719   7.381  1.8601 -1.2915 -0.4300
   39MOL   H17119247   3.271   2.845   7.513 -1.0695  0.1863 -2.0506
   39MOL   H17219248   3.449   2.985   7.404  1.4646  0.7666 -1.0753
   39MOL   H17319249   3.502   2.849   7.303  0.3250  0.4536 -0.5882
   39MOL   H17419250   3.292   2.851   7.188 -0.7559 -0.0496  1.0166
   39MOL   H17519251   3.250   3.002   7.260  0.6605  1.3921 -0.2781
   39MOL   H17619252   3.397   2.994   7.165 -3.3686 -0.4229 -2.8803
   39MOL   C17719253   3.897   2.494   7.736 -0.2759  0.9310  0.0523
   39MOL   C17819254   3.950   2.420   7.615 -0.1762  0.9480  0.4030
   39MOL   O17919255   4.029   2.508   7.533  0.4958 -0.4633 -0.2149
   39MOL   C18019256   3.966   2.583   7.423 -0.2738  0.1636 -0.3217
   39MOL   C18119257   3.942   2.494   7.300 -0.1485 -0.0017 -0.3595
   39MOL   C18219258   3.863   2.560   7.182 -0.4381  0.0037  0.9966
   39MOL   C18319259   3.859   2.461   7.062 -0.6391  0.2703  0.7999
   39MOL   C18419260   3.777   2.336   7.090  0.0325  0.1890  0.8100
   39MOL   C18519261   3.742   2.254   6.969  0.0138 -0.4903 -0.0801
   39MOL   H18619262   3.943   2.592   7.749  0.4263  0.7471 -0.9834
   39MOL   H18719263   3.923   2.435   0.047 -0.6006 -0.1673 -0.5729
   39MOL   H18819264   3.861   2.381   7.564  0.6141 -2.4473  1.4874
   39MOL   H18919265   4.031   2.666   7.393 -0.8321  1.2576  1.4270
   39MOL   H19019266   3.872   2.631   7.450  0.6400  1.5426  0.5045
   39MOL   H19119267   3.897   2.402   7.336 -1.1465  0.4539 -0.4406
   39MOL   H19219268   4.037   2.456   7.261 -0.4162 -0.7129 -0.3138
   39MOL   H19319269   3.763   2.593   7.210 -1.1348 -1.4288  0.2187
   39MOL   H19419270   3.932   2.642   7.160 -0.8914 -0.2244 -1.4189
   39MOL   H19519271   3.807   2.505   6.977 -0.2012  0.1908  0.4880
   39MOL   H19619272   3.959   2.442   7.023 -0.0703  2.0542  1.3267
   39MOL   H19719273   3.824   2.274   7.166 -1.3078 -2.0529 -0.1679
   39MOL   H19819274   3.686   2.380   7.132 -1.1152 -0.9194 -0.5005
   39MOL   H19919275   3.827   2.206   6.919  0.5867 -0.2047  0.6049
   39MOL   H20019276   3.665   2.185   7.003  0.8537 -0.7931  1.2800
   39MOL   H20119277   3.693   2.321   6.899  0.8999  0.8110  0.5196
   39MOL   C20219278   4.036   2.299   7.654 -0.0246  0.1083 -0.1805
   39MOL   C20319279   4.083   2.221   7.536  0.1121  0.5480 -0.1031
   39MOL   O20419280   3.982   2.121   7.511 -0.1075  1.0583 -0.6730
   39MOL   C20519281   3.981   2.077   7.376 -0.2698 -0.8143 -0.0282
   39MOL   C20619282   3.851   1.986   7.344  0.6169  0.2365 -0.2037
   39MOL   C20719283   3.730   2.053   7.398  0.3268  0.2854  0.5859
   39MOL   C20819284   3.610   1.967   7.355  0.1982 -0.5080  0.8603
   39MOL   C20919285   3.476   2.022   7.410 -0.6885 -0.0883  0.0705
   39MOL   C21019286   3.358   1.931   7.362  0.3461 -0.8828  0.0350
   39MOL   H21119287   4.122   2.338   7.707  0.9313  0.6324 -2.0740
   39MOL   H21219288   3.964   2.244   7.714 -0.0879 -0.5791 -0.8723
   39MOL   H21319289   4.100   2.286   7.449  0.7511  2.1495  1.1886
   39MOL   H21419290   4.070   2.015   7.361  1.3041  1.7941 -1.9694
   39MOL   H21519291   3.987   2.159   7.305  0.7229 -1.0115 -0.1819
   39MOL   H21619292   3.863   1.888   7.389 -0.5572 -0.9707 -2.4986
   39MOL   H21719293   3.840   1.977   7.236 -0.4612  1.4319 -0.2080
   39MOL   H21819294   3.731   2.073   7.505  0.2769 -1.2080  0.8722
   39MOL   H21919295   3.727   2.154   7.355  1.5705  1.0250  2.1616
   39MOL   H22019296   3.611   1.938   7.250  0.6858  1.8702  0.1845
   39MOL   H22119297   3.620   1.872   7.409 -1.0293 -0.4114  1.2597
   39MOL   H22219298   3.478   2.021   7.519  2.2403  0.6989  0.0810
   39MOL   H22319299   3.472   2.125   7.374  1.8273 -0.4346 -1.3359
   39MOL   H22419300   3.331   1.930   7.257  0.1975 -1.7189  0.0798
   39MOL   H22519301   3.382   1.825   7.376 -0.2842 -1.0135  0.1191
   39MOL   H22619302   3.270   1.949   7.423  0.3039 -0.5746 -0.1195
   39MOL   C22719303   4.219   2.152   7.566  0.0276 -0.2770 -0.1764
   39MOL   C22819304   4.346   2.235   7.530  0.0097  0.5209  0.4208
   39MOL   O22919305   4.363   2.354   7.610  0.6456 -0.1422  0.1142
   39MOL   C23019306   4.349   2.472   7.526 -0.2613 -0.4288 -0.1758
   39MOL   C23119307   4.331   2.598   7.617 -0.6449 -0.3026 -1.0950
   39MOL   C23219308   4.313   2.713   7.517  1.2696  0.6798 -0.2388
   39MOL   C23319309   4.233   2.832   7.572 -0.6467 -0.0136  0.1817
   39MOL   C23419310   4.298   2.881   7.704 -0.3515  0.4558  0.2079
   39MOL   C23519311   4.218   2.994   7.775 -0.0964  0.4169 -0.1364
   39MOL   H23619312   4.218   2.128   7.672  0.0722  1.9902  0.3711
   39MOL   H23719313   4.233   2.059   7.512  0.6642 -1.2541  1.6481
   39MOL   H23819314   4.339   2.257   7.423  1.7570 -1.0153 -0.0342
   39MOL   H23919315   4.273   2.463   7.449  0.9678 -0.6420 -1.3712
   39MOL   H24019316   4.449   2.480   7.484 -0.3713  1.5272 -0.1064
   39MOL   H24119317   4.421   2.602   7.679 -0.2832  1.1446 -1.6907
   39MOL   H24219318   4.246   2.587   7.684  0.5559  0.3174  0.5669
   39MOL   H24319319   4.408   2.750   7.479  2.0389  1.1576  2.0541
   39MOL   H24419320   4.262   2.678   7.427 -0.0288 -0.1410  0.7991
   39MOL   H24519321   4.216   2.913   7.502  0.1755  2.0704  2.3215
   39MOL   H24619322   4.132   2.802   7.600 -0.1500  0.9039  3.1193
   39MOL   H24719323   4.304   2.792   7.766 -0.9548  1.6076  1.9773
   39MOL   H24819324   4.402   2.909   7.686  0.4749 -1.6704  1.4852
   39MOL   H24919325   4.120   2.948   0.010 -1.2588  3.0796  0.8216
   39MOL   H25019326   4.253   2.999   0.101 -1.2293 -2.2103  0.4149
   39MOL   H25119327   4.220   3.087   7.719  1.7067  1.5314  1.7132
   39MOL   C25219328   4.477   2.152   7.547  0.5324 -0.5876 -0.6536
   39MOL   C25319329   4.611   2.222   7.502  0.1131 -0.4545  0.6004
   39MOL   O25419330   4.607   2.242   7.362  0.1409 -0.4817  0.3884
   39MOL   C25519331   4.679   2.354   7.314 -0.3390 -0.0772 -0.5755
   39MOL   C25619332   4.807   2.300   7.241 -0.3222 -0.2968 -0.3877
   39MOL   C25719333   4.911   2.409   7.218  0.0957 -0.2977  0.8705
   39MOL   C25819334   5.002   2.434   7.343 -0.3937 -0.3391  0.9736
   39MOL   C25919335   5.072   2.569   7.314  0.6164  0.2737 -0.0951
   39MOL   C26019336   5.163   2.605   7.423  0.7491  0.1135 -0.4097
   39MOL   H26119337   4.487   2.117   7.649  3.1677 -0.2361 -0.7573
   39MOL   H26219338   4.470   2.069   7.476  2.1759 -1.6908  0.4577
   39MOL   H26319339   4.631   2.313   7.559  1.1493 -0.3773  0.1272
   39MOL   H26419340   4.700   2.427   7.393  3.3771 -2.5119  0.8520
   39MOL   H26519341   4.608   2.408   7.252 -0.4818 -0.3354 -0.6346
   39MOL   H26619342   4.770   2.254   7.149 -2.4699 -1.0240  0.8028
   39MOL   H26719343   4.844   2.211   7.292 -0.2068  0.2061  0.4180
   39MOL   H26819344   4.982   2.390   7.137 -0.0695  1.3772  0.3117
   39MOL   H26919345   4.854   2.492   7.176 -1.3013 -1.8514 -0.3992
   39MOL   H27019346   4.943   2.441   7.434 -0.4635  0.5665  0.8562
   39MOL   H27119347   5.083   2.362   7.357  1.1016  1.3847  1.2955
   39MOL   H27219348   5.120   2.552   7.217  0.5064 -0.5962  0.0042
   39MOL   H27319349   5.005   2.650   7.284 -0.0925  0.1909  1.2403
   39MOL   H27419350   5.215   2.697   7.395 -0.2977  0.3108 -1.7632
   39MOL   H27519351   5.112   2.636   7.514 -0.8538  3.5167 -2.3324
   39MOL   H27619352   5.227   2.518   7.431 -0.0757 -0.4183  0.5208
   39MOL   C27719353   4.735   2.141   7.541 -0.0817  0.1069 -0.1628
   39MOL   C27819354   4.786   2.148   7.687  0.2626 -0.0875 -0.6078
   39MOL   O27919355   4.701   2.077   7.777  0.2106  0.1179 -0.2976
   39MOL   C28019356   4.675   2.132   0.131  0.5881 -0.1760 -0.4416
   39MOL   C28119357   4.565   2.044   0.188 -0.0067 -0.3013  0.4597
   39MOL   C28219358   4.606   1.899   0.217  0.4335 -0.4833  0.6078
   39MOL   C28319359   4.689   1.887   0.345  0.2973  0.7572 -0.0812
   39MOL   C28419360   4.691   1.748   0.409  0.3173  0.1052 -0.1170
   39MOL   C28519361   4.747   1.639   0.322  0.0403  0.0819  0.8172
   39MOL   H28619362   4.710   2.039   7.514 -1.5236  0.5119 -0.3622
   39MOL   H28719363   4.821   2.166   7.479  0.8941 -0.0742  1.0926
   39MOL   H28819364   4.792   2.253   7.716  0.6672  0.4018 -2.3980
   39MOL   H28919365   4.641   2.235   0.121  0.4232 -0.2933 -1.1634
   39MOL   H29019366   4.763   2.137   0.195  0.3146 -3.3755  0.3033
   39MOL   H29119367   4.481   2.054   0.119  0.9399 -0.4054 -0.7369
   39MOL   H29219368   4.535   2.080   0.286 -1.2730 -0.7834  0.2567
   39MOL   H29319369   4.515   1.840   0.225 -0.5007  0.8059 -0.2384
   39MOL   H29419370   4.649   1.851   0.129 -0.2803 -1.4598  0.7870
   39MOL   H29519371   4.790   1.921   0.323  1.5396 -1.1811  2.4087
   39MOL   H29619372   4.651   1.955   0.420  0.3637  0.0185  0.6264
   39MOL   H29719373   4.755   1.760   0.497  0.0166  0.1330  0.1008
   39MOL   H29819374   4.597   1.712   0.451  0.2232 -0.0689 -0.4829
   39MOL   H29919375   4.767   1.550   0.382  0.4136 -0.4431 -0.0727
   39MOL   H30019376   4.671   1.606   0.251  0.2540 -0.5328  0.8675
   39MOL   H30119377   4.836   1.668   0.266  1.1459  0.1923  2.5698
   39MOL   C30219378   4.921   2.078   7.707 -0.4347  1.0063  0.2314
   39MOL   C30319379   5.039   2.161   7.661  0.2935 -0.9360  0.1475
   39MOL   O30419380   5.149   2.078   7.643 -0.2324 -0.4252  0.1419
   39MOL   C30519381   5.171   2.017   7.516  0.5470 -0.1130  0.6511
   39MOL   C30619382   5.259   1.897   7.521 -0.2443 -0.4453  0.5585
   39MOL   C30719383   5.401   1.934   7.576 -0.4760  0.5142 -0.8012
   39MOL   C30819384   5.521   1.845   7.553 -0.2976  0.3899  0.3595
   39MOL   C30919385   5.662   1.915   7.563  0.1801  0.0087 -0.7569
   39MOL   C31019386   5.706   1.975   7.700 -0.5364  0.4660 -0.0748
   39MOL   H31119387   4.939   2.041   0.031  0.0462  0.0415 -0.2100
   39MOL   H31219388   4.915   1.991   7.642 -3.0116  1.2498  0.0770
   39MOL   H31319389   5.010   2.229   7.581 -1.0445 -0.5088  0.9835
   39MOL   H31419390   5.203   2.094   7.446  0.3080  1.7997  2.5777
   39MOL   H31519391   5.078   1.972   7.481 -1.2334  2.3568  1.9794
   39MOL   H31619392   5.274   1.858   7.421  0.5926 -2.2722  1.3647
   39MOL   H31719393   5.207   1.825   7.584  2.2606 -1.1346  1.9040
   39MOL   H31819394   5.427   2.028   7.527  0.8044  0.3202 -0.5006
   39MOL   H31919395   5.399   1.955   7.683  0.8519  0.8215 -0.8223
   39MOL   H32019396   5.516   1.769   7.631  1.0629  2.0902  2.1408
   39MOL   H32119397   5.520   1.782   7.465 -0.7683  0.9862 -0.0671
   39MOL   H32219398   5.737   1.836   7.555  0.5169  0.3004 -0.5139
   39MOL   H32319399   5.686   1.983   7.481 -2.2388  0.9088 -0.7473
   39MOL   H32419400   5.638   2.052   7.737 -0.6059  0.1141  0.5237
   39MOL   H32519401   5.716   1.903   0.003  0.7898 -0.0598 -0.6927
   39MOL   H32619402   5.805   2.018   7.684 -0.7294 -0.0350 -2.9328
   39MOL   C32719403   5.096   2.245   0.004 -0.3563 -0.2973 -0.7633
   39MOL   C32819404   5.196   2.360   7.754  0.0396 -0.4825 -0.2024
   39MOL   O32919405   5.245   2.397   0.102  0.2104  0.5032 -0.1689
   39MOL   C33019406   5.202   2.529   0.137  0.0810  0.1986 -0.1089
   39MOL   C33119407   5.254   2.566   0.282  0.1748 -0.2594  0.6650
   39MOL   C33219408   5.182   2.685   0.340 -0.0936 -0.7925  0.0282
   39MOL   C33319409   5.230   2.731   0.479  0.5573  0.0502 -0.1577
   39MOL   C33419410   5.175   2.873   0.512 -0.5959 -0.1989 -0.6190
   39MOL   C33519411   5.224   2.985   0.429  0.8305  0.4568 -0.0348
   39MOL   H33619412   5.109   2.179   0.089 -1.2070 -1.4110 -1.4727
   39MOL   H33719413   5.006   2.296   0.037  1.0924  0.5496  2.0043
   39MOL   H33819414   5.147   2.444   7.704 -0.6982 -0.5061  0.4637
   39MOL   H33919415   5.094   2.525   0.128  0.0398  0.5933  0.1784
   39MOL   H34019416   5.243   2.592   0.058 -1.1076  1.5693  0.3465
   39MOL   H34119417   5.361   2.586   0.286  0.1195  0.4343 -0.9977
   39MOL   H34219418   5.233   2.476   0.341 -0.2818  0.3684  1.4794
   39MOL   H34319419   5.209   2.761   0.266  0.7129 -1.1909 -0.0901
   39MOL   H34419420   5.077   2.657   0.344 -0.3541  0.2930  1.5033
   39MOL   H34519421   5.188   2.661   0.551 -0.5620 -0.7748 -1.5824
   39MOL   H34619422   5.339   2.725   0.484  0.6177  1.0537 -0.1331
   39MOL   H34719423   5.066   2.871   0.516 -0.5536 -1.7638  0.4220
   39MOL   H34819424   5.205   2.888   0.616 -0.3292 -0.8968 -0.5881
   39MOL   H34919425   5.332   3.000   0.432  1.1779 -1.8766 -0.2633
   39MOL   H35019426   5.199   2.996   0.323 -1.1487 -0.3655  0.3172
   39MOL   H35119427   5.192   3.082   0.466 -0.6926  0.2813 -0.8306
   39MOL   C35219428   5.321   2.322   7.665 -0.1731 -0.7050 -0.3694
   39MOL   C35319429   5.414   2.437   7.642 -0.7787 -0.2881  0.2196
   39MOL   O35419430   5.465   2.432   7.504  0.1242  0.3659 -0.3020
   39MOL   C35519431   5.538   2.313   7.463 -0.2775 -0.6414  0.3605
   39MOL   C35619432   5.639   2.378   7.373 -0.1075 -0.2985  0.0996
   39MOL   C35719433   5.748   2.277   7.322 -0.3996 -0.4739 -0.9172
   39MOL   C35819434   5.832   2.323   7.206  0.3646 -0.4337  0.6958
   39MOL   C35919435   5.815   2.236   7.076  0.1585  0.4037  0.5195
   39MOL   C36019436   5.864   2.300   6.949  0.2129  0.1314  0.0928
   39MOL   H36119437   5.375   2.241   7.714  1.7174  0.5262 -0.3714
   39MOL   H36219438   5.280   2.289   7.570  1.3088 -1.2033 -0.8361
   39MOL   H36319439   5.347   2.523   7.631  0.6768  0.5501 -2.9036
   39MOL   H36419440   5.484   2.235   7.408 -1.1499 -1.2544  2.0479
   39MOL   H36519441   5.586   2.273   7.552 -0.7919 -0.4563  0.7211
   39MOL   H36619442   5.691   2.462   7.420  1.6077 -1.9038  1.1242
   39MOL   H36719443   5.591   2.428   7.289 -0.6394  0.8576  1.0781
   39MOL   H36819444   5.822   2.259   7.400 -1.4487  0.8569  0.4259
   39MOL   H36919445   5.691   2.192   7.288 -1.3131 -1.2391  2.3400
   39MOL   H37019446   5.800   2.425   7.189  0.3257 -0.5732 -0.0877
   39MOL   H37119447   5.937   2.309   7.233  0.7136 -2.5903 -1.5582
   39MOL   H37219448   5.870   2.142   7.084  0.1360  0.4991  1.9944
   39MOL   H37319449   5.711   2.208   7.058 -0.6202  3.4853 -0.0565
   39MOL   H37419450   5.851   2.235   6.863  1.2240 -0.4212  0.3493
   39MOL   H37519451   5.810   2.392   6.927  0.4433  0.2203 -0.0991
   39MOL   H37619452   5.969   2.326   6.961  0.0591  0.9284 -0.2031
   39MOL   C37719453   5.522   2.459   7.749  0.4410  0.1547 -0.5433
   39MOL   C37819454   5.635   2.555   7.720 -0.4824  0.1192 -0.0658
   39MOL   O37919455   5.727   2.545   0.052  0.1764 -0.2743  0.1731
   39MOL   C38019456   5.831   2.457   0.025  0.8450  0.1321 -0.1535
   39MOL   C38119457   5.916   2.430   0.151  0.3384  0.0853  0.2052
   39MOL   C38219458   6.039   2.344   0.113  0.7024  0.2647  0.1473
   39MOL   C38319459   6.146   2.353   0.222  0.0750  0.9662 -0.0479
   39MOL   C38419460   6.269   2.264   0.198  0.1658  0.5208  0.1422
   39MOL   C38519461   6.385   2.277   0.296 -0.2582  0.7348  0.1476
   39MOL   H38619462   5.480   2.492   0.067  2.1170 -1.7547  0.9155
   39MOL   H38719463   5.559   2.358   7.765 -0.0978  0.1531  0.8268
   39MOL   H38819464   5.690   2.532   7.629  0.6585  0.6986  0.4570
   39MOL   H38919465   5.893   2.495   7.721 -1.8325  0.4362 -2.1217
   39MOL   H39019466   5.790   2.361   7.771 -0.3056  0.0506  1.5220
   39MOL   H39119467   5.855   2.380   0.225  0.5136 -0.7966 -0.2371
   39MOL   H39219468   5.962   2.520   0.194  0.8523  0.4782 -1.1252
   39MOL   H39319469   5.998   2.243   0.110  0.9102  0.1985 -0.4295
   39MOL   H39419470   6.079   2.368   0.015 -0.8229 -0.8143 -0.7629
   39MOL   H39519471   6.169   2.456   0.251  0.8914  0.2349  2.0403
   39MOL   H39619472   6.111   2.314   0.318  0.2699  0.7041 -0.0851
   39MOL   H39719473   6.236   2.160   0.206 -1.4832  1.1050  1.2334
   39MOL   H39819474   6.294   2.274   0.092 -0.4980 -1.2394 -0.1999
   39MOL   H39919475   6.460   2.201   0.276 -2.7982 -1.9475  0.4638
   39MOL   H40019476   6.435   2.373   0.288 -2.2830  1.8106  0.0691
   39MOL   H40119477   6.353   2.261   0.399 -2.6649  1.3517 -0.4650
   39MOL   C40219478   5.587   2.700   7.714 -0.2598  0.0187  0.2816
   39MOL   C40319479   5.687   2.803   7.658  0.5095 -0.4999  1.1384
   39MOL   O40419480   5.721   2.775   7.522 -0.4171  0.0394  0.1464
   39MOL   C40519481   5.636   2.846   7.430 -0.2358  0.3567 -0.5088
   39MOL   C40619482   5.695   2.827   7.297 -0.7585 -0.0221 -0.3081
   39MOL   C40719483   5.596   2.874   7.189 -0.8893  0.2110  0.3218
   39MOL   C40819484   5.640   2.865   7.047 -0.6638 -0.2959 -0.6764
   39MOL   C40919485   5.555   2.947   6.950  0.9273 -0.3990  0.6600
   39MOL   C41019486   5.558   2.909   6.803  0.6977 -0.5493  0.4309
   39MOL   H41119487   5.549   2.734   0.033 -0.4853 -1.6057  0.7744
   39MOL   H41219488   5.500   2.704   7.649  0.0933  2.8785 -0.0775
   39MOL   H41319489   5.637   2.900   7.655  1.8997  0.1900 -0.3985
   39MOL   H41419490   5.641   2.955   7.437 -0.9460  0.5040 -1.9303
   39MOL   H41519491   5.532   2.811   7.429 -0.1595 -0.2567  4.1712
   39MOL   H41619492   5.748   2.733   7.283  2.3231  1.3101  2.0291
   39MOL   H41719493   5.771   2.902   7.277 -0.7509 -0.3719 -1.6862
   39MOL   H41819494   5.508   2.809   7.186  1.2643 -2.7957 -0.0155
   39MOL   H41919495   5.566   2.974   7.220  1.9439  0.7692  1.3519
   39MOL   H42019496   5.738   2.914   7.050 -0.8414 -0.0011  3.3913
   39MOL   H42119497   5.651   2.761   7.016  0.0790 -0.9143  1.5668
   39MOL   H42219498   5.452   2.937   6.984 -0.4259  0.9185 -2.8079
   39MOL   H42319499   5.583   3.049   6.978 -1.6752  1.0463 -1.7452
   39MOL   H42419500   5.526   2.996   6.745 -0.9847  0.6095  3.0353
   39MOL   H42519501   5.647   2.861   6.761  0.1861 -1.0296 -0.1194
   39MOL   H42619502   5.480   2.833   6.796 -0.8490  0.8734  2.0176
   39MOL   C42719503   5.822   2.820   7.737  0.3519 -0.1077  0.2058
   39MOL   C42819504   5.909   2.928   7.688  0.1532  0.0308 -0.0215
   39MOL   O42919505   5.860   3.047   7.745  0.0275  0.5355 -0.5336
   39MOL   C43019506   5.866   3.162   7.666  0.2244  0.3205  0.2195
   39MOL   C43119507   5.793   3.276   7.734  0.3614 -0.4715  0.3793
   39MOL   C43219508   5.800   3.412   7.653  0.3146  0.4608 -0.3382
   39MOL   C43319509   5.798   3.532   7.747 -0.2176  0.9471 -1.1457
   39MOL   C43419510   5.725   3.659   7.694  0.4322 -0.0613 -0.1616
   39MOL   C43519511   5.796   3.716   7.570  0.2227  0.3042  0.2810
   39MOL   H43619512   5.796   2.821   0.066  1.3244 -0.7419  0.4587
   39MOL   H43719513   5.865   2.721   7.721  3.4934  1.1974  0.1650
   39MOL   H43819514   5.908   2.921   7.579 -1.1743 -0.8551  0.0286
   39MOL   H43919515   5.808   3.139   7.577 -1.2072 -0.4971  1.3566
   39MOL   H44019516   5.968   3.198   7.652  1.4940 -1.8683  3.4182
   39MOL   H44119517   5.834   3.286   0.057 -1.0910 -0.8681  1.0225
   39MOL   H44219518   5.690   3.244   7.749 -0.5221  2.6325  1.3510
   39MOL   H44319519   5.884   3.413   7.584 -0.1594  0.1688 -0.9170
   39MOL   H44419520   5.714   3.411   7.587  0.1685 -1.8250 -0.1772
   39MOL   H44519521   5.740   3.494   0.054 -1.2260  0.1626 -2.1873
   39MOL   H44619522   5.903   3.552   7.768 -0.3384 -1.1627  1.7138
   39MOL   H44719523   5.619   3.643   7.674  0.4937  0.4374 -0.9278
   39MOL   H44819524   5.726   3.740   7.767 -1.7938  0.7252 -0.9674
   39MOL   H44919525   5.900   3.737   7.594  0.3349  1.3115 -1.0276
   39MOL   H45019526   5.797   3.647   7.486  1.9698  0.0292  0.5196
   39MOL   H45119527   5.733   3.798   7.534 -0.5848 -0.4950 -0.1563
   39MOL   C45219528   6.066   2.909   7.719  0.0688 -0.0920 -0.5618
   39MOL   C45319529   6.155   2.845   7.610  0.1821  0.1234 -0.1791
   39MOL   O45419530   6.095   2.721   7.562 -0.3441 -0.9945 -0.0392
   39MOL   C45519531   6.104   2.705   7.420  0.3162 -0.0172 -0.0389
   39MOL   C45619532   6.081   2.555   7.384  0.3210 -0.4050 -0.4494
   39MOL   C45719533   6.203   2.471   7.406  0.0490 -0.2472 -0.2537
   39MOL   C45819534   6.190   2.324   7.385 -0.7841 -0.4390 -0.1883
   39MOL   C45919535   6.325   2.266   7.427  0.4243 -0.5159  0.4035
   39MOL   C46019536   6.312   2.115   7.414  0.2041 -0.5491  0.0659
   39MOL   H46119537   6.104   3.007   7.745 -0.3381 -0.0861  0.0343
   39MOL   H46219538   6.076   2.847   0.031 -2.7103 -0.2644 -0.3152
   39MOL   H46319539   6.154   2.917   7.527  0.8970 -0.0083 -0.3100
   39MOL   H46419540   6.200   2.741   7.382  0.4197 -0.5379 -0.2736
   39MOL   H46519541   6.035   2.773   7.372  1.0717 -1.1888 -2.8663
   39MOL   H46619542   6.060   2.565   7.277 -2.7500  0.2505  0.1744
   39MOL   H46719543   5.989   2.511   7.422  0.7212 -2.6506 -1.9511
   39MOL   H46819544   6.289   2.512   7.353  1.3061 -1.4851  0.7523
   39MOL   H46919545   6.225   2.483   7.512 -0.6832 -0.7831 -0.0353
   39MOL   H47019546   6.103   2.279   7.433 -0.0493 -2.6167 -0.8506
   39MOL   H47119547   6.193   2.312   7.277 -2.1919 -0.0659 -0.2691
   39MOL   H47219548   6.409   2.302   7.367 -1.9715  1.4421 -1.8764
   39MOL   H47319549   6.341   2.287   7.533 -0.5090  0.5277  0.3428
   39MOL   H47419550   6.258   2.062   7.493 -0.4290 -0.1602 -0.1039
   39MOL   H47519551   6.251   2.085   7.330 -0.1330  1.7492 -0.5554
   39MOL   H47619552   6.406   2.059   7.412  0.9511  0.6930 -0.5750
   39MOL   C47719553   6.305   2.805   7.632 -0.2624 -0.3865 -0.1470
   39MOL   C47819554   6.316   2.701   7.741  0.1503  0.3140  0.0926
   39MOL   O47919555   6.444   2.630   7.735 -0.3410  0.6096  0.4687
   39MOL   C48019556   6.423   2.508   0.024 -0.6342 -0.1418  0.2208
   39MOL   C48119557   6.563   2.446   0.028  0.3769 -0.3214 -0.1106
   39MOL   C48219558   6.605   2.390   7.667  0.7618  0.4370  0.1110
   39MOL   C48319559   6.753   2.361   7.631 -0.6065 -0.0236 -0.0865
   39MOL   C48419560   6.776   2.326   7.485 -0.1713 -0.5063  0.2670
   39MOL   C48519561   6.871   2.211   7.467 -0.5144  0.0150 -0.6543
   39MOL   H48619562   6.341   2.758   7.540 -0.2737  0.0684 -0.3831
   39MOL   H48719563   6.369   2.892   7.645 -2.5926  1.1381  1.3843
   39MOL   H48819564   6.318   2.755   0.058  2.2213 -0.6336  0.6243
   39MOL   H48919565   6.363   2.443   7.737  0.1211 -0.6221 -0.0006
   39MOL   H49019566   6.381   2.521   0.124  1.0157  0.7198  0.8294
   39MOL   H49119567   6.564   2.363   0.099  0.6126 -1.0499 -0.9716
   39MOL   H49219568   6.630   2.521   0.071 -0.4189 -0.3691  1.2571
   39MOL   H49319569   6.539   2.305   7.655 -0.6368  1.3410  1.2378
   39MOL   H49419570   6.571   2.461   7.592  1.8500  0.0492 -0.7734
   39MOL   H49519571   6.817   2.449   7.639  0.8565 -0.7879 -2.7380
   39MOL   H49619572   6.785   2.281   7.698 -0.0552  0.3448  0.0942
   39MOL   H49719573   6.687   2.289   7.433 -0.3850  0.5882 -0.1452
   39MOL   H49819574   6.816   2.415   7.436  1.1714  0.1249  2.4617
   39MOL   H49919575   6.889   2.188   7.362 -1.9378 -0.1638 -0.8730
   39MOL   H50019576   6.968   2.237   7.510  0.3905 -2.4282 -1.1805
   39MOL   H50119577   6.836   2.127   7.527 -1.3538 -0.1526 -1.3682
   39MOL   H50219578   6.225   2.640   7.743  0.0553  0.4684  0.6728
   40MOL     C119579   7.211   4.679   0.821 -0.9324  0.6135  0.4049
   40MOL     C219580   7.102   4.689   0.718 -0.4936  0.2814  0.2166
   40MOL     O319581   7.157   4.695   0.588 -0.0422  0.4883  0.1368
   40MOL     C419582   7.166   4.568   0.530 -0.1099  0.5886  0.1623
   40MOL     C519583   7.207   4.577   0.390  1.0765 -0.1027 -0.2312
   40MOL     C619584   7.205   4.437   0.331  0.1972  0.5079 -0.2497
   40MOL     C719585   7.229   4.441   0.179 -0.1442  0.8101 -0.4389
   40MOL     C819586   7.291   4.320   0.118 -0.4792  0.0659  0.8025
   40MOL     C919587   7.336   4.345   7.746 -0.4269  0.2526  0.9079
   40MOL    H1019588   7.174   4.672   0.924  1.5583  1.5229  1.3985
   40MOL    H1119589   7.287   4.604   0.801 -2.0329 -0.3356 -0.2637
   40MOL    H1219590   7.028   4.610   0.728  0.7910 -1.3629 -2.5481
   40MOL    H1319591   7.071   4.514   0.529 -0.0151  0.4118  0.6066
   40MOL    H1419592   7.239   4.500   0.573  1.0621  0.0512 -2.6272
   40MOL    H1519593   7.309   4.615   0.382  1.4530 -1.5088 -2.6262
   40MOL    H1619594   7.131   4.639   0.343 -1.5752 -2.6116  0.5780
   40MOL    H1719595   7.283   4.372   0.370 -0.6456 -1.0845 -1.1449
   40MOL    H1819596   7.107   4.396   0.357  0.4272  1.0888  1.5590
   40MOL    H1919597   7.134   4.455   0.127  0.0745 -0.2047 -1.1120
   40MOL    H2019598   7.284   4.533   0.157  1.9666 -0.4179 -0.4378
   40MOL    H2119599   7.215   4.244   0.102 -1.8429  1.0466  2.3704
   40MOL    H2219600   7.375   4.294   0.182  0.1049 -0.4145 -0.1509
   40MOL    H2319601   7.258   4.389   7.683 -0.4653  0.1598  0.8907
   40MOL    H2419602   7.421   4.414   7.741  0.6603 -1.1326 -0.5072
   40MOL    H2519603   7.372   4.261   7.686 -0.1453  1.0183 -0.0206
   40MOL    H2619604   7.272   4.769   0.812  1.3022 -0.8050  0.9881
   40MOL    C2719605   7.013   4.816   0.744 -0.2282  0.2024  0.0868
   40MOL    C2819606   6.879   4.818   0.661 -0.5522  0.9053  0.0476
   40MOL    O2919607   6.797   4.715   0.720  0.1747 -0.3022 -0.5175
   40MOL    C3019608   6.712   4.643   0.635  0.4062 -0.7774  0.2129
   40MOL    C3119609   6.786   4.536   0.546 -0.5907 -0.2209 -0.3196
   40MOL    C3219610   6.699   4.445   0.465 -0.0587 -0.4164  0.2852
   40MOL    C3319611   6.771   4.348   0.373  0.6401 -0.3987  0.2750
   40MOL    C3419612   6.851   4.240   0.443  0.5455 -0.0821 -0.2046
   40MOL    C3519613   6.895   4.122   0.358  0.1987  0.3754 -0.5878
   40MOL    H3619614   6.992   4.824   0.851  0.5024 -0.2677  0.2705
   40MOL    H3719615   7.079   4.900   0.724  0.3741 -0.4659 -0.7603
   40MOL    H3819616   6.886   4.802   0.553 -1.2450  3.2468 -0.3853
   40MOL    H3919617   6.669   4.714   0.564  1.0419 -0.2209  0.3808
   40MOL    H4019618   6.632   4.598   0.695 -0.3944  0.7183  0.3141
   40MOL    H4119619   6.832   4.468   0.618  0.2029 -0.4125 -0.9975
   40MOL    H4219620   6.876   4.572   0.495 -0.0536  0.1250  0.8654
   40MOL    H4319621   6.634   4.389   0.532  1.5639 -0.9020  1.4983
   40MOL    H4419622   6.630   4.501   0.403 -1.0970 -2.2670 -0.2622
   40MOL    H4519623   6.700   4.293   0.312 -1.1200  0.4162  1.5316
   40MOL    H4619624   6.840   4.403   0.309 -1.2052  0.7308 -0.8056
   40MOL    H4719625   6.934   4.291   0.491 -0.0433  1.8339 -1.1784
   40MOL    H4819626   6.797   4.194   0.526 -0.0824 -1.0465 -1.1323
   40MOL    H4919627   6.930   4.150   0.259  0.3897  2.1962 -0.0244
   40MOL    H5019628   6.977   4.069   0.406 -0.3205 -0.6209 -0.7721
   40MOL    H5119629   6.812   4.051   0.360 -1.1316  1.9125  1.3706
   40MOL    C5219630   6.807   4.953   0.692  0.2766  0.3967  0.1634
   40MOL    C5319631   6.875   5.088   0.642 -0.3978  0.1720 -0.0499
   40MOL    O5419632   6.922   5.086   0.508 -0.7557  0.0578 -0.1467
   40MOL    C5519633   7.053   5.142   0.497 -0.0697 -0.1016  0.8385
   40MOL    C5619634   7.116   5.115   0.359  0.0477 -0.3221 -0.1161
   40MOL    C5719635   7.127   4.964   0.319 -0.3426  0.2091  0.8259
   40MOL    C5819636   7.184   4.948   0.172 -0.1282  0.5193  0.6462
   40MOL    C5919637   7.207   4.808   0.126  0.1088  0.1106 -0.3131
   40MOL    C6019638   7.237   4.804   7.754 -0.1226  0.6136 -0.4579
   40MOL    H6119639   6.764   4.955   0.793 -1.5167 -1.5953 -0.5231
   40MOL    H6219640   6.717   4.945   0.631  0.3931  0.9106 -0.0808
   40MOL    H6319641   6.960   5.100   0.709  1.1300 -2.0096 -1.5219
   40MOL    H6419642   7.122   5.105   0.573  0.4235  1.4518  1.1518
   40MOL    H6519643   7.041   5.247   0.523 -0.5697  0.2909 -0.8881
   40MOL    H6619644   7.215   5.162   0.362  0.6227 -1.6307  2.5882
   40MOL    H6719645   7.058   5.162   0.279  0.8061 -0.4067 -0.7204
   40MOL    H6819646   7.207   4.926   0.384  1.4097  1.1845 -0.7210
   40MOL    H6919647   7.041   4.897   0.319 -0.4008  0.2764  0.0813
   40MOL    H7019648   7.111   4.995   0.106 -0.6503 -0.2536  0.6789
   40MOL    H7119649   7.270   5.014   0.156 -0.1453  0.1531 -1.1014
   40MOL    H7219650   7.287   4.749   0.172 -1.7902 -1.1295  1.4874
   40MOL    H7319651   7.119   4.746   0.142  0.0155  0.4052  0.3197
   40MOL    H7419652   7.344   4.818   7.739 -0.5416  0.4796 -3.8665
   40MOL    H7519653   7.220   4.700   7.725  0.6632 -0.1021  1.5675
   40MOL    H7619654   7.170   4.865   7.693 -1.3765  0.2226  0.5188
   40MOL    C7719655   6.780   5.217   0.650  0.2214  0.3759 -0.4318
   40MOL    C7819656   6.727   5.249   0.790 -0.5455  0.0014 -0.2142
   40MOL    O7919657   6.628   5.349   0.769 -0.1063  0.3955 -0.1614
   40MOL    C8019658   6.495   5.302   0.775  0.1592  0.2512 -0.5035
   40MOL    C8119659   6.404   5.428   0.763 -0.5068  0.7569 -0.2874
   40MOL    C8219660   6.252   5.411   0.760  0.2621  0.6895  0.5108
   40MOL    C8319661   6.184   5.535   0.702  0.3673 -0.1846  0.4013
   40MOL    C8419662   6.167   5.658   0.788 -0.4509  0.4440 -0.3631
   40MOL    C8519663   6.093   5.771   0.722 -0.0738  0.2495  0.2732
   40MOL    H8619664   6.701   5.200   0.577 -1.3766 -0.4930  1.4764
   40MOL    H8719665   6.841   5.305   0.628 -0.5166  1.1842  0.7364
   40MOL    H8819666   6.690   5.162   0.845  1.6069  0.4318  1.9947
   40MOL    H8919667   6.466   5.244   0.863 -1.1027 -0.2519 -1.2418
   40MOL    H9019668   6.465   5.224   0.705  2.3117 -1.7123  0.6802
   40MOL    H9119669   6.437   5.476   0.671  1.4534  0.2351  0.1210
   40MOL    H9219670   6.431   5.501   0.839 -1.0364  3.2664 -2.3970
   40MOL    H9319671   6.222   5.332   0.692  0.7760  2.6552 -2.0818
   40MOL    H9419672   6.225   5.385   0.863  1.0189  0.9865  0.7881
   40MOL    H9519673   6.243   5.570   0.617 -1.0658  1.2147 -0.0378
   40MOL    H9619674   6.091   5.511   0.650  0.0051 -0.6745  1.2704
   40MOL    H9719675   6.127   5.620   0.882  0.4672  0.4704  0.0456
   40MOL    H9819676   6.266   5.690   0.819  0.7432 -1.3078 -2.2108
   40MOL    H9919677   6.035   5.836   0.786  0.2907 -0.3493  1.2279
   40MOL   H10019678   6.161   5.839   0.670  0.3972  0.5165  1.2337
   40MOL   H10119679   6.021   5.742   0.646 -0.8686  2.2570  0.2390
   40MOL   C10219680   6.827   5.314   0.883 -0.1429 -0.5130 -0.5830
   40MOL   C10319681   6.797   5.303   1.035 -0.3210  0.3349 -0.0973
   40MOL   O10419682   6.924   5.294   1.093  0.0302  0.3791  0.4204
   40MOL   C10519683   6.945   5.172   1.170  0.3999 -0.2451 -0.2960
   40MOL   C10619684   7.083   5.185   1.230  0.2440 -0.2499  0.6460
   40MOL   C10719685   7.115   5.291   1.338 -0.2180  0.0866  0.8224
   40MOL   C10819686   7.257   5.277   1.397 -0.6814  0.5985  0.2111
   40MOL   C10919687   7.291   5.385   1.508 -0.1059  0.3606 -0.1695
   40MOL   C11019688   7.402   5.354   1.600  0.3250  0.0547 -0.0949
   40MOL   H11119689   6.927   5.285   0.851 -0.1353 -0.2496 -0.8091
   40MOL   H11219690   6.836   5.421   0.864 -0.0440  0.2710  3.4052
   40MOL   H11319691   6.742   5.211   1.052  3.2308 -2.0330 -0.7841
   40MOL   H11419692   6.942   5.077   1.118 -1.8657 -0.6672  0.5561
   40MOL   H11519693   6.867   5.170   1.246 -2.7686  1.8281 -3.3546
   40MOL   H11619694   7.159   5.180   1.151  0.7056 -1.5597  1.1506
   40MOL   H11719695   7.109   5.096   1.286 -0.2509 -0.5731  0.3642
   40MOL   H11819696   7.098   5.385   1.286  4.4961  0.8197  0.4405
   40MOL   H11919697   7.042   5.292   1.419 -0.9935 -1.5381  0.1701
   40MOL   H12019698   7.255   5.180   1.448 -2.6861  1.8450  2.6705
   40MOL   H12119699   7.339   5.263   1.328 -0.7371 -1.4736  0.5410
   40MOL   H12219700   7.307   5.477   1.452  2.4165 -1.0325 -1.8349
   40MOL   H12319701   7.201   5.410   1.564  0.6474  2.7261  0.0332
   40MOL   H12419702   7.494   5.332   1.546  0.3128  0.2373 -0.1881
   40MOL   H12519703   7.413   5.435   1.672 -1.8789  0.0951  0.2414
   40MOL   H12619704   7.373   5.262   1.651 -3.6268  1.5184  0.4152
   40MOL   C12719705   6.713   5.414   1.088  0.3524 -0.5063 -0.1192
   40MOL   C12819706   6.657   5.386   1.226  0.3261 -0.2474 -0.1284
   40MOL   O12919707   6.542   5.467   1.237 -0.0691 -0.2349  0.1447
   40MOL   C13019708   6.412   5.409   1.210 -0.0291 -0.2338  0.1308
   40MOL   C13119709   6.330   5.374   1.335  0.3134  0.2667 -0.3928
   40MOL   C13219710   6.310   5.501   1.423 -0.0815  0.7161 -0.0130
   40MOL   C13319711   6.231   5.463   1.549  0.2540 -0.1419 -0.7954
   40MOL   C13419712   6.150   5.585   1.593 -0.2089 -0.2554  0.2261
   40MOL   C13519713   6.098   5.567   1.739 -0.2902 -0.4518 -0.6570
   40MOL   H13619714   6.766   5.509   1.079 -1.2673  0.1869 -2.8200
   40MOL   H13719715   6.630   5.432   1.021  0.9361  3.0920  0.0183
   40MOL   H13819716   6.632   5.281   1.238 -0.2472 -0.1911 -0.7909
   40MOL   H13919717   6.410   5.330   1.135 -1.3836 -0.6196  0.5437
   40MOL   H14019718   6.363   5.488   1.154  1.0580  0.7531  0.5668
   40MOL   H14119719   6.376   5.295   1.395 -0.6129 -1.3326 -1.7617
   40MOL   H14219720   6.232   5.335   1.309  1.2770 -0.7513 -2.6200
   40MOL   H14319721   6.408   5.543   1.448 -0.3629  1.9630 -0.9739
   40MOL   H14419722   6.263   5.574   1.359  0.2921  0.5707 -0.4531
   40MOL   H14519723   6.164   5.376   1.546 -1.9502  1.3454  2.7745
   40MOL   H14619724   6.301   5.439   1.629  0.1012 -0.8097 -0.8521
   40MOL   H14719725   6.213   5.674   1.585 -1.1378  0.1676 -2.9302
   40MOL   H14819726   6.058   5.606   1.539  0.9524  2.3215 -0.8417
   40MOL   H14919727   6.021   5.634   1.777 -0.7144 -0.9324 -0.6572
   40MOL   H15019728   6.044   5.472   1.735 -0.9903 -0.1014  0.3637
   40MOL   H15119729   6.176   5.554   1.814 -0.6438 -0.8185 -0.3470
   40MOL   C15219730   6.753   5.426   1.340  0.0527 -0.4454 -0.0463
   40MOL   C15319731   6.714   5.363   1.465  0.9108  0.5018 -0.8770
   40MOL   O15419732   6.736   5.219   1.457  0.0097 -0.2479  0.1935
   40MOL   C15519733   6.640   5.136   1.522  0.2333 -0.1773 -0.6566
   40MOL   C15619734   6.660   4.995   1.487 -0.1176  0.9281  0.0033
   40MOL   C15719735   6.651   4.957   1.339  0.4319  1.0474 -1.0467
   40MOL   C15819736   6.665   4.804   1.299  0.0091 -0.2634  0.8420
   40MOL   C15919737   6.681   4.786   1.150 -0.0296 -0.1354 -0.2256
   40MOL   C16019738   6.672   4.638   1.110 -0.3544  0.6404  0.2083
   40MOL   H16119739   6.856   5.399   1.316  0.8807  1.7846  0.9062
   40MOL   H16219740   6.754   5.535   1.337 -1.1943 -0.4501 -2.2661
   40MOL   H16319741   6.608   5.388   1.465  1.1689  1.6128 -0.9904
   40MOL   H16419742   6.537   5.154   1.490 -0.1615  0.8742  1.0820
   40MOL   H16519743   6.639   5.135   1.631 -1.6091 -0.7648 -0.6619
   40MOL   H16619744   6.597   4.931   1.550  2.7863 -0.3963  1.6622
   40MOL   H16719745   6.755   4.962   1.528 -1.8815 -2.1834  1.8190
   40MOL   H16819746   6.559   4.997   1.298 -0.8181 -2.3472 -1.7413
   40MOL   H16919747   6.732   5.015   1.296  0.4975  3.3021  1.9430
   40MOL   H17019748   6.752   4.758   1.345  2.8990  3.1834 -0.8678
   40MOL   H17119749   6.580   4.747   1.338 -1.7298  0.0290 -2.3854
   40MOL   H17219750   6.605   4.838   1.092  0.4951 -0.5613 -1.3154
   40MOL   H17319751   6.771   4.829   1.106  0.7684 -1.5663 -0.0024
   40MOL   H17419752   6.690   4.635   1.002 -1.0431  1.6684  0.0535
   40MOL   H17519753   6.750   4.581   1.162  0.2448  1.2906  0.0351
   40MOL   H17619754   6.575   4.590   1.121  0.2357 -0.4540  0.7153
   40MOL   C17719755   6.789   5.411   1.589  0.5340 -0.3853 -1.0465
   40MOL   C17819756   6.732   5.548   1.640  0.3128 -0.2067  0.8100
   40MOL   O17919757   6.650   5.523   1.753 -0.0134  0.0271 -0.2268
   40MOL   C18019758   6.536   5.605   1.765  0.7551 -0.0631  0.5440
   40MOL   C18119759   6.486   5.572   1.906 -0.4571 -0.8134  0.1673
   40MOL   C18219760   6.586   5.628   2.007 -0.3582 -0.0332  0.3608
   40MOL   C18319761   6.592   5.785   2.034 -0.4582  0.6739  0.4666
   40MOL   C18419762   6.712   5.821   2.132  0.7773  0.3247  0.0486
   40MOL   C18519763   6.693   5.780   2.276  0.1720  0.7086  0.7146
   40MOL   H18619764   6.778   5.331   1.662  0.0499 -1.9593 -2.8027
   40MOL   H18719765   6.893   5.421   1.557 -0.0808 -1.6476 -3.5683
   40MOL   H18819766   6.666   5.604   1.574  0.4152  0.1961  1.0465
   40MOL   H18919767   6.466   5.591   1.683  0.7616  2.1569  0.1311
   40MOL   H19019768   6.556   5.712   1.757  0.2549 -0.0059  0.0852
   40MOL   H19119769   6.469   5.465   1.916 -1.1943 -0.5287  2.1067
   40MOL   H19219770   6.391   5.623   1.919  0.1405  0.6062 -0.8548
   40MOL   H19319771   6.560   5.578   2.101 -0.6925 -2.9672 -1.2518
   40MOL   H19419772   6.683   5.589   1.980 -0.5066  0.4542 -0.8771
   40MOL   H19519773   6.600   5.839   1.940 -0.1710 -0.3416 -0.0926
   40MOL   H19619774   6.494   5.805   2.078 -0.2360  0.2068  1.1864
   40MOL   H19719775   6.797   5.763   2.094 -0.8024 -2.5658  0.7355
   40MOL   H19819776   6.730   5.928   2.121 -2.9069  1.0992  0.7488
   40MOL   H19919777   6.774   5.823   2.334  1.7544 -1.9618  0.5861
   40MOL   H20019778   6.598   5.815   2.316  0.3963  1.6421  0.4427
   40MOL   H20119779   6.706   5.672   2.287 -0.2185  0.6789  0.9197
   40MOL   C20219780   6.841   5.639   1.699 -0.1058  0.4458 -0.0979
   40MOL   C20319781   6.928   5.710   1.594  0.9509 -0.1392 -0.7610
   40MOL   O20419782   7.035   5.757   1.668 -0.5303  0.4482 -0.2063
   40MOL   C20519783   7.157   5.682   1.660  0.0112  0.0546  0.1155
   40MOL   C20619784   7.281   5.764   1.708 -0.5900  0.1603 -0.5610
   40MOL   C20719785   7.325   5.889   1.625  0.0547 -0.0582  0.3602
   40MOL   C20819786   7.384   5.862   1.484 -0.4754 -0.0599  0.0893
   40MOL   C20919787   7.389   5.986   1.396 -0.6887  0.3297  1.3820
   40MOL   C21019788   7.495   5.970   1.278  0.8192  0.3932 -0.2758
   40MOL   H21119789   6.804   5.715   1.769 -1.4062  0.7468 -1.0919
   40MOL   H21219790   6.896   5.568   1.761  0.3694  1.1094  0.2404
   40MOL   H21319791   6.956   5.637   1.518 -0.6793 -0.6434 -0.8896
   40MOL   H21419792   7.172   5.652   1.557  0.0842  0.8113 -0.0990
   40MOL   H21519793   7.134   5.595   1.721  0.3057  1.6405  2.5909
   40MOL   H21619794   7.373   5.705   1.717  0.8298  2.7296  2.9738
   40MOL   H21719795   7.252   5.805   1.805  0.2665  0.9521 -0.6316
   40MOL   H21819796   7.243   5.959   1.609  1.8079  1.8142 -0.7628
   40MOL   H21919797   7.401   5.949   1.676  0.7020  0.2468 -0.9371
   40MOL   H22019798   7.484   5.823   1.503 -0.1104  0.9991  0.3865
   40MOL   H22119799   7.318   5.788   1.438  0.7329 -0.1108 -1.6183
   40MOL   H22219800   7.292   6.001   1.348  1.1022  1.6479 -2.0285
   40MOL   H22319801   7.413   6.080   1.446 -2.4993  1.8204 -0.4514
   40MOL   H22419802   7.596   5.968   1.319  0.2211 -2.6221  1.2198
   40MOL   H22519803   7.474   5.882   1.218  1.0052 -1.8015  2.7539
   40MOL   H22619804   7.484   6.059   1.217  1.2192  0.9565  0.4673
   40MOL   C22719805   6.857   5.840   1.542  0.2982 -0.3179 -0.2311
   40MOL   C22819806   6.936   5.899   1.422  0.3621  0.7618  0.3928
   40MOL   O22919807   6.939   5.797   1.322  0.0216  0.2466  0.0931
   40MOL   C23019808   7.068   5.758   1.282  0.1793 -0.3407  0.5224
   40MOL   C23119809   7.053   5.657   1.167 -0.5093 -0.3741 -0.4155
   40MOL   C23219810   7.195   5.608   1.124 -0.0462  0.0066  0.6409
   40MOL   C23319811   7.199   5.511   1.006  0.4139 -0.5358  0.1408
   40MOL   C23419812   7.333   5.500   0.935 -0.3986  0.0850  0.4575
   40MOL   C23519813   7.329   5.408   0.823  0.2369 -0.0466  1.2336
   40MOL   H23619814   6.755   5.828   1.506  0.2814  0.2205 -0.3661
   40MOL   H23719815   6.865   5.914   1.621  1.5048  0.6457 -1.2429
   40MOL   H23819816   7.036   5.919   1.460  0.4877 -1.2937  1.2514
   40MOL   H23919817   7.114   5.708   1.368 -1.1175  1.1999  2.1641
   40MOL   H24019818   7.125   5.849   1.260  0.9679 -0.6880  1.0760
   40MOL   H24119819   7.013   5.712   1.082 -1.1024 -0.3211 -0.1056
   40MOL   H24219820   6.989   5.575   1.200  0.4195 -1.3137 -0.9176
   40MOL   H24319821   7.251   5.700   1.108 -0.5622  0.3047  0.5580
   40MOL   H24419822   7.248   5.559   1.206  0.5720  1.1712  0.9459
   40MOL   H24519823   7.165   5.410   1.031 -2.6773  0.6843  1.0977
   40MOL   H24619824   7.133   5.547   0.927  0.7454 -0.3384 -0.0466
   40MOL   H24719825   7.376   5.598   0.914  0.3745  0.0345  1.7611
   40MOL   H24819826   7.402   5.458   1.008 -0.7976 -1.2031  0.1148
   40MOL   H24919827   7.420   5.408   0.764  0.0243 -1.2613  0.8888
   40MOL   H25019828   7.308   5.304   0.851 -1.9488 -0.2889 -1.1130
   40MOL   H25119829   7.251   5.432   0.751 -0.6979 -1.1935  1.8389
   40MOL   C25219830   6.886   6.029   1.365  0.0069 -0.3977 -0.0515
   40MOL   C25319831   6.961   6.097   1.253 -0.6928  0.1156 -0.1146
   40MOL   O25419832   6.935   6.243   1.254 -0.2875 -0.2650 -0.5562
   40MOL   C25519833   7.041   6.308   1.321  0.2485  0.7936  0.5857
   40MOL   C25619834   6.991   6.445   1.370 -0.2606  0.1255  0.2072
   40MOL   C25719835   6.922   6.436   1.508 -0.1685 -0.2371  0.4155
   40MOL   C25819836   6.862   6.570   1.554  0.0838  0.5700  0.6951
   40MOL   C25919837   6.977   6.657   1.608  0.1249  0.0172 -0.2644
   40MOL   C26019838   6.965   6.809   1.595  0.4330  0.3764  0.7043
   40MOL   H26119839   6.780   6.022   1.338 -0.9284 -2.1843  3.7706
   40MOL   H26219840   6.884   6.102   1.446  2.4015  0.4768 -0.7290
   40MOL   H26319841   7.068   6.081   1.262 -0.8520 -0.7381  0.3169
   40MOL   H26419842   7.117   6.328   1.246  0.0008 -0.3893  0.0059
   40MOL   H26519843   7.088   6.256   1.405  0.0716 -1.2520 -0.5441
   40MOL   H26619844   6.923   6.479   1.292 -0.5263 -1.8652 -0.4431
   40MOL   H26719845   7.076   6.513   1.372 -1.1461  1.3351 -1.6015
   40MOL   H26819846   6.852   6.352   1.506 -0.6524  0.1166  1.6828
   40MOL   H26919847   6.986   6.409   1.592  0.2560  0.5412  0.3450
   40MOL   H27019848   6.806   6.623   1.476 -0.0187 -0.4328  0.0807
   40MOL   H27119849   6.801   6.551   1.642 -3.8964 -1.1141 -2.2876
   40MOL   H27219850   6.983   6.629   1.713 -0.3466  0.2314 -0.1773
   40MOL   H27319851   7.068   6.634   1.554  0.0534 -1.3393  0.1892
   40MOL   H27419852   7.033   6.858   1.664 -0.7333  2.8180  0.1712
   40MOL   H27519853   6.986   6.832   1.491 -4.0266 -0.7673 -0.5569
   40MOL   H27619854   6.863   6.838   1.622  0.1522 -1.8855  2.2699
   40MOL   C27719855   6.908   6.051   1.116 -0.0027  0.1087  0.8814
   40MOL   C27819856   6.997   6.097   0.995 -0.1714  0.4812  1.0846
   40MOL   O27919857   7.104   5.999   0.992 -0.1366 -0.1290  0.3209
   40MOL   C28019858   7.232   6.057   0.953  0.0141 -0.6926 -0.1215
   40MOL   C28119859   7.317   5.937   0.906 -0.1339 -0.3833  0.1141
   40MOL   C28219860   7.465   5.978   0.883  0.5100  0.5564  0.0719
   40MOL   C28319861   7.552   5.857   0.841  0.2106 -0.1644 -0.4759
   40MOL   C28419862   7.542   5.799   0.696 -0.4391  0.2522 -0.2566
   40MOL   C28519863   7.631   5.692   0.646  0.0923  0.4365 -0.1038
   40MOL   H28619864   6.917   5.943   1.118 -0.5915  0.0750  3.2481
   40MOL   H28719865   6.802   6.072   1.104  0.5074  1.3181 -1.9543
   40MOL   H28819866   7.043   6.194   1.014 -0.4460  0.9428 -0.5445
   40MOL   H28919867   7.281   6.109   1.035 -1.1401  3.9726 -2.2232
   40MOL   H29019868   7.205   6.126   0.872 -1.5092 -0.1632  0.8065
   40MOL   H29119869   7.277   5.893   0.815  1.0693 -1.3476  0.0436
   40MOL   H29219870   7.298   5.863   0.985 -0.1959 -0.4875  0.0027
   40MOL   H29319871   7.469   6.051   0.803  2.9564 -0.6902 -0.9882
   40MOL   H29419872   7.500   6.023   0.976 -1.3050  1.6775  0.2402
   40MOL   H29519873   7.655   5.892   0.842  0.2057 -0.1797  1.9182
   40MOL   H29619874   7.546   5.773   0.910  0.1285 -0.3830 -0.7472
   40MOL   H29719875   7.439   5.767   0.678 -0.5205  1.6126 -2.4905
   40MOL   H29819876   7.555   5.888   0.633  2.0207  0.0631 -0.0318
   40MOL   H29919877   7.631   5.615   0.722  1.8130  0.5416  0.0328
   40MOL   H30019878   7.602   5.669   0.543 -0.0369 -2.5324  0.5772
   40MOL   H30119879   7.737   5.715   0.635 -0.0822  0.6415 -1.5529
   40MOL   C30219880   6.922   6.107   0.857  0.3114 -0.6276 -0.1448
   40MOL   C30319881   6.828   6.222   0.845  0.6909  0.2131  0.0797
   40MOL   O30419882   6.690   6.185   0.823 -0.7509 -0.0341 -0.4571
   40MOL   C30519883   6.597   6.253   0.905  0.0770  0.2293  0.3794
   40MOL   C30619884   6.451   6.215   0.868 -0.0167  0.0871 -0.3678
   40MOL   C30719885   6.417   6.242   0.723  0.3175 -0.4259  0.4042
   40MOL   C30819886   6.272   6.213   0.692 -0.4248 -0.3468  0.1385
   40MOL   C30919887   6.237   6.254   0.542  0.0306 -0.9365  0.4829
   40MOL   C31019888   6.086   6.239   0.518 -0.4622 -0.7684  0.1514
   40MOL   H31119889   6.999   6.124   0.782  1.7536  0.3620  1.5471
   40MOL   H31219890   6.861   6.016   0.847  0.2644 -0.5283 -0.7698
   40MOL   H31319891   6.827   6.281   0.936  0.8035 -1.1890  0.9914
   40MOL   H31419892   6.613   6.361   0.899  1.4295  0.1992  2.6593
   40MOL   H31519893   6.613   6.212   1.005  2.0506 -0.4820 -0.2136
   40MOL   H31619894   6.386   6.266   0.940  0.5636 -1.6167  1.3735
   40MOL   H31719895   6.421   6.111   0.882  3.6717 -1.1028 -0.9446
   40MOL   H31819896   6.430   6.348   0.704 -0.0313 -0.4030  0.3077
   40MOL   H31919897   6.489   6.200   0.652 -1.0477  0.6901 -1.6819
   40MOL   H32019898   6.242   6.109   0.707  2.2124 -1.2087 -0.3029
   40MOL   H32119899   6.209   6.260   0.767 -1.2629 -2.5933  0.8698
   40MOL   H32219900   6.256   6.359   0.521 -3.3317  0.1567  2.4968
   40MOL   H32319901   6.297   6.191   0.476 -0.8264  0.8188 -2.0623
   40MOL   H32419902   6.020   6.286   0.591 -0.6504  2.2985 -1.9183
   40MOL   H32519903   6.071   6.279   0.418  0.2730  0.4472  0.5122
   40MOL   H32619904   6.059   6.134   0.507  1.9563 -1.6499  2.2447
   40MOL   C32719905   6.854   6.320   0.725  0.4152  0.8161 -0.5056
   40MOL   C32819906   6.990   6.393   0.723 -0.4484  0.5812  0.3633
   40MOL   O32919907   6.999   6.467   0.604 -0.3059  0.0394  0.2349
   40MOL   C33019908   6.916   6.573   0.576  0.7793 -0.2246 -0.1440
   40MOL   C33119909   6.920   6.587   0.427 -0.2256 -0.3894 -0.4796
   40MOL   C33219910   6.824   6.693   0.384  0.9307  0.0316  1.0432
   40MOL   C33319911   6.850   6.722   0.235  0.2737  0.5562  0.0660
   40MOL   C33419912   6.757   6.839   0.189 -0.1596  0.6084 -0.2459
   40MOL   C33519913   6.795   6.886   0.051  0.0099 -0.2723 -0.4268
   40MOL   H33619914   6.777   6.397   0.723 -1.4003 -0.8443  2.1148
   40MOL   H33719915   6.838   6.270   0.630  2.2807  2.9879 -2.0082
   40MOL   H33819916   7.075   6.325   0.712 -0.6825  0.4073 -0.4468
   40MOL   H33919917   6.961   6.667   0.609 -0.3231  0.4418 -0.5023
   40MOL   H34019918   6.813   6.572   0.611  1.0105  0.7762  0.5887
   40MOL   H34119919   6.886   6.490   0.391 -2.0560  0.1939 -0.3537
   40MOL   H34219920   7.023   6.607   0.397 -0.2821  1.3429  0.4384
   40MOL   H34319921   6.720   6.667   0.404  0.4048  1.5121  0.3368
   40MOL   H34419922   6.847   6.779   0.448 -2.9391  1.0791  1.1416
   40MOL   H34519923   6.955   6.752   0.230  0.3032  0.2855 -0.9129
   40MOL   H34619924   6.829   6.640   0.167 -1.8526 -1.6830  3.2649
   40MOL   H34719925   6.655   6.802   0.202 -0.1074  0.9712  1.3378
   40MOL   H34819926   6.770   6.922   0.259  1.4488 -0.0180  0.2072
   40MOL   H34919927   6.749   6.823   7.752 -0.8491 -0.6964  0.4298
   40MOL   H35019928   6.745   6.982   0.037 -0.2107 -0.6500 -2.4037
   40MOL   H35119929   6.904   6.888   0.055 -0.0589  0.2499  2.1888
   40MOL   C35219930   7.015   6.491   0.838  0.3235 -0.0078  0.4765
   40MOL   C35319931   7.156   6.555   0.836 -0.0828  0.8100 -0.1095
   40MOL   O35419932   7.252   6.448   0.864 -0.4480 -0.3022 -0.0752
   40MOL   C35519933   7.386   6.478   0.834 -0.5724 -0.2148  0.1326
   40MOL   C35619934   7.464   6.346   0.826  0.7388  0.0225  0.1530
   40MOL   C35719935   7.618   6.369   0.792 -0.4249 -0.2907 -0.2773
   40MOL   C35819936   7.701   6.243   0.754  0.3905 -0.2550  0.6629
   40MOL   C35919937   7.680   6.174   0.619  0.0103 -0.3805  0.6340
   40MOL   C36019938   0.012   6.075   0.582 -0.4514  0.6938 -0.4414
   40MOL   H36119939   6.937   6.567   0.839  0.6873  0.3635  0.5691
   40MOL   H36219940   7.017   6.432   0.929 -0.9593 -0.7574  0.0372
   40MOL   H36319941   7.164   6.595   0.735  2.0657 -0.8167 -0.6221
   40MOL   H36419942   7.436   6.550   0.899 -1.4601 -2.0470  2.9541
   40MOL   H36519943   7.394   6.509   0.730 -1.7191  1.6298  0.5827
   40MOL   H36619944   7.423   6.282   0.747  0.8953 -0.0013  0.0919
   40MOL   H36719945   7.444   6.283   0.912  0.4838 -1.2073 -0.7887
   40MOL   H36819946   7.627   6.436   0.707  3.5084  2.9696  2.4999
   40MOL   H36919947   7.666   6.422   0.874  0.6330 -1.9686  0.2137
   40MOL   H37019948   0.027   6.279   0.753  0.9349 -1.7778 -1.2818
   40MOL   H37119949   7.686   6.169   0.832 -4.5580  2.4315  2.5023
   40MOL   H37219950   7.579   6.134   0.606 -1.8551  4.2010 -0.1334
   40MOL   H37319951   7.683   6.253   0.544  0.2698  0.9305  2.0051
   40MOL   H37419952   7.766   6.022   0.490  0.8653 -0.8513  0.0987
   40MOL   H37519953   0.105   6.132   0.577 -0.8393  1.2710 -1.3320
   40MOL   H37619954   0.018   5.994   0.654 -1.3017 -0.4561 -1.6295
   40MOL   C37719955   7.167   6.674   0.937 -0.4771 -0.4802  0.2171
   40MOL   C37819956   7.114   6.806   0.871 -0.6687  0.3650  0.6691
   40MOL   O37919957   7.199   6.837   0.759  0.3802 -0.1593 -1.0140
   40MOL   C38019958   7.144   6.911   0.653  0.4229 -0.5977 -0.4940
   40MOL   C38119959   7.256   6.914   0.542 -0.7302 -0.5552  0.6825
   40MOL   C38219960   7.199   6.930   0.397  0.4087  0.0541 -0.1173
   40MOL   C38319961   7.317   6.930   0.304  0.2249 -0.5731 -0.3521
   40MOL   C38419962   7.284   6.946   0.158  0.2699  0.0457  0.2038
   40MOL   C38519963   7.238   6.817   0.097  0.2445  0.0124 -0.1728
   40MOL   H38619964   7.120   6.633   1.026 -0.6325 -0.3192  0.2090
   40MOL   H38719965   7.272   6.694   0.960 -0.1382 -0.5727 -1.2094
   40MOL   H38819966   7.013   6.788   0.834 -1.0305  0.0664  1.7818
   40MOL   H38919967   7.114   7.011   0.686 -1.5267 -0.2278 -3.2583
   40MOL   H39019968   7.063   6.847   0.618  0.2499 -1.1265  0.8287
   40MOL   H39119969   7.308   6.818   0.543  0.4552  0.0704  0.1400
   40MOL   H39219970   7.324   6.993   0.573  1.4759 -1.1469 -2.3296
   40MOL   H39319971   7.114   6.867   0.371  0.8924 -0.4775 -0.4230
   40MOL   H39419972   7.152   7.028   0.402 -1.0763 -0.6902  0.7075
   40MOL   H39519973   7.379   7.014   0.334  0.1558  0.4194 -2.8725
   40MOL   H39619974   7.373   6.837   0.315 -0.9045 -0.8920  3.5732
   40MOL   H39719975   7.222   7.033   0.135  2.4776  1.6454  0.1946
   40MOL   H39819976   7.378   6.971   0.108  0.7469 -0.3894  0.8722
   40MOL   H39919977   7.248   6.832   7.767  0.3138 -0.2379 -0.2010
   40MOL   H40019978   7.303   6.734   0.125  0.0965 -0.1245 -0.2366
   40MOL   H40119979   7.131   6.800   0.105 -0.0217  1.9064  0.6968
   40MOL   C40219980   7.108   6.927   0.962  0.5531  0.0379 -0.2160
   40MOL   C40319981   7.015   6.917   1.091  0.4119 -0.9413  0.1521
   40MOL   O40419982   6.884   6.881   1.052  0.1710  0.7706 -0.3373
   40MOL   C40519983   6.813   6.796   1.148  0.7177 -0.0854  0.6697
   40MOL   C40619984   6.675   6.759   1.087  0.2804 -0.4774  0.2476
   40MOL   C40719985   6.587   6.685   1.185  0.6116 -0.2143  0.1314
   40MOL   C40819986   6.454   6.647   1.111  0.2460 -0.1971 -0.1495
   40MOL   C40919987   6.342   6.614   1.217 -0.5451 -0.5117  0.5324
   40MOL   C41019988   6.206   6.566   1.153  0.5243  0.1327 -0.8778
   40MOL   H41119989   7.061   7.011   0.911 -2.7559 -0.7103  1.4976
   40MOL   H41219990   7.207   6.956   0.996  1.0690 -1.2760 -0.5877
   40MOL   H41319991   7.063   6.838   1.147  0.7094 -0.4426  0.6025
   40MOL   H41419992   6.799   6.851   1.241  0.1371 -1.5998  1.5036
   40MOL   H41519993   6.877   6.710   1.172  2.4172  0.6689 -0.9834
   40MOL   H41619994   6.686   6.698   0.998 -1.5557 -0.1383 -0.2407
   40MOL   H41719995   6.632   6.854   1.055 -0.4048 -1.0866 -0.6506
   40MOL   H41819996   6.641   6.595   1.216  0.5616 -0.2780  0.0333
   40MOL   H41919997   6.558   6.731   1.279 -0.1615 -2.1033  0.8433
   40MOL   H42019998   6.429   6.739   1.059  0.8605  0.4680  0.7188
   40MOL   H42119999   6.472   6.566   1.040  0.2141  1.1963 -1.7868
   40MOL   H42220000   6.381   6.523   1.263  0.5043 -0.6000 -0.5028
   40MOL   H42320001   6.322   6.691   1.290 -0.3280 -1.3165  1.4511
   40MOL   H42420002   6.161   6.628   1.075 -0.4870 -1.4675 -1.6027
   40MOL   H42520003   6.221   6.467   1.110  0.3108 -0.4407  0.3381
   40MOL   H42620004   6.126   6.553   1.227  0.1038  2.0457 -0.9800
   40MOL   C42720005   6.989   7.046   1.178  0.0890  0.1542  0.2494
   40MOL   C42820006   7.121   7.126   1.219  0.3392  0.2425  0.4682
   40MOL   O42920007   7.198   7.177   1.115 -0.3776  0.2291  0.2156
   40MOL   C43020008   7.155   7.279   1.023 -0.5128  0.8067 -0.1094
   40MOL   C43120009   7.250   7.274   0.898 -0.0765 -0.6600  0.0211
   40MOL   C43220010   7.202   7.362   0.780  0.9708 -0.6023 -0.3456
   40MOL   C43320011   7.264   7.329   0.645 -0.4906  0.1132 -0.0510
   40MOL   C43420012   7.208   7.415   0.533 -0.2993 -0.0390 -0.1174
   40MOL   C43520013   7.275   7.390   0.394 -0.1068 -0.1357 -0.3304
   40MOL   H43620014   6.921   7.110   1.122 -0.9656 -1.0703  0.0944
   40MOL   H43720015   6.946   7.027   1.276  0.4001  1.7456  0.6998
   40MOL   H43820016   7.184   7.048   1.260 -0.9460  0.2763  2.5774
   40MOL   H43920017   7.164   7.377   1.070  1.5256  0.3260  0.5819
   40MOL   H44020018   7.056   7.247   0.992 -0.7774  0.8211  0.7015
   40MOL   H44120019   7.268   7.170   0.872  0.4529 -0.9855  1.6550
   40MOL   H44220020   7.346   7.303   0.940 -0.4751  0.0772  0.4335
   40MOL   H44320021   7.093   7.360   0.776  0.8551  1.2502  1.2627
   40MOL   H44420022   7.223   7.462   0.818 -0.5879  0.3669 -1.9890
   40MOL   H44520023   7.368   7.363   0.641 -0.4766  0.0464 -0.2848
   40MOL   H44620024   7.271   7.222   0.623  0.6138 -0.5452  3.2324
   40MOL   H44720025   7.102   7.401   0.512  0.0467  0.5826 -2.4013
   40MOL   H44820026   7.200   7.523   0.551 -1.9172  0.3049 -2.7270
   40MOL   H44920027   7.242   7.463   0.320  0.5139 -0.0702 -0.5395
   40MOL   H45020028   7.384   7.397   0.394 -0.0037 -1.2363  2.3268
   40MOL   H45120029   7.258   7.291   0.352 -1.9870 -0.1116  0.3191
   40MOL   C45220030   7.102   7.237   1.321  0.2528  0.4741  0.1737
   40MOL   C45320031   7.239   7.284   1.388  0.2392  0.0842  0.5864
   40MOL   O45420032   7.272   7.191   1.494  0.3241  0.3750  0.5138
   40MOL   C45520033   7.408   7.153   1.492  0.0439  0.3252 -0.1119
   40MOL   C45620034   7.415   7.032   1.587 -0.1343 -0.6789  0.3226
   40MOL   C45720035   7.336   6.904   1.550 -0.0179 -0.3126 -0.2731
   40MOL   C45820036   7.393   6.833   1.430  0.2701 -0.1352  0.2303
   40MOL   C45920037   7.298   6.733   1.372  0.3004  0.1411  0.2367
   40MOL   C46020038   7.342   6.669   1.248 -0.3061 -0.3822 -0.0650
   40MOL   H46120039   7.046   7.315   1.270 -4.4804 -2.4009  0.6925
   40MOL   H46220040   7.028   7.203   1.393 -0.6266  1.2451 -0.3571
   40MOL   H46320041   7.305   7.278   1.301 -2.4283  2.3179 -1.7142
   40MOL   H46420042   7.466   7.237   1.530 -0.2336  0.8035 -0.7359
   40MOL   H46520043   7.459   7.146   1.396 -2.2455 -0.8058 -1.2854
   40MOL   H46620044   7.392   7.072   1.686 -1.7613 -0.4386 -0.1307
   40MOL   H46720045   7.518   7.002   1.605  0.4334  0.6109 -0.6629
   40MOL   H46820046   7.323   6.841   1.638 -0.9219  0.0015 -0.1698
   40MOL   H46920047   7.234   6.931   1.522 -0.2019 -1.5240 -0.8118
   40MOL   H47020048   7.420   6.906   1.353  0.6381 -0.2143  0.2838
   40MOL   H47120049   7.492   6.796   1.455  0.1974 -0.4364  0.0700
   40MOL   H47220050   7.278   6.665   1.455  0.0937 -0.5050 -0.3318
   40MOL   H47320051   7.200   6.775   1.353 -0.0501 -0.3507  0.9145
   40MOL   H47420052   7.373   6.736   1.168  0.1138 -0.2001  0.2511
   40MOL   H47520053   7.427   6.604   1.266  0.3188 -0.2249 -2.3815
   40MOL   H47620054   7.277   6.599   1.195 -0.0821  1.5033 -2.9075
   40MOL   C47720055   7.217   7.431   1.435 -0.4640  0.1264  0.0070
   40MOL   C47820056   7.233   7.532   1.325 -0.2901  0.1316 -0.8663
   40MOL   O47920057   7.223   7.664   1.380  0.1529  0.1696  0.5135
   40MOL   C48020058   7.211   7.759   1.276  0.2643 -0.3755 -0.6302
   40MOL   C48120059   7.214   0.121   1.335  0.7539  0.0199 -0.0272
   40MOL   C48220060   7.211   0.235   1.232  0.1002  0.4918 -0.7559
   40MOL   C48320061   7.221   0.370   1.305 -0.8035  0.7685 -0.0946
   40MOL   C48420062   7.208   0.495   1.218  0.2430 -0.3151 -0.3196
   40MOL   C48520063   7.207   0.621   1.295  0.0141  0.3542 -0.3580
   40MOL   H48620064   7.127   7.437   1.497 -0.5628 -0.8131 -0.0451
   40MOL   H48720065   7.307   7.445   1.496 -0.4892  1.1970 -0.1931
   40MOL   H48820066   7.320   7.525   1.260  0.0058 -4.3751 -0.1434
   40MOL   H48920067   7.123   7.736   1.217  0.5571 -2.5066 -0.2785
   40MOL   H49020068   7.291   7.755   1.202  1.4283  1.7715  0.4656
   40MOL   H49120069   7.308   0.123   1.390  1.5782 -2.1469 -1.2757
   40MOL   H49220070   7.125   0.133   1.396  0.2983  0.0217 -0.6883
   40MOL   H49320071   7.290   0.235   1.156 -1.2776 -1.7504 -2.2631
   40MOL   H49420072   7.116   0.218   1.181 -0.9464 -1.2179  1.6560
   40MOL   H49520073   7.155   0.366   1.392  0.7730 -1.0855  1.0598
   40MOL   H49620074   7.316   0.368   1.358 -1.3164 -0.3180  0.8159
   40MOL   H49720075   7.300   0.500   1.160 -1.0859 -0.9165 -2.5444
   40MOL   H49820076   7.123   0.490   1.149 -0.8258 -3.8842  1.1413
   40MOL   H49920077   7.305   0.625   1.343  0.7892 -1.9548 -1.6935
   40MOL   H50020078   7.199   0.704   1.225 -1.1035  0.6603  0.1086
   40MOL   H50120079   7.120   0.615   1.361  0.0773 -1.9601 -0.4361
   40MOL   H50220080   7.147   7.529   1.259 -1.4798  2.6762  0.4887
   41MOL     C120081   4.062   3.480   7.155  0.1232  0.0491 -0.0728
   41MOL     C220082   4.150   3.378   7.223 -0.2501  0.2359 -0.8554
   41MOL     O320083   4.154   3.279   7.121 -0.0425 -0.1555 -0.2592
   41MOL     C420084   4.285   3.221   7.099  0.2085 -0.2085  0.2528
   41MOL     C520085   4.311   3.104   7.202  0.4706 -0.0186 -1.0211
   41MOL     C620086   4.448   3.045   7.175 -0.3549  1.0598  0.0415
   41MOL     C720087   4.505   2.967   7.301  0.5281  0.9396  0.3387
   41MOL     C820088   4.546   3.036   7.425 -1.1680  0.5514 -0.8767
   41MOL     C920089   4.641   3.146   7.382 -0.0081  0.9530  0.1621
   41MOL    H1020090   4.087   3.518   7.056 -0.6110 -0.1708 -0.3487
   41MOL    H1120091   3.962   3.435   7.152 -0.6082  1.5820  0.7789
   41MOL    H1220092   4.243   3.418   7.264  0.4398 -1.9373 -0.2062
   41MOL    H1320093   4.354   3.306   7.107 -1.9736  1.4599  2.2009
   41MOL    H1420094   4.280   3.190   6.995 -1.1460 -0.8563  0.5006
   41MOL    H1520095   4.234   3.028   7.191 -1.1409  1.3672  0.3285
   41MOL    H1620096   4.313   3.134   7.307 -0.6104 -0.2947 -0.9175
   41MOL    H1720097   4.442   2.978   7.089  0.1074 -1.1934  1.7180
   41MOL    H1820098   4.520   3.111   7.128  0.6279 -1.0450 -1.4943
   41MOL    H1920099   4.442   2.881   7.323  1.0089  0.0130 -1.7866
   41MOL    H2020100   4.598   2.918   7.270 -0.3338 -0.5170 -0.0150
   41MOL    H2120101   4.606   2.967   7.484 -1.9263 -0.7274 -1.5987
   41MOL    H2220102   4.464   3.079   7.482 -0.7854  0.6660 -0.4109
   41MOL    H2320103   4.725   3.116   7.320 -0.0887 -0.6166  0.7930
   41MOL    H2420104   4.575   3.226   7.349  0.7757  1.3939 -0.3746
   41MOL    H2520105   4.699   3.172   7.470 -0.2981 -1.0970  0.9765
   41MOL    H2620106   4.050   3.559   7.230 -0.4955 -1.2783  1.2520
   41MOL    C2720107   4.082   3.316   7.348  0.6103 -0.3061 -0.1371
   41MOL    C2820108   4.104   3.387   7.479 -0.5705 -0.3586  0.1041
   41MOL    O2920109   4.009   3.345   7.569  0.3802  0.1202 -0.3899
   41MOL    C3020110   3.893   3.427   7.562 -0.0640 -0.5713 -1.2409
   41MOL    C3120111   3.802   3.409   7.684  0.3734 -0.1312 -0.9449
   41MOL    C3220112   3.859   3.460   0.034  0.2602  0.0094 -0.3649
   41MOL    C3320113   3.750   3.447   0.149 -0.6905 -0.0609 -0.0194
   41MOL    C3420114   3.817   3.469   0.287  0.4581  0.0677 -0.2824
   41MOL    C3520115   3.870   3.613   0.309 -0.4655 -0.2497  1.1479
   41MOL    H3620116   3.978   3.306   7.314 -0.0641  0.6289  1.5709
   41MOL    H3720117   4.100   3.209   7.362  0.6459 -0.4024 -0.8886
   41MOL    H3820118   4.118   3.493   7.459 -1.0941  0.0870  1.9402
   41MOL    H3920119   3.833   3.399   7.475  0.0993  1.7560 -2.1374
   41MOL    H4020120   3.918   3.533   7.558 -0.3642 -0.4498  0.1128
   41MOL    H4120121   3.791   3.302   7.704  1.8554  0.1260  1.4881
   41MOL    H4220122   3.708   3.461   7.667 -0.6046 -1.9964 -1.3589
   41MOL    H4320123   3.952   3.410   0.061 -0.0673 -1.9235 -2.6728
   41MOL    H4420124   3.889   3.565   0.027  1.0156  0.0132  2.2091
   41MOL    H4520125   3.680   3.529   0.134  1.1147  1.1455 -2.1057
   41MOL    H4620126   3.700   3.350   0.151 -1.8483  0.4477 -2.3644
   41MOL    H4720127   3.754   3.448   0.374  0.8313 -1.7343 -0.4275
   41MOL    H4820128   3.896   3.394   0.284  1.5618  1.1968  0.1178
   41MOL    H4920129   3.941   3.647   0.233 -1.2220 -1.3540 -0.0763
   41MOL    H5020130   3.787   3.683   0.317 -0.1418  0.4379 -0.9675
   41MOL    H5120131   3.926   3.612   0.402 -0.2424 -0.4569  1.0109
   41MOL    C5220132   4.240   3.359   7.541  0.2430 -0.4070 -0.0903
   41MOL    C5320133   4.318   3.481   7.590 -0.5506  0.3695 -0.0318
   41MOL    O5420134   4.362   3.550   7.474 -0.4586 -0.1306  0.5826
   41MOL    C5520135   4.501   3.545   7.463  0.5958 -0.3161 -0.2073
   41MOL    C5620136   4.531   3.630   7.344  0.4192 -1.0278 -0.1554
   41MOL    C5720137   4.515   3.550   7.212  0.2257  0.1959  0.5819
   41MOL    C5820138   4.624   3.583   7.110  0.8089 -0.0568 -0.5995
   41MOL    C5920139   4.758   3.501   7.124 -0.2047 -0.5677 -0.9016
   41MOL    C6020140   4.874   3.582   7.043 -0.3405 -0.4313 -0.0405
   41MOL    H6120141   4.297   3.298   7.470 -1.6903 -3.6433  1.0162
   41MOL    H6220142   4.219   3.282   7.615 -2.1483 -1.3237 -1.6487
   41MOL    H6320143   4.399   3.431   7.642  1.7909  2.3612 -1.6398
   41MOL    H6420144   4.550   3.448   7.455  0.1683 -0.5907  0.4500
   41MOL    H6520145   4.550   3.590   7.550 -0.5336  1.7644 -0.6092
   41MOL    H6620146   4.631   3.672   7.358  0.4290 -1.5156  1.2800
   41MOL    H6720147   4.463   3.714   7.333  1.3627 -0.0984  0.9039
   41MOL    H6820148   4.519   3.441   7.221 -0.8701 -0.1179 -2.2451
   41MOL    H6920149   4.423   3.580   7.162  1.6730  1.9818 -1.1207
   41MOL    H7020150   4.582   3.579   7.009 -0.4209 -0.4970 -0.0818
   41MOL    H7120151   4.647   3.689   7.120  0.9286 -0.0852 -0.5837
   41MOL    H7220152   4.791   3.505   7.228 -1.9190 -3.2224 -0.2124
   41MOL    H7320153   4.749   3.401   7.082 -1.4776 -0.3007 -1.2773
   41MOL    H7420154   4.975   3.547   7.061  0.5727  1.7306 -0.7539
   41MOL    H7520155   4.851   3.605   6.939 -1.1290  0.7421  0.3757
   41MOL    H7620156   4.878   3.681   7.088 -0.0065 -0.3819 -0.1848
   41MOL    C7720157   4.239   3.561   7.691  0.3104  0.8586 -0.7225
   41MOL    C7820158   4.332   3.655   7.777 -0.1955 -0.2255 -0.0373
   41MOL    O7920159   4.381   3.573   0.101  0.5577  0.0590  0.5308
   41MOL    C8020160   4.495   3.621   0.170 -0.4902 -0.5369  0.2865
   41MOL    C8120161   4.513   3.538   0.302  0.8760  0.1959 -0.0376
   41MOL    C8220162   4.633   3.580   0.390 -0.1385 -0.2486  0.2104
   41MOL    C8320163   4.663   3.484   0.507  0.1129  0.6407  0.4487
   41MOL    C8420164   4.781   3.525   0.601 -0.1574 -0.0719  0.6698
   41MOL    C8520165   4.921   3.541   0.539  0.2903 -0.5796  0.0659
   41MOL    H8620166   4.192   3.494   7.762  1.9244 -0.2661 -0.6836
   41MOL    H8720167   4.158   3.611   7.639  0.1378  2.1856  0.7827
   41MOL    H8820168   4.420   3.702   7.733  0.4774 -1.9294 -0.5813
   41MOL    H8920169   4.487   3.727   0.193  0.7651 -0.0990 -1.2406
   41MOL    H9020170   4.582   3.607   0.106  0.6492  1.8295  1.2649
   41MOL    H9120171   4.506   3.433   0.275 -0.6426  0.1562  0.4612
   41MOL    H9220172   4.422   3.554   0.360  0.6508  1.3186 -0.6855
   41MOL    H9320173   4.714   3.618   0.327 -0.2702  1.4761  1.0679
   41MOL    H9420174   4.609   3.671   0.444 -0.7037 -0.5693  0.5028
   41MOL    H9520175   4.569   3.489   0.560 -0.5319 -0.4065 -0.5753
   41MOL    H9620176   4.672   3.382   0.469 -1.1870  0.9058 -0.6057
   41MOL    H9720177   4.755   3.621   0.646 -0.5252 -0.0530  0.4214
   41MOL    H9820178   4.780   3.452   0.681 -2.1756 -1.4387 -0.5475
   41MOL    H9920179   4.943   3.448   0.486  0.3583 -0.5922  0.1167
   41MOL   H10020180   4.913   3.627   0.472  1.6947 -0.1876  0.3798
   41MOL   H10120181   4.999   3.559   0.612 -1.7945  0.1844  2.1609
   41MOL   C10220182   4.242   3.762   0.075 -0.6151 -0.2571  0.0919
   41MOL   C10320183   4.170   3.871   7.776  0.5835 -0.2789 -0.1403
   41MOL   O10420184   4.085   3.835   7.665 -0.7938  0.3825 -0.2192
   41MOL   C10520185   4.143   3.874   7.542 -0.1868 -0.6285 -0.2116
   41MOL   C10620186   4.056   3.828   7.432 -0.0849  0.1964  0.7351
   41MOL   C10720187   3.915   3.896   7.431 -0.4820 -0.0285 -0.1119
   41MOL   C10820188   3.842   3.850   7.307 -0.0393  0.3700  0.1395
   41MOL   C10920189   3.904   3.905   7.176 -0.1652 -0.3192  0.4493
   41MOL   C11020190   3.802   3.935   7.067  0.2495 -0.6671  0.3985
   41MOL   H11120191   4.164   3.716   0.135  0.1343 -0.7714  0.6718
   41MOL   H11220192   4.292   3.807   0.160 -0.2428 -1.4401  0.5013
   41MOL   H11320193   4.245   3.944   7.744  0.2914 -0.1580 -0.5581
   41MOL   H11420194   4.241   3.825   7.540 -0.1516 -0.5765  0.2815
   41MOL   H11520195   4.148   3.982   7.532 -0.0013 -0.6325 -0.1628
   41MOL   H11620196   4.052   3.719   7.432  0.2695  0.1559 -1.1948
   41MOL   H11720197   4.114   3.856   7.344  0.1033  1.0491  1.1357
   41MOL   H11820198   3.863   3.867   7.522 -0.2330  1.3139  0.4693
   41MOL   H11920199   3.926   4.004   7.440  1.0410 -0.3707  2.6899
   41MOL   H12020200   3.823   3.743   7.297 -0.0348  0.1787  1.8915
   41MOL   H12120201   3.738   3.881   7.314  0.2387  1.3857 -0.1848
   41MOL   H12220202   3.970   3.988   7.205  0.9487 -1.3804  1.0044
   41MOL   H12320203   3.976   3.837   7.131 -0.4091  0.5358 -1.2796
   41MOL   H12420204   3.740   4.023   7.085  0.4030 -0.3181 -0.7508
   41MOL   H12520205   3.851   3.950   6.971  0.5585 -2.3260  0.2963
   41MOL   H12620206   3.731   3.853   7.068 -0.6270  0.0746  2.1831
   41MOL   C12720207   4.071   3.950   0.090 -0.2067  0.2007 -0.1721
   41MOL   C12820208   4.128   4.013   0.220  1.0244  0.8679 -0.0287
   41MOL   O12920209   4.022   4.078   0.290  0.0667 -0.0924 -0.9877
   41MOL   C13020210   3.952   3.992   0.390 -0.3925  0.4657  0.5566
   41MOL   C13120211   3.869   4.082   0.481  0.0917 -0.0792 -0.3929
   41MOL   C13220212   3.777   4.163   0.393  0.1874 -0.1621 -0.3670
   41MOL   C13320213   3.663   4.225   0.473 -0.6299  0.3631  0.5431
   41MOL   C13420214   3.554   4.120   0.498 -0.3194  0.0367  0.1806
   41MOL   C13520215   3.488   4.126   0.634  0.6248 -0.1173 -0.3318
   41MOL   H13620216   4.034   4.032   0.029  1.2670  0.6804 -0.4214
   41MOL   H13720217   3.989   3.879   0.105  1.4449 -1.2027  2.6309
   41MOL   H13820218   4.161   3.931   0.284  1.5422  1.1711  0.0886
   41MOL   H13920219   4.015   3.921   0.444 -0.8683  0.4829  1.1352
   41MOL   H14020220   3.891   3.921   0.334 -1.0423  0.1728  1.6361
   41MOL   H14120221   3.936   4.148   0.536 -0.4723 -1.9887  2.6689
   41MOL   H14220222   3.810   4.025   0.552  1.9663 -1.5731 -0.0081
   41MOL   H14320223   3.840   4.243   0.354 -0.8491  0.4998 -0.6775
   41MOL   H14420224   3.728   4.099   0.319 -2.8982  2.6279 -0.8373
   41MOL   H14520225   3.700   4.287   0.556 -0.9961  1.6654 -0.2430
   41MOL   H14620226   3.619   4.295   0.402 -0.6247 -1.2536 -1.0723
   41MOL   H14720227   3.477   4.123   0.421  1.7434  1.9966 -1.8760
   41MOL   H14820228   3.596   4.020   0.510  0.4958  0.3481 -0.0212
   41MOL   H14920229   3.417   4.206   0.652  0.9117  0.2486 -0.8017
   41MOL   H15020230   3.426   4.036   0.637 -0.2238  0.5033  1.3358
   41MOL   H15120231   3.565   4.121   0.711  1.0224  0.1700 -0.7081
   41MOL   C15220232   4.247   4.107   0.192 -0.0491  0.5613  0.6472
   41MOL   C15320233   4.306   4.185   0.309  0.6623  0.5323 -0.1945
   41MOL   O15420234   4.388   4.097   0.380 -0.1913 -0.3859  0.0200
   41MOL   C15520235   4.446   4.139   0.504 -0.1465 -0.2590  0.2900
   41MOL   C15620236   4.511   4.015   0.570 -0.3233 -0.2215  0.2561
   41MOL   C15720237   4.594   4.041   0.697 -0.3748 -0.0719  0.0782
   41MOL   C15820238   4.653   3.919   0.771  0.1357 -0.0191  0.3064
   41MOL   C15920239   4.742   3.952   0.894  0.0996  0.0347 -0.7709
   41MOL   C16020240   4.871   4.012   0.855 -0.3597 -0.0991 -0.5636
   41MOL   H16120241   4.331   4.056   0.144  0.0282 -0.3397  1.7154
   41MOL   H16220242   4.224   4.174   0.109  0.6667  1.4616  1.1707
   41MOL   H16320243   4.230   4.226   0.375  1.5517  1.3207  0.3520
   41MOL   H16420244   4.374   4.194   0.565  0.4841  0.4035  0.4510
   41MOL   H16520245   4.531   4.206   0.491 -0.7716  0.1799 -1.6648
   41MOL   H16620246   4.582   3.973   0.500  0.6187 -1.5785  1.9782
   41MOL   H16720247   4.432   3.943   0.592  0.0399 -0.4132  0.9235
   41MOL   H16820248   4.669   4.115   0.668 -1.5477  1.0922 -0.0013
   41MOL   H16920249   4.542   4.106   0.768  1.3185  2.6734 -1.1221
   41MOL   H17020250   4.566   3.873   0.818  0.6614 -1.7450 -0.3817
   41MOL   H17120251   4.696   3.852   0.697 -0.5201 -0.7003  0.5374
   41MOL   H17220252   4.704   4.032   0.958  2.1561  0.1317  0.3714
   41MOL   H17320253   4.757   3.861   0.953  0.4415  1.5969  1.6461
   41MOL   H17420254   4.942   3.958   0.792 -0.8677  1.3452 -2.4208
   41MOL   H17520255   4.849   4.107   0.807 -3.1825 -1.5361 -2.2182
   41MOL   H17620256   4.931   4.045   0.940 -0.1972 -1.3027 -0.2096
   41MOL   C17720257   4.382   4.308   0.255  0.2344 -0.0439  0.1655
   41MOL   C17820258   4.523   4.284   0.199  0.1086  0.1184 -0.0538
   41MOL   O17920259   4.519   4.195   0.087  0.1941 -0.0138  0.6672
   41MOL   C18020260   4.615   4.085   0.068 -0.2398  0.2156  0.0462
   41MOL   C18120261   4.578   4.005   7.716  0.0812 -0.0149  0.3910
   41MOL   C18220262   4.632   4.049   7.579 -0.3662  0.2028  0.8999
   41MOL   C18320263   4.573   3.969   7.460 -0.3134 -0.2375  0.2408
   41MOL   C18420264   4.626   4.015   7.331 -0.3033  0.2755 -0.0171
   41MOL   C18520265   4.750   3.941   7.280  0.3086  0.2487  0.5385
   41MOL   H18620266   4.326   4.354   0.173  0.5334  2.3887  1.2683
   41MOL   H18720267   4.394   4.387   0.328  0.4055  2.7884 -2.7883
   41MOL   H18820268   4.580   4.224   0.269 -0.1173  0.7382  0.6602
   41MOL   H18920269   4.622   4.030   0.162  2.0078  0.5606  0.1187
   41MOL   H19020270   4.717   4.122   0.058  0.6044 -1.5393  1.8004
   41MOL   H19120271   4.472   3.978   7.718 -0.1777  0.9930  0.9667
   41MOL   H19220272   4.624   3.907   7.724  1.8023  0.5828 -1.7137
   41MOL   H19320273   4.589   4.149   7.575 -0.3452  0.1727 -0.5858
   41MOL   H19420274   4.741   4.047   7.581 -0.4112 -1.7060  2.5815
   41MOL   H19520275   4.591   3.864   7.485  2.3096  0.2069  0.4470
   41MOL   H19620276   4.465   3.972   7.446 -0.4142  0.2246  1.0989
   41MOL   H19720277   4.547   3.995   7.258  0.9317 -1.4018 -0.9247
   41MOL   H19820278   4.652   4.121   7.325 -0.9612  0.4139 -0.5914
   41MOL   H19920279   4.823   3.929   7.360  0.7050  2.1994  0.4989
   41MOL   H20020280   4.714   3.848   7.234  2.0154  0.2395 -0.8074
   41MOL   H20120281   4.790   4.002   7.199 -1.2847  1.1260  0.3947
   41MOL   C20220282   4.595   4.412   0.174 -0.3565  0.4800  0.2114
   41MOL   C20320283   4.743   4.391   0.131 -0.1569 -0.3665  0.0574
   41MOL   O20420284   4.811   4.507   0.171 -0.1707  0.3471 -0.1381
   41MOL   C20520285   4.929   4.488   0.241  0.5283  0.5790  0.1192
   41MOL   C20620286   5.017   4.610   0.231 -0.1625  0.4616  0.1147
   41MOL   C20720287   5.071   4.635   0.087  0.0741 -0.2373  0.7377
   41MOL   C20820288   5.134   4.771   0.066 -0.0432 -0.1840  0.4075
   41MOL   C20920289   5.261   4.798   0.155 -0.4797 -0.5027 -0.3318
   41MOL   C21020290   5.327   4.931   0.137 -1.0761 -0.4593 -0.0250
   41MOL   H21120291   4.545   4.461   0.091  1.9267  1.8079 -0.4102
   41MOL   H21220292   4.592   4.474   0.264  1.5374 -0.5177  0.9926
   41MOL   H21320293   4.779   4.304   0.186 -0.6318 -0.9680 -0.5805
   41MOL   H21420294   4.973   4.394   0.210 -1.2573  0.0202 -0.8341
   41MOL   H21520295   4.906   4.470   0.346  0.1620  2.0455  0.3044
   41MOL   H21620296   5.099   4.616   0.303 -0.1604  0.8095  0.0863
   41MOL   H21720297   4.945   4.688   0.258 -1.0093  0.3977 -1.8962
   41MOL   H21820298   5.135   4.557   0.047 -0.9224  0.1776 -1.7476
   41MOL   H21920299   4.987   4.625   0.018 -0.1673 -2.2780  1.2726
   41MOL   H22020300   5.178   4.772   7.743  1.8686  2.0226  1.2276
   41MOL   H22120301   5.058   4.848   0.072 -0.8047 -0.7074 -2.1021
   41MOL   H22220302   5.241   4.780   0.261 -2.0875 -0.3656 -0.6068
   41MOL   H22320303   5.341   4.730   0.125  2.6729  2.8493  0.0755
   41MOL   H22420304   5.300   4.994   0.222  2.9588  3.5107 -1.4654
   41MOL   H22520305   5.435   4.920   0.139 -0.7584  1.9888 -1.4258
   41MOL   H22620306   5.314   4.981   0.041 -0.7125 -1.2280 -0.4776
   41MOL   C22720307   4.752   4.383   7.755  0.0398 -0.4343 -0.9466
   41MOL   C22820308   4.890   4.350   7.705 -0.0945 -0.1488 -1.1247
   41MOL   O22920309   4.927   4.214   7.751  0.0433 -0.2838 -0.1382
   41MOL   C23020310   5.059   4.189   7.774 -0.1789 -0.5230 -0.3444
   41MOL   C23120311   5.066   4.055   0.072  0.2380  0.6480  0.0318
   41MOL   C23220312   5.029   4.082   0.217  0.6457  0.1349 -0.4194
   41MOL   C23320313   5.037   3.960   0.298  0.5072 -0.3867 -0.2151
   41MOL   C23420314   4.993   3.986   0.452 -0.0767 -0.2434 -0.0115
   41MOL   C23520315   5.078   4.097   0.523 -0.1621 -0.4418  0.6307
   41MOL   H23620316   4.686   4.304   7.719  0.0869  0.1967 -2.4225
   41MOL   H23720317   4.701   4.470   7.715  1.8779  0.2794 -1.8205
   41MOL   H23820318   4.962   4.414   7.757  0.9453 -1.0634 -1.4264
   41MOL   H23920319   5.116   4.257   0.060 -1.1382 -0.5756  0.5893
   41MOL   H24020320   5.113   4.190   7.679  1.9215 -1.7771  0.8005
   41MOL   H24120321   5.169   4.019   0.075 -0.8806 -2.7749 -0.0791
   41MOL   H24220322   5.003   3.980   0.025  1.7814 -0.6468 -0.0254
   41MOL   H24320323   5.092   4.157   0.264  0.6129 -1.7500  2.7333
   41MOL   H24420324   4.924   4.112   0.221  0.4993 -0.5387  1.1522
   41MOL   H24520325   4.972   3.882   0.259 -0.5245  1.3898 -2.1067
   41MOL   H24620326   5.141   3.926   0.297  0.1369 -1.5549 -0.2205
   41MOL   H24720327   4.893   4.029   0.458  0.0260  0.1593 -0.9621
   41MOL   H24820328   4.992   3.893   0.507 -0.5630 -1.0775 -1.4111
   41MOL   H24920329   5.184   4.077   0.511 -0.5047 -0.9169 -1.7109
   41MOL   H25020330   5.072   4.196   0.478  0.7183 -0.6258  0.1087
   41MOL   H25120331   5.053   4.103   0.629  0.0929  0.9870  0.6296
   41MOL   C25220332   4.910   4.341   7.549  0.6040  0.1312  0.7562
   41MOL   C25320333   4.918   4.476   7.467 -0.0389  0.3934  0.9302
   41MOL   O25420334   4.882   4.448   7.330  0.0525 -0.4776  0.2766
   41MOL   C25520335   4.747   4.453   7.302  0.6632  0.1849 -0.2369
   41MOL   C25620336   4.731   4.476   7.155  0.1254  0.2696 -0.3198
   41MOL   C25720337   4.785   4.607   7.096  0.4053  0.7473  0.3128
   41MOL   C25820338   4.702   4.740   7.114 -0.1463  0.4406 -0.1428
   41MOL   C25920339   4.582   4.739   7.013 -0.0781  0.1199  0.1690
   41MOL   C26020340   4.493   4.871   7.018 -0.3730  0.8337 -0.2243
   41MOL   H26120341   4.994   4.276   7.526 -0.9390 -2.1278  1.3691
   41MOL   H26220342   4.826   4.289   7.503  0.1623  1.0628  0.4874
   41MOL   H26320343   4.855   4.547   7.520 -1.5372  0.0020 -0.3155
   41MOL   H26420344   4.707   4.527   7.372 -1.6430 -1.0040 -0.2372
   41MOL   H26520345   4.706   4.358   7.337 -0.3513  1.2242  1.4782
   41MOL   H26620346   4.624   4.469   7.136  0.3717 -1.3261 -1.1646
   41MOL   H26720347   4.781   4.397   7.099  1.7481  0.1911  1.2292
   41MOL   H26820348   4.876   4.617   7.156 -1.2623  1.2840  2.8266
   41MOL   H26920349   4.794   4.595   6.988 -1.2869 -2.7268  0.5045
   41MOL   H27020350   4.659   4.747   7.214 -0.0112  1.5889 -0.1586
   41MOL   H27120351   4.771   4.824   7.102 -0.4440  0.8710  1.1092
   41MOL   H27220352   4.627   4.744   6.914  1.5193 -0.6672  0.8404
   41MOL   H27320353   4.517   4.653   7.021  1.4474 -0.9544  1.3749
   41MOL   H27420354   4.438   4.885   6.925 -0.6750 -3.9495 -0.9405
   41MOL   H27520355   4.411   4.855   7.088  0.9800 -1.3218  0.9363
   41MOL   H27620356   4.563   4.950   7.045  0.4149 -0.5082  1.7632
   41MOL   C27720357   5.069   4.513   7.465  0.0942  0.4856  0.6282
   41MOL   C27820358   5.084   4.654   7.409 -0.1492  0.5354 -0.2926
   41MOL   O27920359   5.008   4.749   7.491  0.1721  0.7006  0.2559
   41MOL   C28020360   4.936   4.843   7.416  0.1636  0.2061  0.2188
   41MOL   C28120361   4.890   4.953   7.494  0.0311 -0.1012  0.5200
   41MOL   C28220362   5.013   5.029   7.551  1.0914  0.8526 -0.0605
   41MOL   C28320363   4.972   5.111   7.672 -0.0854 -0.7571 -0.1906
   41MOL   C28420364   5.074   5.204   7.739 -0.1036  0.2140 -0.1757
   41MOL   C28520365   5.032   5.249   0.103 -0.6074 -0.3738  0.3521
   41MOL   H28620366   5.117   4.519   7.563  0.0204  0.6499  0.6527
   41MOL   H28720367   5.113   4.435   7.403 -0.7269  0.1891  0.4146
   41MOL   H28820368   5.057   4.661   7.304 -0.9019 -0.1139 -0.1432
   41MOL   H28920369   4.848   4.789   7.381  0.9763 -1.2013  0.2919
   41MOL   H29020370   4.990   4.882   7.330  2.4155 -2.1803  0.4773
   41MOL   H29120371   4.829   4.917   7.576 -1.6233  0.0281 -0.6424
   41MOL   H29220372   4.827   5.021   7.438  0.8113  0.5069  0.3714
   41MOL   H29320373   5.078   4.948   7.583  0.4287 -0.2543 -1.4237
   41MOL   H29420374   5.055   5.093   7.472 -1.4647  1.1371 -1.2495
   41MOL   H29520375   4.876   5.160   7.656 -0.2706 -1.1496 -0.2987
   41MOL   H29620376   4.954   5.035   7.748 -1.6032 -0.5113 -0.2803
   41MOL   H29720377   5.170   5.154   7.735  0.3820  1.2690 -2.4431
   41MOL   H29820378   5.088   5.284   7.667 -1.0970  0.4335 -0.1391
   41MOL   H29920379   5.021   5.167   0.174 -0.5694  0.2070  1.0389
   41MOL   H30020380   5.102   5.321   0.146  0.1881 -1.3747  0.7329
   41MOL   H30120381   4.927   5.279   0.106  0.1349  2.3631  0.8397
   41MOL   C30220382   5.237   4.691   7.401  0.1190 -0.6579 -0.1756
   41MOL   C30320383   5.275   4.786   7.283  0.0676 -0.4422 -0.3847
   41MOL   O30420384   5.409   4.762   7.241  0.4804  0.8146  0.5746
   41MOL   C30520385   5.426   4.650   7.154  0.3791  0.0092  0.0449
   41MOL   C30620386   5.577   4.665   7.116 -0.5642  0.2640  0.5475
   41MOL   C30720387   5.618   4.780   7.028  0.0776 -0.3494  1.1350
   41MOL   C30820388   5.756   4.777   6.965  0.3255  0.4290 -1.0092
   41MOL   C30920389   5.801   4.905   6.902 -1.1271  0.2415 -0.0182
   41MOL   C31020390   5.957   4.899   6.869  0.3464  0.2936  0.2982
   41MOL   H31120391   5.272   4.728   7.497  1.5508  1.0174 -1.3206
   41MOL   H31220392   5.294   4.600   7.380  0.0223 -0.1671 -2.7737
   41MOL   H31320393   5.206   4.767   7.201 -0.2570  1.3849 -0.5614
   41MOL   H31420394   5.357   4.650   7.070  2.4030  1.7740 -1.6862
   41MOL   H31520395   5.409   4.555   7.204 -1.5279  0.7130  0.7616
   41MOL   H31620396   5.605   4.573   7.067  0.5516  1.4694 -1.1317
   41MOL   H31720397   5.643   4.662   7.203  3.3869  0.0743 -2.3382
   41MOL   H31820398   5.549   4.783   6.944  2.9716  0.6988 -1.2585
   41MOL   H31920399   5.600   4.874   7.081  0.4587  0.5997 -0.3980
   41MOL   H32020400   5.823   4.744   7.045 -2.1304  0.5446  1.1899
   41MOL   H32120401   5.756   4.695   6.893 -1.4948  0.2161 -0.7857
   41MOL   H32220402   5.741   4.935   6.817  0.7897  1.3820 -1.0208
   41MOL   H32320403   5.767   4.989   6.963 -0.6259  2.0489 -2.1777
   41MOL   H32420404   5.992   4.998   6.837 -0.9863  0.9538  0.8567
   41MOL   H32520405   6.019   4.868   6.953  0.4842 -0.5368 -0.1062
   41MOL   H32620406   5.964   4.833   6.783  0.1950  0.4091  0.1962
   41MOL   C32720407   5.295   4.930   7.327 -0.4996 -0.5365 -0.1964
   41MOL   C32820408   5.240   5.039   7.229  0.0656  0.7228 -0.2555
   41MOL   O32920409   5.310   5.164   7.254 -0.0127 -0.2630  0.2583
   41MOL   C33020410   5.258   5.240   7.356  0.1736 -0.2762 -0.0489
   41MOL   C33120411   5.351   5.357   7.373 -0.0204  0.4515 -0.1339
   41MOL   C33220412   5.304   5.449   7.484  0.4038  0.1916  0.3355
   41MOL   C33320413   5.383   5.586   7.487  0.7320  0.0067  0.7895
   41MOL   C33420414   5.361   5.678   7.366 -0.3025  0.3208  0.6893
   41MOL   C33520415   5.213   5.713   7.336 -0.4370 -0.4433  0.4447
   41MOL   H33620416   5.399   4.954   7.351 -0.4751 -0.8354  0.0013
   41MOL   H33720417   5.235   4.965   7.412 -4.5010  2.0025 -3.8229
   41MOL   H33820418   5.135   5.060   7.247  0.4972  1.7339  1.1289
   41MOL   H33920419   5.263   5.185   7.450 -1.0945 -1.2488 -0.5341
   41MOL   H34020420   5.157   5.262   7.322  0.0201 -3.8241 -2.2312
   41MOL   H34120421   5.350   5.408   7.277  0.8566 -2.8997 -2.0038
   41MOL   H34220422   5.451   5.321   7.398 -0.1940 -0.2883 -0.4745
   41MOL   H34320423   5.200   5.479   7.473 -0.8741 -4.5858 -1.8922
   41MOL   H34420424   5.310   5.391   7.576 -0.1017  0.4414  0.5289
   41MOL   H34520425   5.350   5.641   7.575 -0.5519  0.8377 -0.1971
   41MOL   H34620426   5.490   5.567   7.492  0.8265  0.1044 -0.6430
   41MOL   H34720427   5.415   5.765   7.404 -0.0616  0.7744 -0.6833
   41MOL   H34820428   5.401   5.631   7.276  1.5670  0.8110  1.2400
   41MOL   H34920429   5.148   5.626   7.334 -0.8940 -0.2800  3.9800
   41MOL   H35020430   5.176   5.788   7.407  0.9985  0.8936 -0.1952
   41MOL   H35120431   5.197   5.762   7.240 -0.8817 -1.4458  0.0051
   41MOL   C35220432   5.274   5.015   7.077  0.5505 -0.1440  0.0449
   41MOL   C35320433   5.220   5.119   6.976 -0.2080 -0.7132 -0.3707
   41MOL   O35420434   5.077   5.095   6.973 -0.3963 -0.4540  0.3718
   41MOL   C35520435   5.006   5.214   7.005 -0.6011  0.4516  0.3350
   41MOL   C35620436   4.859   5.176   7.038  0.7757  0.0111  0.3298
   41MOL   C35720437   4.780   5.299   7.078 -0.6681 -0.5624  0.3894
   41MOL   C35820438   4.640   5.325   7.016 -0.3020 -0.5741 -0.4380
   41MOL   C35920439   4.603   5.478   7.030  0.1184  0.3560 -0.5795
   41MOL   C36020440   4.466   5.502   6.963 -0.1874  0.4302  0.3720
   41MOL   H36120441   5.381   4.994   7.081  0.6910  0.6382  0.4911
   41MOL   H36220442   5.234   4.919   7.044  0.2481 -0.8422  2.3519
   41MOL   H36320443   5.245   5.224   6.994 -0.6246 -0.6111 -0.3804
   41MOL   H36420444   5.010   5.293   6.930 -1.6296 -0.0745 -0.2806
   41MOL   H36520445   5.046   5.269   7.090  2.6826  0.4403 -1.1253
   41MOL   H36620446   4.851   5.097   7.113  0.7846  2.3767  2.9100
   41MOL   H36720447   4.822   5.127   6.948  1.9457  1.5260 -1.0012
   41MOL   H36820448   4.773   5.298   7.187  0.7685  0.1870  0.5126
   41MOL   H36920449   4.832   5.395   7.067  2.1399 -2.1075 -0.2356
   41MOL   H37020450   4.626   5.287   6.915 -0.6708 -2.5454  0.3205
   41MOL   H37120451   4.577   5.268   7.085  0.0953  2.8719  2.9169
   41MOL   H37220452   4.590   5.505   7.135 -2.1319 -0.3721 -0.6374
   41MOL   H37320453   4.676   5.547   6.988 -1.9376  2.0746 -1.4636
   41MOL   H37420454   4.400   5.416   6.955 -0.4081  0.6966 -0.7645
   41MOL   H37520455   4.416   5.584   7.015  0.0244  0.6473  0.2349
   41MOL   H37620456   4.486   5.525   6.858  1.4030 -3.6656 -0.3096
   41MOL   C37720457   5.268   5.086   6.834  0.3515 -0.2684  0.0352
   41MOL   C37820458   5.366   5.190   6.780  0.0980  0.2067  0.0205
   41MOL   O37920459   5.407   5.153   6.650  0.1211 -0.0843  0.7199
   41MOL   C38020460   5.324   5.210   6.542 -0.0644 -0.0889 -0.4173
   41MOL   C38120461   5.408   5.185   6.408  0.2288 -0.3209 -0.6471
   41MOL   C38220462   5.353   5.245   6.269 -0.2548  0.4037 -0.2773
   41MOL   C38320463   5.449   5.258   6.148  0.4341  0.2926 -0.1554
   41MOL   C38420464   5.372   5.293   6.015 -0.8448 -0.3951 -0.5472
   41MOL   C38520465   5.469   5.292   5.894  0.2093  0.5967  0.0705
   41MOL   H38620466   5.314   4.987   6.841  0.1330 -0.2746  1.6432
   41MOL   H38720467   5.188   5.074   6.762  0.9864  0.2691 -0.7607
   41MOL   H38820468   5.312   5.284   6.775 -0.0413  0.1564  0.6137
   41MOL   H38920469   5.301   5.315   6.560 -1.1748  0.1246 -2.8661
   41MOL   H39020470   5.232   5.153   6.531  0.7696 -2.1502  2.5621
   41MOL   H39120471   5.421   5.077   6.398  1.6438 -0.2232  0.0280
   41MOL   H39220472   5.509   5.219   6.429  0.1807 -0.8889  0.5245
   41MOL   H39320473   5.273   5.175   6.246 -1.9061  2.1982 -0.1367
   41MOL   H39420474   5.298   5.338   6.285 -0.2073  0.4709 -0.5164
   41MOL   H39520475   5.523   5.335   6.170 -2.3966  2.4550  2.3877
   41MOL   H39620476   5.493   5.161   6.127  2.7707  1.3217 -0.1790
   41MOL   H39720477   5.294   5.222   5.987  1.5253 -1.9406 -3.4879
   41MOL   H39820478   5.321   5.388   6.032  2.0310  1.1384 -0.2260
   41MOL   H39920479   5.554   5.356   5.918  0.3583  0.2491  0.4766
   41MOL   H40020480   5.497   5.189   5.874 -1.0829  0.0181  1.1045
   41MOL   H40120481   5.421   5.338   5.808 -1.6085  0.0605  0.7671
   41MOL   C40220482   5.497   5.212   6.861 -0.0835 -0.9522  0.6104
   41MOL   C40320483   5.560   5.344   6.834 -0.8748  0.5772  0.1333
   41MOL   O40420484   5.471   5.452   6.836 -0.3484 -0.6359  0.2658
   41MOL   C40520485   5.440   5.501   6.971  0.0895 -0.6136  0.0728
   41MOL   C40620486   5.372   5.644   6.959  0.1079  0.3458  0.6042
   41MOL   C40720487   5.234   5.633   6.904 -0.4920 -0.3398  0.2252
   41MOL   C40820488   5.156   5.769   6.886  0.0207  0.3027  0.2430
   41MOL   C40920489   5.002   5.764   6.888 -0.3764  0.2276  0.3473
   41MOL   C41020490   4.933   5.905   6.924 -0.0977  0.5554 -0.4222
   41MOL   H41120491   5.562   5.130   6.834  0.3788 -0.5094  0.3697
   41MOL   H41220492   5.476   5.195   6.967 -1.1541  0.4711  0.6551
   41MOL   H41320493   5.634   5.348   6.914  0.0259 -2.5567 -0.4726
   41MOL   H41420494   5.531   5.525   7.025  0.0523  1.2819 -0.6710
   41MOL   H41520495   5.372   5.435   7.026 -0.4739  0.3744  0.5885
   41MOL   H41620496   5.430   5.706   6.891  0.3278 -0.5425 -0.0308
   41MOL   H41720497   5.374   5.700   7.053  0.5966  0.9965  0.2080
   41MOL   H41820498   5.243   5.575   6.812 -0.9707 -1.2121  0.7131
   41MOL   H41920499   5.173   5.580   6.977  0.1414  0.0388  1.0344
   41MOL   H42020500   5.189   5.843   6.959  0.6487  0.0262  0.2350
   41MOL   H42120501   5.194   5.807   6.791 -0.3615 -2.3944 -1.0392
   41MOL   H42220502   4.963   5.712   6.801  0.6409 -3.8841  2.2102
   41MOL   H42320503   4.974   5.695   6.967 -1.0844 -1.0330 -0.9909
   41MOL   H42420504   4.828   5.894   6.948 -0.0672 -1.0001 -0.9628
   41MOL   H42520505   4.985   5.960   7.002 -1.9973  1.3562  0.2989
   41MOL   H42620506   4.945   5.966   6.834  2.2890  0.6452 -0.0951
   41MOL   C42720507   5.634   5.339   6.699  0.8115 -0.6437 -0.0780
   41MOL   C42820508   5.720   5.460   6.671 -0.1743  0.2483  0.3642
   41MOL   O42920509   5.818   5.465   6.772  0.2596  0.0287 -0.1933
   41MOL   C43020510   5.923   5.366   6.762 -0.3070 -0.3043  0.1868
   41MOL   C43120511   6.043   5.405   6.853 -0.3517 -0.1961 -0.3223
   41MOL   C43220512   6.095   5.549   6.830  0.1692  0.3454  0.4516
   41MOL   C43320513   6.226   5.596   6.911 -0.3983  0.1355  0.0325
   41MOL   C43420514   6.359   5.520   6.891  0.9114 -0.1742 -0.3026
   41MOL   C43520515   6.398   5.495   6.750 -0.3785  0.0689 -0.1356
   41MOL   H43620516   5.696   5.249   6.696  0.7327 -0.6717 -1.1160
   41MOL   H43720517   5.571   5.337   6.610 -1.6419  0.7963  1.6063
   41MOL   H43820518   5.653   5.544   6.693 -2.1832 -0.5992 -2.3290
   41MOL   H43920519   5.964   5.370   6.661 -2.0625 -0.1774 -0.5323
   41MOL   H44020520   5.879   5.269   6.784  0.4577 -0.9042 -0.8531
   41MOL   H44120521   6.129   5.339   6.847 -0.0807  0.1806 -0.5937
   41MOL   H44220522   6.011   5.404   6.957 -0.5812  2.8946 -0.3030
   41MOL   H44320523   6.118   5.565   6.724 -0.2128 -2.0154 -0.0095
   41MOL   H44420524   6.013   5.619   6.849  1.4641  2.7895 -2.4973
   41MOL   H44520525   6.249   5.702   6.906  1.8473 -0.3010  0.5600
   41MOL   H44620526   6.200   5.580   7.016 -0.3752 -0.6189 -0.0757
   41MOL   H44720527   6.443   5.571   6.939  2.1828 -0.9348 -1.6853
   41MOL   H44820528   6.353   5.421   6.935 -0.4916 -0.3506 -0.8576
   41MOL   H44920529   6.328   5.424   6.706  1.2490 -0.6070 -1.6755
   41MOL   H45020530   6.395   5.587   6.691  1.3973 -0.2056 -0.6877
   41MOL   H45120531   6.498   5.452   6.748 -0.1935  0.5376 -1.4644
   41MOL   C45220532   5.767   5.481   6.526  0.4008  0.0573  0.3308
   41MOL   C45320533   5.656   5.508   6.415 -0.0794 -0.0583  0.4215
   41MOL   O45420534   5.725   5.557   6.301  0.8103  0.2405  0.4527
   41MOL   C45520535   5.816   5.472   6.235 -0.0745 -0.3006  0.3443
   41MOL   C45620536   5.847   5.541   6.099  0.1044  0.5084 -0.2579
   41MOL   C45720537   5.962   5.465   6.035  0.0887  0.9459  0.4130
   41MOL   C45820538   6.102   5.494   6.100 -0.3723  0.1479  0.8271
   41MOL   C45920539   6.212   5.448   5.998 -0.3878 -0.3576 -0.5759
   41MOL   C46020540   6.208   5.301   5.958  0.8667  0.6997  0.1151
   41MOL   H46120541   5.834   5.567   6.523 -0.9994  1.1518 -0.2672
   41MOL   H46220542   5.829   5.398   6.490 -0.0800  0.0334 -0.4595
   41MOL   H46320543   5.601   5.416   6.396 -1.3385  0.5119  1.2936
   41MOL   H46420544   5.770   5.377   6.209 -2.8971  1.3327 -0.8638
   41MOL   H46520545   5.909   5.455   6.289  0.8536  1.6637 -0.5837
   41MOL   H46620546   5.868   5.647   6.111 -1.1470  0.5222  2.1107
   41MOL   H46720547   5.753   5.532   6.044  0.2740  0.8444 -0.6122
   41MOL   H46820548   5.941   5.360   6.015 -1.0555  1.2349  0.0630
   41MOL   H46920549   5.970   5.504   5.933 -0.5958 -0.3281 -0.1271
   41MOL   H47020550   6.117   5.596   6.135  2.1556 -0.3564  1.3572
   41MOL   H47120551   6.113   5.440   6.195 -2.0449 -1.0922  0.3459
   41MOL   H47220552   6.211   5.514   5.911 -0.6011  0.9426  0.3961
   41MOL   H47320553   6.308   5.448   6.050  0.3205 -1.1321 -1.8634
   41MOL   H47420554   6.271   5.274   5.873  2.0454  2.2057  0.4855
   41MOL   H47520555   6.247   5.242   6.041 -0.7845  1.2821  1.3437
   41MOL   H47620556   6.106   5.276   5.927  1.5801 -0.0133 -1.7427
   41MOL   C47720557   5.551   5.601   6.465 -0.3078 -0.1177  0.2367
   41MOL   C47820558   5.457   5.632   6.346  0.1643  0.7045  0.7846
   41MOL   O47920559   5.356   5.718   6.391  0.5637 -0.0336  0.2283
   41MOL   C48020560   5.284   5.675   6.496  0.0407  0.4707  0.2156
   41MOL   C48120561   5.150   5.753   6.494  0.1211 -0.4285 -0.1504
   41MOL   C48220562   5.168   5.904   6.510 -0.6308  0.5186 -0.4667
   41MOL   C48320563   5.038   5.977   6.488 -0.1721  0.1200  0.5406
   41MOL   C48420564   5.051   6.138   6.483  0.2222 -0.6419 -0.5101
   41MOL   C48520565   5.085   6.197   6.627  0.3511  0.3957  0.2299
   41MOL   H48620566   5.496   5.538   6.535 -0.7913 -2.6839 -2.3461
   41MOL   H48720567   5.603   5.684   6.513  0.0017  0.5828 -1.2867
   41MOL   H48820568   5.497   5.691   6.263  0.9971 -2.6724 -1.3131
   41MOL   H48920569   5.333   5.686   6.593  1.2219 -0.9466 -0.1970
   41MOL   H49020570   5.265   5.567   6.490 -1.7963  0.7649  0.4327
   41MOL   H49120571   5.087   5.719   6.575  0.7853  0.5877  0.7988
   41MOL   H49220572   5.105   5.722   6.399  0.5792 -0.3421 -0.4026
   41MOL   H49320573   5.204   5.931   6.609 -1.0964  2.3220 -0.7800
   41MOL   H49420574   5.239   5.946   6.439 -0.7783  1.0595 -0.2940
   41MOL   H49520575   5.010   5.954   6.385  2.1816  0.9250 -0.3151
   41MOL   H49620576   4.963   5.935   6.555  0.0813 -1.4910 -0.1429
   41MOL   H49720577   5.134   6.161   6.416 -0.1203 -0.6946 -0.9559
   41MOL   H49820578   4.970   6.193   6.434 -1.4488 -0.7584  2.0346
   41MOL   H49920579   4.996   6.184   6.688 -0.2281  0.6091 -0.5665
   41MOL   H50020580   5.167   6.140   6.671  0.2140 -0.6149 -0.7913
   41MOL   H50120581   5.121   6.299   6.620  2.6577 -0.2592  1.9489
   41MOL   H50220582   5.408   5.543   6.307  1.1235 -0.2832  1.7769
   42MOL     C120583   0.643   3.134   4.852  0.0840  0.3263  0.4212
   42MOL     C220584   0.512   3.211   4.819 -0.8718 -0.4934  0.1356
   42MOL     O320585   0.548   3.350   4.820 -0.1007 -0.0713  0.7218
   42MOL     C420586   0.622   3.402   4.713 -0.1943  0.6960  0.2240
   42MOL     C520587   0.686   3.529   4.735 -0.2409  0.0619 -0.0840
   42MOL     C620588   0.812   3.516   4.818  0.4668 -0.4499 -0.7963
   42MOL     C720589   0.840   3.650   4.893 -0.3022  0.0161  0.9532
   42MOL     C820590   0.969   3.671   4.979  0.8778  0.3380 -0.2426
   42MOL     C920591   0.979   3.813   5.050  0.0317 -0.8837  0.2078
   42MOL    H1020592   0.627   3.028   4.833  1.0474  0.0483  1.1152
   42MOL    H1120593   0.737   3.159   4.803 -0.1829  1.3559  0.4229
   42MOL    H1220594   0.485   3.176   4.719 -1.4699 -1.8090  0.7421
   42MOL    H1320595   0.541   3.404   4.640 -2.1101  1.3004  2.3094
   42MOL    H1420596   0.694   3.329   4.678 -0.5922 -1.0694  2.9671
   42MOL    H1520597   0.620   3.596   4.790  1.0585 -1.2407  3.2064
   42MOL    H1620598   0.710   3.573   4.638 -1.3565 -0.6586 -0.6984
   42MOL    H1720599   0.803   3.430   4.884  3.4729 -0.4240 -0.3050
   42MOL    H1820600   0.900   3.476   4.768 -1.1941 -1.2273 -3.1824
   42MOL    H1920601   0.853   3.731   4.820  2.4277 -0.2222  1.1218
   42MOL    H2020602   0.758   3.676   4.960 -0.7617  0.6842  0.1334
   42MOL    H2120603   1.054   3.649   4.915  0.8395 -2.9197  0.7635
   42MOL    H2220604   0.965   3.597   5.059  2.5882  0.2184 -0.2436
   42MOL    H2320605   0.962   3.891   4.976  1.8572 -1.8660 -1.2908
   42MOL    H2420606   0.900   3.823   5.124  1.5870  0.4851  1.7299
   42MOL    H2520607   1.076   3.837   5.093 -0.5311  0.7721  0.5935
   42MOL    H2620608   0.650   3.124   4.960  2.5711  0.5161  0.3010
   42MOL    C2720609   0.409   3.196   4.922  0.7417  0.4158 -0.9138
   42MOL    C2820610   0.276   3.259   4.887  0.2142  0.0493 -0.3806
   42MOL    O2920611   0.230   3.214   4.762 -0.6979  0.5357  0.2959
   42MOL    C3020612   0.208   3.320   4.670  0.3825  0.7065 -0.3691
   42MOL    C3120613   0.168   3.274   4.535 -0.8166 -0.3406  0.6843
   42MOL    C3220614   0.165   3.389   4.427  0.1436 -0.2283  0.2540
   42MOL    C3320615   0.086   3.371   4.301 -0.2672  0.4668  0.0568
   42MOL    C3420616   7.714   3.361   4.323 -0.3752  0.4468  0.4363
   42MOL    C3520617   7.634   3.374   4.193 -0.3138 -0.4622  0.8828
   42MOL    H3620618   0.393   3.090   4.941  2.0575  0.0276 -1.8442
   42MOL    H3720619   0.444   3.254   5.007 -1.7910 -1.2320  1.3007
   42MOL    H3820620   0.289   3.367   4.878 -0.0391  0.1420  0.3069
   42MOL    H3920621   0.293   3.387   4.672  0.2638  0.8490 -0.1189
   42MOL    H4020622   0.122   3.374   4.710  0.6315 -0.6163  2.0427
   42MOL    H4120623   0.076   3.216   4.543  0.0022 -1.4546  2.2116
   42MOL    H4220624   0.234   3.200   4.491 -1.4279  0.8743 -2.4188
   42MOL    H4320625   0.134   3.482   4.473 -0.0607  1.1369 -2.5367
   42MOL    H4420626   0.265   3.394   4.384 -0.5338 -2.4308 -1.6790
   42MOL    H4520627   0.107   3.443   4.222  1.7942  0.7132  0.7886
   42MOL    H4620628   0.125   3.283   4.250 -0.7737 -0.1622  0.7398
   42MOL    H4720629   7.692   3.264   4.366 -1.7675  0.6179  0.1295
   42MOL    H4820630   7.683   3.438   4.394 -2.2530 -0.6296  0.8129
   42MOL    H4920631   7.529   3.351   4.210 -0.4285 -0.4457  0.2154
   42MOL    H5020632   7.637   3.476   4.157 -1.6214 -0.8675 -0.4023
   42MOL    H5120633   7.676   3.303   4.121  0.9547  3.1105 -2.0245
   42MOL    C5220634   0.165   3.223   4.988  0.3265 -0.0568 -0.2453
   42MOL    C5320635   0.203   3.258   5.136  0.3257 -0.1793 -0.1527
   42MOL    O5420636   0.221   3.394   5.120 -0.3355 -0.2838 -0.2227
   42MOL    C5520637   0.253   3.464   5.237  0.3665 -0.4379  0.3920
   42MOL    C5620638   0.300   3.603   5.202  0.6634 -0.0308 -0.2369
   42MOL    C5720639   0.176   3.674   5.127 -0.5505  0.8096 -0.7482
   42MOL    C5820640   0.219   3.808   5.063 -0.6540 -0.0547  0.3443
   42MOL    C5920641   0.273   3.904   5.163  0.0060  0.0552 -0.4212
   42MOL    C6020642   0.294   4.040   5.112 -0.8318  0.0862 -0.3637
   42MOL    H6120643   0.145   3.118   4.972  1.2370 -0.2034 -0.4852
   42MOL    H6220644   0.082   3.288   4.961 -1.2006 -0.9759  2.1710
   42MOL    H6320645   0.292   3.203   5.165 -0.2852 -1.5315 -0.7656
   42MOL    H6420646   0.329   3.405   5.289  2.0919  2.0813  0.8354
   42MOL    H6520647   0.165   3.470   5.301  0.6345 -0.9232  0.8027
   42MOL    H6620648   0.378   3.597   5.126  2.3414 -2.3478  1.6055
   42MOL    H6720649   0.341   3.663   5.283  1.5881 -0.2732 -0.5161
   42MOL    H6820650   0.133   3.602   5.058 -1.9502  0.1172  0.8163
   42MOL    H6920651   0.096   3.685   5.201  0.1383 -0.6724  0.2398
   42MOL    H7020652   0.305   3.790   4.999  0.0381 -0.7702  1.4667
   42MOL    H7120653   0.137   3.854   5.008 -1.7258 -1.2860  0.8772
   42MOL    H7220654   0.204   3.917   5.247 -0.1167  0.3051 -0.5581
   42MOL    H7320655   0.371   3.868   5.194  0.8704  1.1053 -1.8426
   42MOL    H7420656   0.327   4.102   5.196  0.4521 -0.5758 -0.3555
   42MOL    H7520657   0.374   4.053   5.040 -0.2588  1.1199  0.4473
   42MOL    H7620658   0.195   4.066   5.075 -0.9625  1.3489  0.8351
   42MOL    C7720659   0.082   3.233   5.231 -0.2924  0.7005 -0.6808
   42MOL    C7820660   0.036   3.091   5.237  0.1405 -0.1152 -0.9761
   42MOL    O7920661   7.681   3.081   5.295  0.0145  0.4056 -0.0798
   42MOL    C8020662   7.568   3.099   5.218 -0.1489 -0.2459 -0.1587
   42MOL    C8120663   7.438   3.117   5.296  0.4051 -0.2230  0.0900
   42MOL    C8220664   7.403   2.998   5.389 -0.2199  0.1831  0.0302
   42MOL    C8320665   7.297   3.025   5.490 -0.0100 -0.0703  0.3677
   42MOL    C8420666   7.346   3.096   5.611 -0.2455  0.3314  0.1413
   42MOL    C8520667   7.238   3.134   5.707 -0.3884  0.1524 -0.6004
   42MOL    H8620668   0.007   3.304   5.198 -1.1116  0.0228 -0.2980
   42MOL    H8720669   0.110   3.250   5.335  1.0353  1.5619 -1.1776
   42MOL    H8820670   0.029   3.053   5.135 -1.4361 -0.7912 -0.6210
   42MOL    H8920671   7.564   3.011   5.153  1.4515  0.3454 -1.0795
   42MOL    H9020672   7.590   3.192   5.166  0.8847 -0.1826  0.3826
   42MOL    H9120673   7.352   3.139   5.233  0.4976 -0.8520 -0.2583
   42MOL    H9220674   7.446   3.205   5.360 -0.0888  0.6168 -0.9877
   42MOL    H9320675   7.363   2.922   5.323  0.9598 -0.4207 -0.0169
   42MOL    H9420676   7.498   2.968   5.436 -0.3282  3.1881  2.3300
   42MOL    H9520677   7.224   3.077   5.428  0.6999 -0.0490 -0.4711
   42MOL    H9620678   7.243   2.935   5.521  0.0778  0.3501  1.7841
   42MOL    H9720679   7.416   3.035   5.667  0.0951  0.6797  0.0930
   42MOL    H9820680   7.396   3.187   5.580 -0.7094  0.0464 -1.5016
   42MOL    H9920681   7.221   3.052   5.777  0.7198 -0.0782 -0.5937
   42MOL   H10020682   7.275   3.215   5.770  0.4054 -1.8277  1.5301
   42MOL   H10120683   7.141   3.144   5.658 -0.4841  2.9356  0.0411
   42MOL   C10220684   0.129   2.998   5.319 -0.5342  0.7676 -0.2525
   42MOL   C10320685   0.104   2.851   5.297 -0.8418  0.6844 -0.1666
   42MOL   O10420686   0.217   2.783   5.356 -0.7178 -0.0135 -0.5434
   42MOL   C10520687   0.305   2.701   5.283  0.2507  0.3643  0.2153
   42MOL   C10620688   0.389   2.614   5.376  0.1031  0.2023  0.4231
   42MOL   C10720689   0.304   2.519   5.469 -0.0329  0.8809  0.1079
   42MOL   C10820690   0.382   2.420   5.544 -0.0304 -0.0623 -0.3924
   42MOL   C10920691   0.434   2.456   5.687 -0.0466  0.0392  0.3393
   42MOL   C11020692   0.318   2.486   5.779  0.4408  0.3350 -0.6878
   42MOL   H11120693   0.233   3.016   5.295  0.4428 -2.2247  1.3728
   42MOL   H11220694   0.127   3.027   5.424  0.2222 -0.0185 -0.0089
   42MOL   H11320695   0.097   2.829   5.191 -0.3070  1.4655 -0.3679
   42MOL   H11420696   0.379   2.769   5.242 -0.2707  0.7955 -0.0081
   42MOL   H11520697   0.260   2.650   5.197  0.9415 -0.9614  0.6262
   42MOL   H11620698   0.450   2.678   5.439 -0.5400  0.9997  0.2416
   42MOL   H11720699   0.459   2.541   5.336  0.2765 -0.0005  1.0880
   42MOL   H11820700   0.238   2.571   5.539 -1.3379 -0.5970  0.0032
   42MOL   H11920701   0.234   2.467   5.404  0.4328  0.5129 -0.0950
   42MOL   H12020702   0.311   2.338   5.555 -0.4755  0.6409  2.4665
   42MOL   H12120703   0.461   2.384   5.479 -2.1872 -2.7595 -1.6310
   42MOL   H12220704   0.484   2.369   5.730 -0.6444  0.2367  1.4651
   42MOL   H12320705   0.500   2.542   5.689  1.8332 -1.3741  0.3258
   42MOL   H12420706   0.221   2.440   5.757  0.2066  0.8259 -0.6788
   42MOL   H12520707   0.334   2.477   5.887  3.8121  0.7705 -1.1308
   42MOL   H12620708   0.287   2.589   5.766 -2.0046 -0.0351  1.4693
   42MOL   C12720709   7.758   2.792   5.364  0.0876  1.0526 -0.5343
   42MOL   C12820710   7.739   2.644   5.366  0.2157 -0.2895  0.5282
   42MOL   O12920711   7.722   2.587   5.232  0.2384  0.4744 -0.5320
   42MOL   C13020712   7.766   2.455   5.214  0.2018 -0.9800  0.4101
   42MOL   C13120713   7.761   2.417   5.065  0.1155  0.1840  0.0378
   42MOL   C13220714   0.035   2.286   5.022 -0.3335  0.5393 -0.5352
   42MOL   C13320715   0.026   2.264   4.871 -0.2723  0.2681  0.3221
   42MOL   C13420716   0.086   2.130   4.827  0.5085 -0.3470 -0.0840
   42MOL   C13520717   0.016   2.007   4.889  0.2647 -0.1367 -0.8683
   42MOL   H13620718   7.752   2.834   5.465 -1.8003 -0.3628 -0.0275
   42MOL   H13720719   7.674   2.829   5.305 -0.4155 -1.1216 -1.2071
   42MOL   H13820720   0.051   2.594   5.405  0.7601  0.9570  0.9204
   42MOL   H13920721   7.700   2.392   5.275 -1.2601 -0.0492 -0.1867
   42MOL   H14020722   0.093   2.442   5.240  0.6961 -2.8552 -2.2276
   42MOL   H14120723   0.045   2.492   5.017 -0.2769  1.1947  1.0996
   42MOL   H14220724   7.662   2.442   5.027  0.2848  1.9098  0.7094
   42MOL   H14320725   0.133   2.270   5.067 -0.5955  1.8919  0.5613
   42MOL   H14420726   7.758   2.210   5.079  0.6347  0.1726 -0.0981
   42MOL   H14520727   7.701   2.284   4.840 -0.0547 -0.0007 -0.5940
   42MOL   H14620728   0.081   2.341   4.816  1.4790 -2.2004 -1.5065
   42MOL   H14720729   0.084   2.121   4.718  0.3458 -1.1804 -0.0172
   42MOL   H14820730   0.191   2.144   4.852  0.6843 -1.3306 -0.2641
   42MOL   H14920731   0.055   1.916   4.845  0.7025 -0.6608  0.5629
   42MOL   H15020732   0.034   2.004   4.997 -0.3417 -1.5075 -0.8033
   42MOL   H15120733   7.685   2.017   4.881  0.4629  3.3436 -0.0129
   42MOL   C15220734   7.607   2.603   5.445  0.7076 -0.1602 -0.1272
   42MOL   C15320735   7.594   2.641   5.599 -0.2285 -0.1436 -0.1319
   42MOL   O15420736   7.473   2.583   5.654 -0.1693 -0.1720  0.4799
   42MOL   C15520737   7.355   2.654   5.628 -0.2318 -0.0067 -0.2016
   42MOL   C15620738   7.253   2.624   5.736 -0.3939  0.2601  0.1818
   42MOL   C15720739   7.290   2.706   5.855  0.1172 -0.1116  0.4886
   42MOL   C15820740   7.199   2.692   5.975 -0.0768 -0.0413  0.5924
   42MOL   C15920741   7.265   2.585   6.065  0.2693  0.5681  0.8466
   42MOL   C16020742   7.172   2.535   6.183  0.1008 -0.8441 -0.2231
   42MOL   H16120743   7.523   2.645   5.390  0.8582 -0.0736 -0.2961
   42MOL   H16220744   7.600   2.495   5.434 -1.2755  0.0066 -0.5880
   42MOL   H16320745   7.600   2.750   5.597  1.5210 -0.2688 -2.1329
   42MOL   H16420746   7.318   2.613   5.533 -2.4263  0.5101  0.4066
   42MOL   H16520747   7.363   2.761   5.614 -0.0959 -0.2193 -1.8828
   42MOL   H16620748   7.232   2.519   5.758  0.5138  0.1407  0.5392
   42MOL   H16720749   7.154   2.651   5.701  0.1149  2.4686  0.3298
   42MOL   H16820750   7.394   2.698   5.888 -0.2548 -2.4469  1.1684
   42MOL   H16920751   7.286   2.811   5.827 -0.8714  0.0246  1.0889
   42MOL   H17020752   7.182   2.788   6.023 -1.2889 -0.9195  1.9674
   42MOL   H17120753   7.104   2.654   5.938 -0.1933 -1.0251  1.8520
   42MOL   H17220754   7.293   2.503   5.998 -1.6556  3.0722 -3.2362
   42MOL   H17320755   7.362   2.626   6.094  0.5086  0.1199  0.6926
   42MOL   H17420756   7.132   2.616   6.244  0.4101  0.8737 -2.2199
   42MOL   H17520757   7.079   2.491   6.145  0.6422 -2.2340  0.0382
   42MOL   H17620758   7.211   2.459   6.250 -1.3179 -0.7167  0.7628
   42MOL   C17720759   7.707   2.576   5.679 -0.0163 -0.4111  0.5548
   42MOL   C17820760   7.713   2.614   5.829 -0.2480  0.3698 -0.2571
   42MOL   O17920761   7.774   2.497   5.888 -0.4104 -0.3247 -0.0799
   42MOL   C18020762   7.727   2.460   6.022 -0.5640 -0.5349  0.5149
   42MOL   C18120763   7.766   2.310   6.020 -0.0202 -0.3958 -0.1235
   42MOL   C18220764   7.666   2.219   5.943 -0.4355 -0.6893  0.3025
   42MOL   C18320765   7.657   2.073   5.986 -0.1644  0.9994 -0.0500
   42MOL   C18420766   0.010   1.990   5.963 -0.3328  0.4310  0.0270
   42MOL   C18520767   0.052   1.976   5.813  0.4149  0.0364 -0.1313
   42MOL   H18620768   7.698   2.469   5.667 -2.0450 -0.6022  3.4864
   42MOL   H18720769   0.028   2.595   5.635 -0.5920  1.5318  0.0444
   42MOL   H18820770   7.614   2.619   5.874  0.1093  1.1455  0.4524
   42MOL   H18920771   7.620   2.476   6.037 -0.9640 -1.6467 -0.9902
   42MOL   H19020772   0.010   2.503   6.102 -0.2113 -1.4818  0.7557
   42MOL   H19120773   7.752   2.278   6.124 -0.8179 -0.3826 -0.2196
   42MOL   H19220774   0.092   2.297   5.988 -1.0259 -1.8671 -2.8924
   42MOL   H19320775   7.566   2.261   5.946 -0.4356 -0.4264 -2.1109
   42MOL   H19420776   7.699   2.220   5.839 -3.6575  0.4359 -0.7810
   42MOL   H19520777   7.632   2.073   6.092  1.1081  1.4213  0.2648
   42MOL   H19620778   7.574   2.023   5.937 -0.5321 -0.2565  1.8006
   42MOL   H19720779   0.084   2.029   6.032  0.6897 -3.6411  1.3674
   42MOL   H19820780   7.772   1.889   6.002 -0.8185  0.6396  0.3744
   42MOL   H19920781   0.123   1.895   5.793 -0.2849  0.1195 -3.1478
   42MOL   H20020782   7.747   1.947   5.748  1.2763 -1.7022 -0.4904
   42MOL   H20120783   0.088   2.069   5.769 -1.5571 -0.5119 -3.0678
   42MOL   C20220784   0.014   2.745   5.862 -0.7122  0.1619 -0.1866
   42MOL   C20320785   7.747   2.829   5.983  0.4286  0.7848 -0.4734
   42MOL   O20420786   7.625   2.882   5.947  0.4964 -0.4867  0.1455
   42MOL   C20520787   7.548   2.901   6.063  0.3420 -0.6425  0.0106
   42MOL   C20620788   7.445   3.014   6.049 -0.7305  0.6195  0.4017
   42MOL   C20720789   7.510   3.149   6.005 -0.3236 -0.0163 -0.0600
   42MOL   C20820790   7.396   3.252   6.019  0.7424  0.1796  0.1547
   42MOL   C20920791   7.440   3.387   5.964 -0.0455  0.3306 -0.0067
   42MOL   C21020792   7.326   3.490   5.963 -0.6355  0.0904  0.4014
   42MOL   H21120793   0.119   2.715   5.866 -1.1653 -1.4751 -0.2928
   42MOL   H21220794   7.774   2.797   5.767  1.0105  0.7292 -0.2098
   42MOL   H21320795   7.741   2.762   6.068 -1.3206  0.4507 -0.8441
   42MOL   H21420796   7.616   2.935   6.141 -0.1505 -0.8599  0.5309
   42MOL   H21520797   7.502   2.809   6.098  2.3376 -1.1900  1.2845
   42MOL   H21620798   7.395   3.035   6.143 -0.0116  0.6300  0.7833
   42MOL   H21720799   7.368   2.993   5.975  1.7738  0.2332 -2.1993
   42MOL   H21820800   7.596   3.170   6.069  0.9040  0.3787 -1.8058
   42MOL   H21920801   7.548   3.131   5.905  1.8616 -1.5622  0.9903
   42MOL   H22020802   7.311   3.218   5.960  0.9180 -0.4343  0.2538
   42MOL   H22120803   7.363   3.256   6.123  1.3786  0.4371  0.3552
   42MOL   H22220804   7.526   3.431   6.014 -3.1941  4.3963  2.1071
   42MOL   H22320805   7.476   3.372   5.862 -0.7515 -1.5003 -0.0139
   42MOL   H22420806   7.247   3.459   5.895 -2.1789 -1.0468  2.6499
   42MOL   H22520807   7.294   3.514   6.064  0.2290  0.2428  0.6504
   42MOL   H22620808   7.360   3.579   5.910 -0.5574 -0.0306  0.2480
   42MOL   C22720809   0.066   2.947   6.011 -0.0922 -0.4157 -0.0487
   42MOL   C22820810   0.208   2.909   6.069  0.7165  0.4017 -0.5714
   42MOL   O22920811   0.268   3.031   6.118  0.0232  0.0520 -0.4140
   42MOL   C23020812   0.368   3.085   6.030 -0.4920 -0.3262  0.4396
   42MOL   C23120813   0.387   3.222   6.099  0.3770 -0.9472 -0.1335
   42MOL   C23220814   0.471   3.323   6.034 -0.1947 -0.4344 -0.1473
   42MOL   C23320815   0.488   3.449   6.125  0.0514  0.1170  0.0327
   42MOL   C23420816   0.580   3.551   6.065 -0.0055  0.3223  0.0979
   42MOL   C23520817   0.521   3.644   5.954 -0.1163  0.0315 -0.9305
   42MOL   H23620818   0.090   3.011   5.927 -0.5498 -1.2601 -0.8257
   42MOL   H23720819   0.026   3.015   6.086 -2.5045  1.3128 -2.8302
   42MOL   H23820820   0.274   2.869   5.991  0.2192  2.0433 -1.8723
   42MOL   H23920821   0.344   3.099   5.925  0.1616 -1.3976  0.1479
   42MOL   H24020822   0.461   3.029   6.024  0.5900  1.7576 -3.8962
   42MOL   H24120823   0.422   3.211   6.202 -0.9480  1.1902  0.5695
   42MOL   H24220824   0.288   3.263   6.120 -0.0378 -1.9436 -0.1137
   42MOL   H24320825   0.571   3.289   6.005 -0.4123 -1.8709  0.7676
   42MOL   H24420826   0.420   3.345   5.939 -0.5772 -1.5778 -0.2176
   42MOL   H24520827   0.393   3.496   6.149  1.0952  1.3020  1.9609
   42MOL   H24620828   0.532   3.419   6.220 -1.2373  1.9124  1.2203
   42MOL   H24720829   0.614   3.616   6.145  1.0308  0.6471 -0.5940
   42MOL   H24820830   0.671   3.500   6.032  0.1358 -0.6848  1.9758
   42MOL   H24920831   0.598   3.684   5.888  0.5445  0.2994 -0.0095
   42MOL   H25020832   0.451   3.591   5.890 -1.4976 -0.3210  0.8322
   42MOL   H25120833   0.460   3.723   5.997  1.2958  0.1593  0.9069
   42MOL   C25220834   0.192   2.809   6.189 -0.4122 -0.7709  0.1128
   42MOL   C25320835   0.325   2.783   6.258  0.2546  0.1368 -0.2255
   42MOL   O25420836   0.401   2.723   6.152  0.2531 -0.3938 -0.2021
   42MOL   C25520837   0.540   2.703   6.174 -0.1145  0.3091  0.1939
   42MOL   C25620838   0.615   2.674   6.041 -0.1299 -0.2522  0.5745
   42MOL   C25720839   0.611   2.796   5.945  0.1642 -0.5146 -0.2086
   42MOL   C25820840   0.680   2.776   5.811 -0.2259  0.4874  0.5963
   42MOL   C25920841   0.666   2.899   5.717  0.0616 -0.3955 -0.3785
   42MOL   C26020842   0.530   2.906   5.646  0.2697  0.2766  0.0537
   42MOL   H26120843   0.125   2.857   6.260 -1.0301 -0.2578 -0.7992
   42MOL   H26220844   0.145   2.715   6.160 -1.2914 -0.1790 -0.4116
   42MOL   H26320845   0.373   2.879   6.280  0.4096  0.4198 -1.7247
   42MOL   H26420846   0.550   2.616   6.239  1.7643 -0.6806 -1.3572
   42MOL   H26520847   0.580   2.788   6.230 -0.9954  0.6426  0.3252
   42MOL   H26620848   0.566   2.589   5.993  0.3300 -0.6605  0.8197
   42MOL   H26720849   0.719   2.643   6.053  0.6158  0.5566 -3.0936
   42MOL   H26820850   0.504   2.811   5.928  0.6497  2.3296 -1.1027
   42MOL   H26920851   0.639   2.887   5.999 -0.8070 -0.9534  1.0645
   42MOL   H27020852   0.783   2.751   5.833 -0.8498 -2.4992  0.2713
   42MOL   H27120853   0.650   2.685   5.760  2.4192  0.3267 -0.7303
   42MOL   H27220854   0.692   2.990   5.771 -3.1462 -0.5121  1.4745
   42MOL   H27320855   0.747   2.900   5.644 -0.8540  2.2120 -1.4461
   42MOL   H27420856   0.537   2.961   5.552 -1.3482 -0.4492 -0.5138
   42MOL   H27520857   0.483   2.818   5.602  1.4684 -0.3244 -0.0388
   42MOL   H27620858   0.453   2.952   5.707  0.5713  0.0287  0.6222
   42MOL   C27720859   0.313   2.692   6.385  0.4184 -0.2044 -0.0972
   42MOL   C27820860   0.328   2.776   6.513 -0.2068 -0.3899  0.2453
   42MOL   O27920861   0.454   2.837   6.496 -0.1821 -0.2808  0.2615
   42MOL   C28020862   0.534   2.866   6.622  0.0289  0.5002 -0.4807
   42MOL   C28120863   0.652   2.943   6.561  0.6135 -0.0081  0.3711
   42MOL   C28220864   0.749   2.944   6.673  0.8305 -0.6212 -0.2629
   42MOL   C28320865   0.879   3.009   6.636 -0.3126 -0.1980 -0.3759
   42MOL   C28420866   0.993   2.968   6.735  0.2338  0.6592  0.0516
   42MOL   C28520867   0.977   3.062   6.862 -0.5232  0.9394  0.2961
   42MOL   H28620868   0.216   2.642   6.385 -0.6930  1.8539 -1.1086
   42MOL   H28720869   0.394   2.619   6.382  1.8094  1.2597  1.2095
   42MOL   H28820870   0.335   2.707   6.597 -1.1651  0.7516  1.2718
   42MOL   H28920871   0.558   2.776   6.679 -3.0143 -0.5066 -0.6729
   42MOL   H29020872   0.477   2.936   6.682 -0.7610  0.8556 -1.6385
   42MOL   H29120873   0.628   3.049   6.560  2.7644  0.4993 -0.0376
   42MOL   H29220874   0.690   2.890   6.473 -0.3858 -0.5648  0.2588
   42MOL   H29320875   0.697   2.989   6.758  0.0477  0.1826 -1.1600
   42MOL   H29420876   0.774   2.842   6.704 -1.6193 -1.1946 -0.0719
   42MOL   H29520877   0.901   2.967   6.537 -1.2230  2.0659 -1.5803
   42MOL   H29620878   0.841   3.111   6.639  0.1860 -0.0326  0.3291
   42MOL   H29720879   0.986   2.865   6.770 -2.0733 -0.0251 -2.2693
   42MOL   H29820880   1.094   2.987   6.699 -0.0974  0.7420 -0.8369
   42MOL   H29920881   0.881   3.041   6.909 -0.9939  0.5253 -0.8194
   42MOL   H30020882   1.059   3.031   6.926 -0.9920  2.1077  1.4736
   42MOL   H30120883   0.988   3.167   6.834 -2.0059  0.6100 -1.6303
   42MOL   C30220884   0.221   2.890   6.532 -0.7459 -0.3450  0.3089
   42MOL   C30320885   0.073   2.850   6.535 -0.2984  0.5546  0.2892
   42MOL   O30420886   7.764   2.966   6.538  0.0127 -0.1193 -0.3481
   42MOL   C30520887   7.758   3.026   6.406 -0.4947  0.3752  0.1378
   42MOL   C30620888   7.654   3.141   6.403 -0.3347 -0.0777 -0.7224
   42MOL   C30720889   7.513   3.083   6.455 -0.5552  0.6410  0.2110
   42MOL   C30820890   7.428   3.177   6.541  0.0826  0.1219  0.0405
   42MOL   C30920891   7.292   3.114   6.568  0.0195  0.5154  0.1858
   42MOL   C31020892   7.201   3.094   6.451 -0.1534 -0.0773 -0.0621
   42MOL   H31120893   0.243   2.948   6.621  0.6828 -0.9597  0.3797
   42MOL   H31220894   0.238   2.963   6.453 -0.0434  1.2114  1.8772
   42MOL   H31320895   0.050   2.789   6.447 -2.2982  2.2668 -0.4348
   42MOL   H31420896   7.722   2.956   6.330 -2.2487  2.4795 -1.0591
   42MOL   H31520897   0.073   3.073   6.373  2.2349 -3.0840  2.5631
   42MOL   H31620898   7.646   3.198   6.311  1.3378  2.2275  0.5092
   42MOL   H31720899   7.695   3.213   6.474  1.6348 -0.3589 -1.5428
   42MOL   H31820900   7.459   3.041   6.370 -0.6564  1.0194  0.0900
   42MOL   H31920901   7.525   2.998   6.524 -1.7830  0.4865  0.2459
   42MOL   H32020902   7.477   3.198   6.636 -0.4529  0.4477  0.2455
   42MOL   H32120903   7.416   3.269   6.484 -0.7616  1.7162  2.7221
   42MOL   H32220904   7.291   3.019   6.623  1.4285  0.8722  0.8478
   42MOL   H32320905   7.246   3.182   6.639 -1.5227  0.6426 -0.9114
   42MOL   H32420906   7.228   3.002   6.400 -0.8576 -1.5193  2.0827
   42MOL   H32520907   7.101   3.074   6.490  0.0317 -0.5113  0.1995
   42MOL   H32620908   7.195   3.182   6.388 -1.6485  0.3824  0.6835
   42MOL   C32720909   0.040   2.760   6.654 -0.1403 -0.9131 -0.3322
   42MOL   C32820910   7.676   2.712   6.657 -0.1989 -0.0102  0.0457
   42MOL   O32920911   7.669   2.614   6.550  0.0542 -0.1535  0.2448
   42MOL   C33020912   7.585   2.655   6.443 -0.0768  0.2636  0.0233
   42MOL   C33120913   7.543   2.532   6.365  0.1592  0.2932 -0.3713
   42MOL   C33220914   7.444   2.442   6.439 -0.0041 -0.3038 -0.3590
   42MOL   C33320915   7.434   2.307   6.367  0.1560 -0.1133 -0.1809
   42MOL   C33420916   7.314   2.219   6.417 -0.1702 -0.2883  0.3806
   42MOL   C33520917   7.298   2.083   6.339  0.3242  0.2032  0.3318
   42MOL   H33620918   0.067   2.819   6.742 -2.5509 -0.5872  0.2330
   42MOL   H33720919   0.107   2.675   6.644  0.6890 -0.1748 -1.2502
   42MOL   H33820920   7.615   2.801   6.645  1.5388  0.6135 -5.9166
   42MOL   H33920921   7.639   2.726   6.380 -2.0386  1.9534  0.2033
   42MOL   H34020922   7.501   2.712   6.482 -0.3711  1.3435 -2.1046
   42MOL   H34120923   7.632   2.474   6.342  0.2033 -0.3134  1.2163
   42MOL   H34220924   7.502   2.565   6.270  1.8245  1.5008 -0.6887
   42MOL   H34320925   7.481   2.428   6.541  0.8559  2.5311 -0.2376
   42MOL   H34420926   7.343   2.483   6.439 -0.4119 -1.2684  0.1081
   42MOL   H34520927   7.412   2.335   6.264  0.0816  5.0167  1.1022
   42MOL   H34620928   7.533   2.262   6.369 -0.0936 -0.6262  0.8883
   42MOL   H34720929   7.340   2.203   6.521 -1.2251 -0.6329  0.5984
   42MOL   H34820930   7.223   2.279   6.408  0.4979  1.2120  3.0583
   42MOL   H34920931   7.273   2.095   6.233 -0.7279 -1.5084  0.3688
   42MOL   H35020932   7.391   2.025   6.333 -0.2563 -0.5773 -1.4154
   42MOL   H35120933   7.223   2.025   6.393  0.9194  0.3414  1.3266
   42MOL   C35220934   7.635   2.650   6.791  0.0800  0.3315 -0.0043
   42MOL   C35320935   7.590   2.754   6.902  0.1663  0.5612 -0.1592
   42MOL   O35420936   7.576   2.681   7.020 -0.1244  0.4466 -0.2871
   42MOL   C35520937   7.637   2.721   7.138  0.1736  0.7645 -0.5577
   42MOL   C35620938   7.633   2.604   7.240  0.1635 -0.5508  0.2954
   42MOL   C35720939   7.685   2.643   7.380 -1.0641 -0.5216  0.8977
   42MOL   C35820940   7.627   2.536   7.470  0.0152 -0.0003  0.3842
   42MOL   C35920941   7.690   2.530   7.607 -0.4904 -0.3436  0.9768
   42MOL   C36020942   7.649   2.635   7.703 -0.2071 -0.2652 -0.1768
   42MOL   H36120943   7.557   2.575   6.776 -1.3529  1.8259 -0.2248
   42MOL   H36220944   7.721   2.591   6.821  2.4073  2.8676 -1.4684
   42MOL   H36320945   7.667   2.831   6.908 -2.1995  3.2391 -2.5730
   42MOL   H36420946   7.591   2.814   7.173 -0.0621  0.3373  0.2914
   42MOL   H36520947   7.739   2.733   7.103  0.8552 -1.3555  0.6192
   42MOL   H36620948   7.690   2.517   7.207  1.1423  0.4604 -0.7516
   42MOL   H36720949   7.531   2.566   7.240  0.3951 -1.1936  0.8354
   42MOL   H36820950   0.014   2.636   7.402 -1.3674  1.8214  3.2847
   42MOL   H36920951   7.652   2.743   7.408  0.8848  0.6185 -0.7604
   42MOL   H37020952   7.520   2.550   7.485  0.0928  1.0003  0.0971
   42MOL   H37120953   7.636   2.436   7.427 -0.9781 -0.1061  0.4191
   42MOL   H37220954   7.648   2.439   7.650  0.0308  0.0280  2.3089
   42MOL   H37320955   0.021   2.522   7.618 -0.5938 -0.8325  1.7365
   42MOL   H37420956   7.714   2.621   0.013  0.1327  0.4183 -0.3209
   42MOL   H37520957   7.665   2.733   7.660  0.7164 -0.3356 -0.0020
   42MOL   H37620958   7.546   2.620   7.734 -0.1607  0.9438  0.5928
   42MOL   C37720959   7.456   2.825   6.873  0.2491 -0.2070 -0.1183
   42MOL   C37820960   7.427   2.950   6.955 -0.3482  0.5696 -0.0404
   42MOL   O37920961   7.287   2.979   6.924  0.0485  0.0078  0.5241
   42MOL   C38020962   7.197   2.993   7.032  0.3808  0.1766 -0.7775
   42MOL   C38120963   7.063   3.055   6.989  0.5573 -0.1602 -0.2676
   42MOL   C38220964   7.074   3.197   6.924 -0.9505  0.0038 -0.3987
   42MOL   C38320965   6.938   3.231   6.865 -0.2829 -0.2658  0.3208
   42MOL   C38420966   6.932   3.369   6.791 -0.3584 -0.0627 -0.1678
   42MOL   C38520967   7.034   3.401   6.689  0.0238 -0.0155  0.7811
   42MOL   H38620968   7.440   2.864   6.772  0.1275  0.7322  0.2537
   42MOL   H38720969   7.376   2.754   6.888 -0.4386  0.7007  0.5606
   42MOL   H38820970   7.458   2.931   7.057 -2.5421  0.1387  0.5639
   42MOL   H38920971   7.236   3.048   7.117  0.9384 -1.7455  0.2312
   42MOL   H39020972   7.191   2.895   7.079 -2.1744  0.3559 -0.6350
   42MOL   H39120973   6.993   3.068   7.072 -0.6671 -0.1236 -1.2859
   42MOL   H39220974   7.018   2.992   6.912  0.4547 -0.1079 -0.2499
   42MOL   H39320975   7.105   3.268   7.000  2.1540 -1.4797 -0.1994
   42MOL   H39420976   7.143   3.183   6.840 -0.8367 -1.6368 -0.0503
   42MOL   H39520977   6.914   3.163   6.783  1.9559  0.4947 -1.0053
   42MOL   H39620978   6.858   3.238   6.939 -0.5930  2.9455 -0.2201
   42MOL   H39720979   6.840   3.369   6.732  0.0445  1.3142 -0.8213
   42MOL   H39820980   6.925   3.448   6.866  3.0460  1.0856 -0.9720
   42MOL   H39920981   7.011   3.494   6.637  0.0983 -0.3424  0.1501
   42MOL   H40020982   7.135   3.387   6.728  0.4083 -0.7624 -0.4475
   42MOL   H40120983   7.029   3.328   6.609  2.1552  0.2028  0.4172
   42MOL   C40220984   7.508   3.071   6.918  0.2525  0.7531  0.9225
   42MOL   C40320985   7.504   3.191   7.007 -0.1429 -0.1441 -0.0576
   42MOL   O40420986   7.547   3.312   6.937  0.0150  1.0174  0.3358
   42MOL   C40520987   7.433   3.379   6.887  0.1278 -0.0120  0.3098
   42MOL   C40620988   7.469   3.513   6.817 -0.5486 -0.4256  0.1943
   42MOL   C40720989   7.342   3.587   6.758 -0.4833 -0.0564  0.8083
   42MOL   C40820990   7.368   3.739   6.750  0.0937  0.0516  0.2475
   42MOL   C40920991   7.247   3.811   6.688 -0.4391  0.4639 -0.6696
   42MOL   C41020992   7.238   3.796   6.538 -0.5800  0.3162  0.0144
   42MOL   H41120993   7.497   3.102   6.814  0.1099 -0.4934  0.5585
   42MOL   H41220994   7.614   3.046   6.920 -0.3833 -2.0517  1.8234
   42MOL   H41320995   7.401   3.193   7.043  0.5208  1.9863  1.8625
   42MOL   H41420996   7.367   3.402   6.970  0.0954 -0.7316  0.4875
   42MOL   H41520997   7.375   3.319   6.818 -1.8047 -1.1373  2.8056
   42MOL   H41620998   7.544   3.491   6.741  0.0451 -0.3567  0.7511
   42MOL   H41720999   7.517   3.587   6.881 -1.4491  0.1021  0.2630
   42MOL   H41821000   7.306   3.546   6.664  1.0131  1.1581 -0.3209
   42MOL   H41921001   7.259   3.572   6.827 -2.4362  1.2717 -1.2181
   42MOL   H42021002   7.394   3.770   6.851  0.3566 -1.3552  0.6274
   42MOL   H42121003   7.456   3.747   6.686 -0.1280  2.0527  0.1526
   42MOL   H42221004   7.153   3.773   6.730 -0.2733  0.5315 -0.2344
   42MOL   H42321005   7.269   3.913   6.717  0.8629 -0.5956  2.3250
   42MOL   H42421006   7.205   3.693   6.526  0.5002 -0.3736  2.5287
   42MOL   H42521007   7.158   3.852   6.492  0.9457  1.2783 -1.5217
   42MOL   H42621008   7.336   3.815   6.494  0.2257 -3.3105  0.0728
   42MOL   C42721009   7.584   3.182   7.139  0.2270  0.5081 -1.0769
   42MOL   C42821010   7.560   3.297   7.239  0.2178 -0.3123  0.4718
   42MOL   O42921011   7.568   3.249   7.371  0.0810 -0.2808  0.1347
   42MOL   C43021012   7.461   3.160   7.415 -0.0487 -0.2282  0.7218
   42MOL   C43121013   7.512   3.051   7.508  0.0326  0.2345 -0.1399
   42MOL   C43221014   7.423   2.931   7.540 -0.6022  0.0009 -0.5923
   42MOL   C43321015   7.275   2.956   7.588 -0.3193  0.5790 -0.1682
   42MOL   C43421016   7.276   3.031   7.723  0.2409 -0.9875 -0.3475
   42MOL   C43521017   7.126   3.049   0.001 -0.2306 -0.6264 -0.9118
   42MOL   H43621018   7.567   3.081   7.178 -1.7347  1.1326 -0.2629
   42MOL   H43721019   7.690   3.184   7.113  0.2669 -0.9967 -1.0869
   42MOL   H43821020   7.465   3.350   7.226  1.4564  1.4804 -1.7585
   42MOL   H43921021   7.427   3.103   7.328  1.0270 -0.4509  0.4469
   42MOL   H44021022   7.383   3.216   7.467  0.1212 -1.2367  2.0773
   42MOL   H44121023   7.541   3.095   7.604  1.7661 -0.1060 -0.4803
   42MOL   H44221024   7.606   3.020   7.462  0.9418  0.6435  1.4041
   42MOL   H44321025   7.421   2.864   7.454  3.9889  0.5063 -1.1822
   42MOL   H44421026   7.470   2.879   7.623  0.6501  1.0942 -0.6024
   42MOL   H44521027   7.221   3.013   7.513 -1.3408 -0.6354 -0.3635
   42MOL   H44621028   7.237   2.855   7.598 -0.0224  0.1700 -2.8504
   42MOL   H44721029   7.336   2.979   0.020  0.8717  2.7507  1.9136
   42MOL   H44821030   7.318   3.132   7.714 -0.1135 -0.6741  1.4169
   42MOL   H44921031   7.085   2.958   0.044  0.4620 -0.7392 -0.4927
   42MOL   H45021032   7.128   3.120   0.084 -1.9531 -1.6382  0.0137
   42MOL   H45121033   7.060   3.102   7.708  1.7851  0.7550 -1.8280
   42MOL   C45221034   7.672   3.414   7.236 -0.0934 -0.0847  0.5044
   42MOL   C45321035   7.649   3.542   7.331  0.3364  0.3108 -0.1826
   42MOL   O45421036   7.520   3.608   7.307 -0.4287 -0.4779 -0.0554
   42MOL   C45521037   7.416   3.574   7.396 -0.6634  0.0075  0.7117
   42MOL   C45621038   7.316   3.685   7.361 -0.0804 -0.3801  0.5517
   42MOL   C45721039   7.232   3.655   7.236  0.3401 -0.2431  0.1454
   42MOL   C45821040   7.205   3.779   7.144 -0.8986  0.1171 -0.4743
   42MOL   C45921041   7.106   3.750   7.030 -0.7588 -0.8664  0.7093
   42MOL   C46021042   6.961   3.733   7.070  0.2531  0.0398  0.4465
   42MOL   H46121043   7.763   3.363   7.266  0.4989  0.8659  0.3236
   42MOL   H46221044   7.681   3.456   7.136  2.0185 -0.5431  0.4733
   42MOL   H46321045   7.660   3.506   7.433  2.3683 -0.1995 -0.5546
   42MOL   H46421046   7.449   3.584   7.499  2.7681 -0.2075 -0.3082
   42MOL   H46521047   7.366   3.481   7.372 -2.0402  0.8799  0.0945
   42MOL   H46621048   7.374   3.776   7.351 -0.9139 -0.0613 -1.9316
   42MOL   H46721049   7.248   3.702   7.444 -0.5370  0.3688  0.0232
   42MOL   H46821050   7.280   3.575   7.179  1.0009 -0.8368  1.5104
   42MOL   H46921051   7.136   3.614   7.268  0.9415 -0.9242  1.1051
   42MOL   H47021052   7.166   3.866   7.198 -0.1183 -0.1081  0.4665
   42MOL   H47121053   7.304   3.802   7.105  0.8522 -2.0270  2.5995
   42MOL   H47221054   7.116   3.831   6.958  1.4121 -2.7536 -1.1795
   42MOL   H47321055   7.134   3.658   6.979 -1.6515 -1.3601  1.0986
   42MOL   H47421056   6.913   3.701   6.977 -1.9151  1.5918  0.9948
   42MOL   H47521057   6.944   3.647   7.134 -1.3108 -0.9968 -1.2812
   42MOL   H47621058   6.917   3.824   7.110 -2.5130 -1.7185  1.5912
   42MOL   C47721059   7.751   3.656   7.322 -0.1280 -0.4751  0.4875
   42MOL   C47821060   7.717   3.777   7.411  0.1899  0.4293  0.0315
   42MOL   O47921061   0.044   3.872   7.394 -0.5473 -0.3460  0.5697
   42MOL   C48021062   0.018   4.002   7.446 -0.2946  0.0002  0.5562
   42MOL   C48121063   0.080   4.111   7.357  0.1011 -0.2744  0.2065
   42MOL   C48221064   0.230   4.092   7.328  0.3587  0.7086 -0.7315
   42MOL   C48321065   0.287   4.196   7.238  0.0509  0.1306  0.5188
   42MOL   C48421066   0.437   4.179   7.209  0.0875 -0.7875 -0.1440
   42MOL   C48521067   0.480   4.294   7.122 -0.1186 -0.4442  0.3374
   42MOL   H48621068   0.079   3.634   7.341 -0.3564 -0.2660  2.0232
   42MOL   H48721069   7.748   3.696   7.220 -0.9813 -2.1338 -0.1484
   42MOL   H48821070   7.623   3.828   7.390  0.8961  1.6483 -0.1903
   42MOL   H48921071   0.051   4.011   7.549  1.4761 -1.0926  0.1168
   42MOL   H49021072   7.689   4.024   7.460  0.3236  2.6916  1.2598
   42MOL   H49121073   0.061   4.207   7.404 -0.2174 -1.4301  2.5323
   42MOL   H49221074   0.038   4.111   7.256  2.0816 -1.1259 -0.6382
   42MOL   H49321075   0.276   4.104   7.426 -2.1847 -0.4717  0.6639
   42MOL   H49421076   0.261   3.991   7.300  0.0391  0.4684 -0.2269
   42MOL   H49521077   0.238   4.192   7.141 -0.0043 -3.4104  0.6312
   42MOL   H49621078   0.273   4.290   7.292  0.6249  0.2103  0.5353
   42MOL   H49721079   0.489   4.160   7.302 -0.1280  0.6634  0.2882
   42MOL   H49821080   0.448   4.085   7.155 -1.3940 -1.4953  0.7581
   42MOL   H49921081   0.444   4.289   7.019  1.5512  0.5712 -0.3252
   42MOL   H50021082   0.450   4.391   7.163  0.4396 -1.4147  3.1467
   42MOL   H50121083   0.588   4.303   7.109 -0.3656  2.4567 -0.2037
   42MOL   H50221084   7.712   3.747   7.516 -0.7904  0.9762  0.1490
   43MOL     C121085   6.065   0.789   3.082  0.6969 -0.1163 -0.0121
   43MOL     C221086   6.194   0.700   3.046  0.0273  0.9352  0.7502
   43MOL     O321087   6.304   0.776   3.096  0.0394  0.3294  0.5126
   43MOL     C421088   6.320   0.744   3.232  0.3684  0.7845  0.1901
   43MOL     C521089   6.452   0.812   3.282 -0.6174  0.1001  0.0333
   43MOL     C621090   6.488   0.791   3.428  0.1016  0.8103 -0.4933
   43MOL     C721091   6.607   0.881   3.470  0.8170  0.0496 -0.0804
   43MOL     C821092   6.673   0.837   3.601  0.2461 -0.0046 -0.1557
   43MOL     C921093   6.791   0.929   3.643  0.3583 -1.2000 -0.2693
   43MOL    H1021094   6.073   0.876   3.146 -1.7269  0.2010 -0.0803
   43MOL    H1121095   6.004   0.822   2.998 -0.4055  0.6749  1.0987
   43MOL    H1221096   6.184   0.604   3.097  1.0754  0.1841 -0.4456
   43MOL    H1321097   6.313   0.638   3.256  0.1651  0.6402 -0.4935
   43MOL    H1421098   6.242   0.798   3.286  0.2181  0.3312  0.4318
   43MOL    H1521099   6.443   0.916   3.252 -0.2427  0.5016  1.2827
   43MOL    H1621100   6.534   0.785   3.216  1.8174 -1.7079  3.5761
   43MOL    H1721101   6.400   0.821   3.484 -1.1453  0.3981 -2.1739
   43MOL    H1821102   6.517   0.690   3.456  2.6929  1.5113 -0.5166
   43MOL    H1921103   6.675   0.868   3.386 -0.2870  1.4976 -1.2233
   43MOL    H2021104   6.578   0.986   3.464 -1.7798 -0.5812  0.7654
   43MOL    H2121105   6.718   0.739   3.585  0.3335  0.1270 -0.7401
   43MOL    H2221106   6.600   0.826   3.680 -1.4994  1.2410 -1.5393
   43MOL    H2321107   6.889   0.901   3.605  0.6526  0.0224 -0.4361
   43MOL    H2421108   6.769   1.027   3.601 -0.8731 -1.6832 -0.7873
   43MOL    H2521109   6.800   0.940   3.751 -1.4983 -1.4953 -0.0760
   43MOL    H2621110   5.993   0.722   3.129  1.6379  0.8014  2.8594
   43MOL    C2721111   6.201   0.667   2.898 -0.0646  0.5814  0.1716
   43MOL    C2821112   6.315   0.560   2.864 -0.2483 -0.3126 -0.6981
   43MOL    O2921113   6.295   0.528   2.731  0.1369  0.2429 -0.1334
   43MOL    C3021114   6.262   0.392   2.703 -0.0917  0.8806  0.3509
   43MOL    C3121115   6.113   0.372   2.714 -0.1178 -0.8167  0.0822
   43MOL    C3221116   6.078   0.234   2.683 -0.1491 -0.9945 -0.0015
   43MOL    C3321117   5.925   0.208   2.695  0.4589 -0.4931  0.1468
   43MOL    C3421118   5.894   0.059   2.694  0.9424 -0.6330 -0.2385
   43MOL    C3521119   5.738   0.036   2.697 -0.7304 -0.8133 -0.1020
   43MOL    H3621120   6.105   0.622   2.872  0.5638 -0.2230 -0.8001
   43MOL    H3721121   6.208   0.762   2.845 -0.6410 -1.1743 -3.2280
   43MOL    H3821122   6.300   0.476   2.932  2.2133  0.1939  0.5742
   43MOL    H3921123   6.327   0.330   2.765 -0.1309  1.7709  1.3065
   43MOL    H4021124   6.288   0.378   2.598 -2.1735 -0.8969  0.0458
   43MOL    H4121125   6.064   0.439   2.643  0.6888  0.8108  1.0042
   43MOL    H4221126   6.081   0.400   2.815 -1.4573  0.7404 -0.7388
   43MOL    H4321127   6.105   0.205   2.582  0.7868  1.4971 -0.5157
   43MOL    H4421128   6.135   0.169   2.750 -1.0920 -1.4459  0.3733
   43MOL    H4521129   5.904   0.240   2.797 -0.2073  2.0409 -0.7368
   43MOL    H4621130   5.862   0.277   2.638 -0.1215 -0.1262  1.2017
   43MOL    H4721131   5.945   0.011   2.611 -0.8774  1.4709 -2.6534
   43MOL    H4821132   5.928   0.010   2.785 -1.5884  0.8951  1.6153
   43MOL    H4921133   5.696   0.068   2.792  0.4088 -1.0017  0.4747
   43MOL    H5021134   5.684   0.100   2.628  0.4953 -0.1952 -0.5025
   43MOL    H5121135   5.719   7.706   2.687  0.3591 -1.2638  2.3265
   43MOL    C5221136   6.461   0.608   2.882  0.0521 -0.3790  0.6147
   43MOL    C5321137   6.570   0.522   2.807 -0.1267  0.1489 -0.6015
   43MOL    O5421138   6.685   0.595   2.847 -0.8500  0.8205  0.1115
   43MOL    C5521139   6.757   0.654   2.741 -0.1383  0.0627 -0.2849
   43MOL    C5621140   6.878   0.718   2.796 -0.0102  0.4890  0.1769
   43MOL    C5721141   6.972   0.622   2.875  0.3021 -0.7691 -0.2586
   43MOL    C5821142   7.087   0.692   2.948  0.2815 -0.0958 -0.1960
   43MOL    C5921143   7.210   0.597   2.977  0.3181 -0.0319 -0.5107
   43MOL    C6021144   7.335   0.671   3.031 -0.3596  0.5251 -0.1412
   43MOL    H6121145   6.476   0.606   2.990 -1.1060 -0.7730  0.7798
   43MOL    H6221146   6.478   0.712   2.855 -2.9147  0.3066  1.1213
   43MOL    H6321147   6.557   0.517   2.699 -2.3454  0.0410 -0.3346
   43MOL    H6421148   6.691   0.730   2.699  1.1155  0.1719 -2.1401
   43MOL    H6521149   6.767   0.581   2.661  0.3164  0.6203 -0.7481
   43MOL    H6621150   6.830   0.801   2.850 -0.5968 -0.2071  0.7421
   43MOL    H6721151   6.938   0.758   2.715  1.2735 -3.2907 -0.8408
   43MOL    H6821152   6.914   0.552   2.935  0.8580 -1.5157 -0.5891
   43MOL    H6921153   7.014   0.547   2.809  1.3651  0.9181 -1.5454
   43MOL    H7021154   7.126   0.761   2.874 -0.0455 -0.7756 -1.0122
   43MOL    H7121155   7.051   0.752   3.031 -1.3523 -1.4849  0.1193
   43MOL    H7221156   7.169   0.521   3.045 -0.8496  0.6525 -0.4328
   43MOL    H7321157   7.229   0.550   2.880 -0.5700  0.1763 -0.7915
   43MOL    H7421158   7.410   0.591   3.033  0.3196  1.1219 -1.5252
   43MOL    H7521159   7.371   0.749   2.965  0.9494  0.7758  0.8395
   43MOL    H7621160   7.343   0.703   3.135 -3.0190  0.6956  0.0486
   43MOL    C7721161   6.598   0.387   2.868 -0.0183 -0.1482  0.6625
   43MOL    C7821162   6.656   0.278   2.774 -0.4303  0.1062  0.0422
   43MOL    O7921163   6.569   0.270   2.665 -0.4929  0.6149  0.4431
   43MOL    C8021164   6.620   0.220   2.542 -0.0547 -0.3581  0.4218
   43MOL    C8121165   6.514   0.195   2.438  0.2430 -0.1077 -0.2603
   43MOL    C8221166   6.395   0.105   2.491  0.2672  0.0344 -0.1258
   43MOL    C8321167   6.283   0.093   2.394  0.6793 -0.2354  0.3891
   43MOL    C8421168   6.321   0.024   2.261  0.1446  0.0466 -0.1850
   43MOL    C8521169   6.214   0.006   2.150  0.2644  0.5499 -0.3977
   43MOL    H8621170   6.505   0.349   2.910 -1.4624  0.2691 -2.0713
   43MOL    H8721171   6.671   0.397   2.949  0.1014  1.0548  0.4116
   43MOL    H8821172   6.753   0.310   2.735  1.1926 -1.3220  2.7778
   43MOL    H8921173   6.675   0.128   2.562  0.2636 -0.7674 -2.2089
   43MOL    H9021174   6.699   0.285   2.505  2.0321 -3.0983 -0.1004
   43MOL    H9121175   6.561   0.160   2.346  1.6505  0.8816  0.0770
   43MOL    H9221176   6.475   0.294   2.413  0.3073 -0.0695 -0.2072
   43MOL    H9321177   6.442   0.009   2.514 -1.9248 -0.7304  1.3043
   43MOL    H9421178   6.357   0.136   2.588 -0.7191 -0.3035 -0.4007
   43MOL    H9521179   6.207   0.039   2.450 -0.6932  1.7286  0.4688
   43MOL    H9621180   6.235   0.186   2.365 -1.3650 -1.4670 -0.2895
   43MOL    H9721181   6.404   0.079   2.217 -0.3421 -0.6726 -2.0307
   43MOL    H9821182   6.365   7.706   2.293 -1.6605 -0.3969  1.0881
   43MOL    H9921183   6.140   7.722   2.201  0.9681 -0.6524 -0.7846
   43MOL   H10021184   6.168   0.101   2.124 -0.3055  0.3735 -0.0468
   43MOL   H10121185   6.248   7.728   2.063 -2.8844 -1.7634 -0.2484
   43MOL   C10221186   6.672   0.143   2.841 -0.2722 -0.2538 -0.3790
   43MOL   C10321187   6.815   0.081   2.846  1.0814  0.2937  0.7883
   43MOL   O10421188   6.879   0.175   2.938  1.1280  0.2248 -0.1900
   43MOL   C10521189   7.008   0.206   2.886  0.4001 -0.6291  0.7432
   43MOL   C10621190   7.090   0.285   2.990 -0.0651 -0.2308 -0.1425
   43MOL   C10721191   7.162   0.207   3.101 -0.0009  0.4251  0.5500
   43MOL   C10821192   7.062   0.160   3.208  0.2379 -0.4900  0.0528
   43MOL   C10921193   7.128   0.099   3.331  0.8208  0.4024 -0.5748
   43MOL   C11021194   7.035   0.063   3.448  0.1581 -0.0610  0.4439
   43MOL   H11121195   6.647   0.160   2.945 -0.1868  1.1013 -0.5722
   43MOL   H11221196   6.589   0.079   2.810 -0.9331  0.5918 -0.3611
   43MOL   H11321197   6.865   0.081   2.749 -1.3088 -2.3242 -0.5160
   43MOL   H11421198   7.005   0.258   2.791  0.0550 -0.5759  0.7859
   43MOL   H11521199   7.064   0.113   2.871  1.1938 -0.4505  2.4536
   43MOL   H11621200   7.022   0.362   3.027 -0.1298 -0.4125  0.1226
   43MOL   H11721201   7.174   0.335   2.941  0.1446  0.4795  0.9186
   43MOL   H11821202   7.205   0.118   3.058 -2.4001  0.3407 -1.8077
   43MOL   H11921203   7.224   0.282   3.151 -0.4617  1.8444 -0.9504
   43MOL   H12021204   6.994   0.242   3.228 -0.8842 -0.9839 -1.5769
   43MOL   H12121205   6.984   0.095   3.169 -0.3185  0.7146 -0.8987
   43MOL   H12221206   7.163   0.003   3.294 -1.3531  0.3067 -2.5544
   43MOL   H12321207   7.207   0.164   3.368 -1.5820  2.2136  1.5186
   43MOL   H12421208   6.975   0.148   3.483  0.1513 -0.4050  1.2917
   43MOL   H12521209   6.963   7.759   3.433 -2.0981  2.0044 -0.2362
   43MOL   H12621210   7.095   0.031   3.533  0.6693 -2.1801 -0.6857
   43MOL   C12721211   6.813   7.721   2.921  0.0264  0.3892  0.7820
   43MOL   C12821212   6.815   7.594   2.834  0.3411 -0.8269  0.2084
   43MOL   O12921213   6.926   7.599   2.746  0.4667  0.1575  0.0534
   43MOL   C13021214   7.054   7.597   2.798  0.2190 -0.5611  1.2708
   43MOL   C13121215   7.153   7.529   2.701  0.5621  0.9879  0.1367
   43MOL   C13221216   7.100   7.386   2.676  0.1664  0.7617  0.2505
   43MOL   C13321217   7.196   7.308   2.578 -0.1596 -0.1962 -0.0812
   43MOL   C13421218   7.150   7.164   2.540 -0.2697  0.4898  0.1875
   43MOL   C13521219   7.040   7.165   2.436  0.0480  0.1094 -0.2287
   43MOL   H13621220   6.899   7.707   2.987  0.0738  0.8970  0.8251
   43MOL   H13721221   6.733   7.717   2.994 -0.3619  0.4145  0.3561
   43MOL   H13821222   6.833   7.507   2.897  2.6793 -0.2795  0.3537
   43MOL   H13921223   7.061   7.565   2.902  0.3537 -0.3185  1.3370
   43MOL   H14021224   7.093   7.698   2.797 -0.7381 -0.1837  1.8495
   43MOL   H14121225   7.254   7.531   2.742  0.5129  0.4880  0.2755
   43MOL   H14221226   7.147   7.570   2.600 -1.0328 -2.5397 -1.2791
   43MOL   H14321227   7.091   7.329   2.768 -0.2123 -3.8339 -2.4983
   43MOL   H14421228   6.998   7.381   2.637  0.0716  1.7415  0.3510
   43MOL   H14521229   7.218   7.368   2.490  1.4266 -0.7856 -0.1114
   43MOL   H14621230   7.290   7.299   2.632  0.1263  2.7686  0.0159
   43MOL   H14721231   7.234   7.109   2.497 -0.2710  1.0435 -0.5425
   43MOL   H14821232   7.102   7.120   2.627  2.3073 -0.5484  1.1380
   43MOL   H14921233   7.060   7.228   2.349 -1.2356  1.3357  0.3557
   43MOL   H15021234   7.003   7.065   2.410 -0.9036  0.3125  0.3247
   43MOL   H15121235   6.952   7.213   2.477 -1.1684  0.0062 -2.6346
   43MOL   C15221236   6.689   7.567   2.749  0.9813 -0.2874 -0.0238
   43MOL   C15321237   6.563   7.514   2.819 -0.7933 -0.2978 -0.5720
   43MOL   O15421238   6.487   7.625   2.872 -0.3425  0.4734  0.4209
   43MOL   C15521239   6.460   7.619   3.007  0.4400 -0.3918 -0.6013
   43MOL   C15621240   6.406   7.751   3.057 -0.2488  0.0768 -0.7540
   43MOL   C15721241   6.263   0.008   3.006 -0.9622  0.6572 -0.6827
   43MOL   C15821242   6.227   0.156   3.042  0.8150  0.0305 -0.1833
   43MOL   C15921243   6.166   0.164   3.185  0.1120  0.2356 -0.1564
   43MOL   C16021244   6.114   0.304   3.220 -0.0989 -0.6856  0.0542
   43MOL   H16121245   6.681   7.661   2.694  1.5691  0.0864  0.5221
   43MOL   H16221246   6.722   7.487   2.683  1.1474  0.1685 -0.4973
   43MOL   H16321247   6.586   7.449   2.904  1.0556  0.8649 -0.1460
   43MOL   H16421248   6.552   7.601   3.062  0.1971 -0.0401 -0.0637
   43MOL   H16521249   6.386   7.541   3.025  0.3161  0.4418  2.8233
   43MOL   H16621250   6.472   0.059   3.036  1.7001 -0.9323  0.9902
   43MOL   H16721251   6.402   7.757   3.166  2.0449  1.2113 -0.6849
   43MOL   H16821252   6.254   7.762   2.899  1.2520 -1.7045 -0.3896
   43MOL   H16921253   6.196   7.706   3.040  0.7249 -0.3783  0.2478
   43MOL   H17021254   6.310   0.224   3.025  2.9966 -2.6421 -0.5253
   43MOL   H17121255   6.143   0.181   2.976  1.3912  0.7915 -0.6374
   43MOL   H17221256   6.083   0.094   3.181  1.1481 -1.0338  0.0457
   43MOL   H17321257   6.230   0.133   3.269 -0.5454 -0.1188  0.2145
   43MOL   H17421258   6.026   0.296   3.283  1.6662 -1.4591  2.4733
   43MOL   H17521259   6.181   0.364   3.282  1.2232 -0.8766 -1.1472
   43MOL   H17621260   6.078   0.361   3.134 -2.3601  1.4525  2.3677
   43MOL   C17721261   6.464   7.436   2.732  0.5344 -0.0774 -0.0498
   43MOL   C17821262   6.518   7.311   2.657 -0.4537  0.1604 -0.6479
   43MOL   O17921263   6.592   7.220   2.729  0.2113 -0.0879  0.0103
   43MOL   C18021264   6.734   7.216   2.716 -0.6108  0.2205 -0.0905
   43MOL   C18121265   6.794   7.083   2.765  0.1624 -0.2165 -0.3089
   43MOL   C18221266   6.739   6.959   2.691 -0.4726 -0.3847  0.1012
   43MOL   C18321267   6.780   6.833   2.758 -0.3690 -1.2506 -0.6640
   43MOL   C18421268   6.716   6.804   2.885 -0.4294 -0.0116 -0.0556
   43MOL   C18521269   6.691   6.658   2.912  0.2152  0.1532  0.7959
   43MOL   H18621270   6.388   7.398   2.800 -1.9375  0.0135 -2.6721
   43MOL   H18721271   6.412   7.504   2.664 -1.8693 -1.6306  0.1685
   43MOL   H18821272   6.579   7.338   2.570 -0.1530 -2.5264 -1.3145
   43MOL   H18921273   6.782   7.298   2.770 -1.6687 -0.0962  1.3531
   43MOL   H19021274   6.753   7.223   2.609 -1.7450 -0.4456 -0.3379
   43MOL   H19121275   6.786   7.076   2.873 -0.4036 -0.2924 -0.3545
   43MOL   H19221276   6.901   7.083   2.741  0.3482  2.1707  0.4310
   43MOL   H19321277   6.631   6.959   2.699 -0.5872  1.9287 -1.1586
   43MOL   H19421278   6.769   6.961   2.586  2.1968 -0.8546  0.8132
   43MOL   H19521279   6.762   6.750   2.690  0.7463 -2.0414  0.0023
   43MOL   H19621280   6.888   6.838   2.756 -0.4489  0.1340 -2.9974
   43MOL   H19721281   6.774   6.855   2.962  0.9728 -1.5067 -0.1067
   43MOL   H19821282   6.625   6.863   2.900 -0.3755 -0.1893  1.0201
   43MOL   H19921283   6.658   6.640   3.014 -3.6651 -1.1321 -0.6224
   43MOL   H20021284   6.622   6.627   2.834 -2.4405  1.6769  2.4770
   43MOL   H20121285   6.782   6.600   2.893  0.6838  0.5598  1.7366
   43MOL   C20221286   6.397   7.237   2.604  0.4616  0.5359 -0.2004
   43MOL   C20321287   6.429   7.109   2.530 -0.5581 -0.6648  0.8021
   43MOL   O20421288   6.500   7.133   2.398 -0.9291 -0.4115  0.7018
   43MOL   C20521289   6.611   7.058   2.357 -0.2529 -0.8537  0.2277
   43MOL   C20621290   6.650   7.077   2.207 -0.5265 -0.4416  0.2977
   43MOL   C20721291   6.640   7.232   2.154  0.9273  0.8311 -0.1326
   43MOL   C20821292   6.649   7.252   2.003  0.7820 -0.3124 -0.4902
   43MOL   C20921293   6.662   7.405   1.961  0.4869 -0.4245  0.2053
   43MOL   C21021294   6.525   7.485   1.988  0.4574  0.8106 -0.4396
   43MOL   H21121295   6.356   7.208   2.701  2.2444  0.3303  0.5072
   43MOL   H21221296   6.321   7.282   2.541 -1.6109 -1.1994  0.9739
   43MOL   H21321297   6.493   7.047   2.592 -0.2584 -0.7906  0.3726
   43MOL   H21421298   6.593   6.951   2.370 -0.4733 -0.9738 -1.0336
   43MOL   H21521299   6.700   7.084   2.415  0.4336  0.3626 -1.3560
   43MOL   H21621300   6.584   7.016   2.146 -0.7678 -0.9288  1.0416
   43MOL   H21721301   6.749   7.048   2.173  0.0597  1.0032  0.7012
   43MOL   H21821302   6.545   7.270   2.191  0.5373  0.7425 -1.0065
   43MOL   H21921303   6.715   7.295   2.202  1.3584 -0.7350  1.3085
   43MOL   H22021304   6.729   7.196   1.956 -1.1473 -1.9157 -1.9667
   43MOL   H22121305   6.557   7.209   1.963  1.1359 -1.6440  0.0897
   43MOL   H22221306   6.739   7.457   2.017 -0.4795 -1.4266  2.5399
   43MOL   H22321307   6.684   7.418   1.856 -0.9807 -0.4012 -0.1173
   43MOL   H22421308   6.483   7.460   2.086  0.2535 -0.5138 -0.8531
   43MOL   H22521309   6.531   7.593   1.987 -2.0408  1.0132  1.8033
   43MOL   H22621310   6.458   7.460   1.906 -1.5632  1.4412  0.9816
   43MOL   C22721311   6.305   7.020   2.508  0.4085 -0.5396  0.1289
   43MOL   C22821312   6.222   6.975   2.638 -0.3098 -0.2348 -0.2900
   43MOL   O22921313   6.125   6.874   2.596  0.2435  0.3063  0.0606
   43MOL   C23021314   5.989   6.917   2.604 -0.4290 -0.5238 -0.1187
   43MOL   C23121315   5.914   6.811   2.527  0.2944 -0.2445 -0.0115
   43MOL   C23221316   5.765   6.814   2.545  0.1202 -0.4999  0.1362
   43MOL   C23321317   5.692   6.689   2.491 -0.4657 -0.3993 -0.1889
   43MOL   C23421318   5.539   6.705   2.502  0.0033  0.3930  0.0430
   43MOL   C23521319   5.458   6.575   2.471 -0.3247 -0.6770  0.2103
   43MOL   H23621320   6.230   7.066   2.443  1.0876  0.3294 -0.0518
   43MOL   H23721321   6.340   6.934   2.451  2.4239 -0.2957  0.9441
   43MOL   H23821322   6.178   7.066   2.679  1.0468 -0.6333  2.1462
   43MOL   H23921323   5.974   7.018   2.568 -2.0821  0.2509  2.6379
   43MOL   H24021324   5.971   6.908   2.711  0.7695  3.0359  0.4209
   43MOL   H24121325   5.950   6.716   2.568  1.3252  0.5581  0.9646
   43MOL   H24221326   5.953   6.805   2.425 -0.6803  1.7329 -0.5247
   43MOL   H24321327   5.744   6.820   2.652  1.5448  2.5027  0.3023
   43MOL   H24421328   5.730   6.905   2.499 -0.3297 -1.5774 -1.6752
   43MOL   H24521329   5.716   6.659   2.389 -0.1259 -0.7591 -0.0076
   43MOL   H24621330   5.712   6.595   2.544 -3.0776 -0.4176  0.8189
   43MOL   H24721331   5.509   6.746   2.598 -1.8055  1.1531 -0.8154
   43MOL   H24821332   5.520   6.785   2.431  0.9833 -1.2923 -2.2069
   43MOL   H24921333   5.354   6.596   2.446 -0.9651 -0.6883  2.7863
   43MOL   H25021334   5.493   6.527   2.380 -1.5671  0.0861 -0.6933
   43MOL   H25121335   5.473   6.514   2.559 -0.1818  0.6137  1.1024
   43MOL   C25221336   6.307   6.899   2.743 -0.3716  0.4343  0.8214
   43MOL   C25321337   6.249   6.899   2.882  0.0504  0.0942 -0.8121
   43MOL   O25421338   6.239   7.032   2.922  0.0051 -0.5076  0.2080
   43MOL   C25521339   6.107   7.073   2.960  0.5352 -0.8251  0.2666
   43MOL   C25621340   6.087   7.212   3.010 -0.2857 -0.0687 -0.4694
   43MOL   C25721341   6.190   7.248   3.119 -0.1060  0.3956 -0.2310
   43MOL   C25821342   6.165   7.380   3.185  0.2741  0.1160  0.6887
   43MOL   C25921343   6.265   7.417   3.292 -0.7737  0.3469 -0.1044
   43MOL   C26021344   6.233   7.561   3.357  0.6893  0.6559 -0.5100
   43MOL   H26121345   6.320   6.796   2.709 -0.9676  1.3303 -2.3016
   43MOL   H26221346   6.410   6.931   2.760  0.5286 -2.7965  1.8010
   43MOL   H26321347   6.147   6.861   2.874 -0.6353  1.9712 -1.1207
   43MOL   H26421348   6.084   7.006   3.043  1.9285 -0.5183  0.9094
   43MOL   H26521349   6.041   7.050   2.876  0.5109 -0.0026  0.0544
   43MOL   H26621350   5.993   7.218   3.065  1.2264 -0.2442  2.2010
   43MOL   H26721351   6.093   7.284   2.928 -2.6639  0.3930 -0.2583
   43MOL   H26821352   6.175   7.169   3.192  0.7145 -1.0983 -1.6576
   43MOL   H26921353   6.295   7.247   3.090  0.0061 -1.0843  0.1804
   43MOL   H27021354   6.169   7.454   3.104 -0.7137 -1.3980 -0.7622
   43MOL   H27121355   6.066   7.388   3.228 -0.2486  1.0445 -0.6267
   43MOL   H27221356   6.253   7.343   3.371 -0.2344 -1.7820 -1.9737
   43MOL   H27321357   6.363   7.428   3.245 -0.8546  1.1934 -0.0902
   43MOL   H27421358   6.260   7.646   3.294  1.4430  1.5201  0.9620
   43MOL   H27521359   6.127   7.567   3.381  0.1106 -0.0672 -2.7281
   43MOL   H27621360   6.294   7.566   3.447 -1.0728  1.6897  0.6385
   43MOL   C27721361   6.326   6.811   2.987  0.4161  0.6089 -0.3723
   43MOL   C27821362   6.316   6.653   2.980  0.3118 -0.2188 -0.1662
   43MOL   O27921363   6.378   6.611   2.858  0.1968  0.0479 -0.5734
   43MOL   C28021364   6.362   6.472   2.814 -0.2515  0.0740  0.1510
   43MOL   C28121365   6.235   6.450   2.739 -0.5042 -0.5311 -0.7972
   43MOL   C28221366   6.235   6.318   2.662 -0.4156 -0.5714  0.6022
   43MOL   C28321367   6.202   6.205   2.760  0.1347  0.4842  0.6168
   43MOL   C28421368   6.314   6.092   2.769 -0.7120 -0.5122 -0.0500
   43MOL   C28521369   6.328   6.015   2.636 -0.0817 -1.0889  0.0355
   43MOL   H28621370   6.425   6.856   2.996  0.2416  0.5500  1.9245
   43MOL   H28721371   6.288   6.853   3.080  0.7745 -0.0224  0.0594
   43MOL   H28821372   6.208   6.639   2.966  0.2863 -0.9373  0.6566
   43MOL   H28921373   6.340   6.407   2.899 -2.4381  1.6928  0.8496
   43MOL   H29021374   6.453   6.442   2.761 -0.0454 -1.4821  1.3468
   43MOL   H29121375   6.205   6.544   2.692 -0.1802  0.0783  0.1976
   43MOL   H29221376   6.155   6.447   2.813 -0.3473  0.6318 -0.5641
   43MOL   H29321377   6.158   6.326   2.586  1.3267  2.1091 -0.9810
   43MOL   H29421378   6.336   6.301   2.622 -0.8367 -0.6549 -0.4367
   43MOL   H29521379   6.182   6.226   2.865  0.0162 -0.6841  0.8393
   43MOL   H29621380   6.112   6.162   2.717 -0.0874 -0.7726  2.2783
   43MOL   H29721381   6.407   6.146   2.789 -2.0655  1.3825  1.1883
   43MOL   H29821382   6.307   6.021   2.851 -1.5883  0.9227  1.1300
   43MOL   H29921383   6.370   6.080   2.559  1.5896 -0.9903  1.0110
   43MOL   H30021384   6.409   5.943   2.650 -0.6202 -1.3339  2.0017
   43MOL   H30121385   6.242   5.956   2.603 -0.8898 -1.1355  2.1401
   43MOL   C30221386   6.370   6.586   3.112 -0.1643 -1.0779  0.9575
   43MOL   C30321387   6.282   6.484   3.187  0.4107 -0.5343  0.8554
   43MOL   O30421388   6.258   6.369   3.102  0.6248 -0.4572 -0.4905
   43MOL   C30521389   6.283   6.243   3.162  0.5341 -0.0585 -0.0539
   43MOL   C30621390   6.170   6.208   3.254 -0.1790  0.0662 -0.6213
   43MOL   C30721391   6.162   6.058   3.294 -0.0282 -0.2464  0.5818
   43MOL   C30821392   6.019   6.026   3.357  0.3091  0.5163 -0.2496
   43MOL   C30921393   5.986   5.877   3.384 -0.1953 -0.5705  0.0360
   43MOL   C31021394   5.999   5.793   3.252  0.1978  0.6131  0.4826
   43MOL   H31121395   6.462   6.534   3.087 -0.5205 -1.5242  0.5645
   43MOL   H31221396   6.396   6.672   3.173 -1.5081 -0.1686  0.2720
   43MOL   H31321397   6.343   6.460   3.274  0.5923  1.4898  1.2978
   43MOL   H31421398   6.384   6.227   3.202  0.5780 -1.6827 -0.7636
   43MOL   H31521399   6.278   6.167   3.084 -4.2410  0.2844 -0.2185
   43MOL   H31621400   6.081   6.228   3.194 -1.0559  0.1875  0.6953
   43MOL   H31721401   6.155   6.264   3.347  0.9698 -2.7042  1.2977
   43MOL   H31821402   6.184   5.991   3.211  0.6383  0.5189  0.1363
   43MOL   H31921403   6.232   6.034   3.374 -0.3855 -0.1533  0.9282
   43MOL   H32021404   6.007   6.086   3.447 -2.1147  0.7235 -0.6989
   43MOL   H32121405   5.952   6.075   3.286 -0.1837 -0.7100 -0.6417
   43MOL   H32221406   6.057   5.852   3.463  0.1477 -0.3425 -0.1990
   43MOL   H32321407   5.892   5.855   3.435  1.0384 -1.6797  1.8616
   43MOL   H32421408   6.104   5.772   3.235  0.2487  1.4850 -0.2848
   43MOL   H32521409   5.953   5.695   3.262  1.9296 -0.2515  0.1327
   43MOL   H32621410   5.950   5.844   3.170 -2.0454 -2.1167  0.0439
   43MOL   C32721411   6.144   6.543   3.225 -0.1741  0.3553  0.4231
   43MOL   C32821412   6.158   6.648   3.344 -0.2926  0.0535 -0.4849
   43MOL   O32921413   6.026   6.706   3.362  0.2969 -0.8927  0.0347
   43MOL   C33021414   6.017   6.849   3.391  0.0321 -0.5003 -0.0169
   43MOL   C33121415   5.866   6.885   3.413 -0.0320 -0.7933  0.1350
   43MOL   C33221416   5.795   6.814   3.527 -0.0737 -0.4234  0.4800
   43MOL   C33321417   5.647   6.843   3.534 -0.5533 -0.1301 -0.0551
   43MOL   C33421418   5.570   6.812   3.662 -0.4639 -0.5188 -0.2513
   43MOL   C33521419   5.418   6.835   3.644  0.0226 -0.5387 -0.8388
   43MOL   H33621420   6.084   6.462   3.266 -1.0707  1.2473  0.8960
   43MOL   H33721421   6.097   6.586   3.137  2.1182  1.1613 -0.4461
   43MOL   H33821422   6.236   6.724   3.338  1.2954 -1.3242  1.6475
   43MOL   H33921423   6.056   6.904   3.306  0.0716  0.5939  0.6990
   43MOL   H34021424   6.065   6.866   3.488  0.2281 -1.5913  0.0863
   43MOL   H34121425   5.818   6.860   3.318 -0.4777  2.4930 -0.5608
   43MOL   H34221426   5.861   6.993   3.420  1.3113 -0.6825 -0.5097
   43MOL   H34321427   5.809   6.707   3.511 -0.1390 -0.1771 -1.2714
   43MOL   H34421428   5.853   6.834   3.617 -0.3327 -2.2559  1.0712
   43MOL   H34521429   5.635   6.952   3.530 -1.8296 -0.2983 -1.1404
   43MOL   H34621430   5.594   6.802   3.449 -0.3773 -1.3609  0.4174
   43MOL   H34721431   5.586   6.707   3.683  1.8788  0.1117  1.2994
   43MOL   H34821432   5.607   6.867   3.748  1.1645  0.1190 -1.3244
   43MOL   H34921433   5.369   6.797   3.554 -1.6073  0.7785 -0.5256
   43MOL   H35021434   5.370   6.801   3.736  0.3292  0.1451 -0.4232
   43MOL   H35121435   5.404   6.941   3.626  1.3741 -0.4454 -1.4468
   43MOL   C35221436   6.202   6.582   3.480  0.4107 -0.0714  0.6097
   43MOL   C35321437   6.225   6.672   3.604  0.0538 -0.2220 -0.9078
   43MOL   O35421438   6.333   6.750   3.556  0.3887  0.0889 -0.3160
   43MOL   C35521439   6.348   6.871   3.627 -0.5961 -0.1178  0.2479
   43MOL   C35621440   6.476   6.935   3.580 -0.2447  0.3774  0.6305
   43MOL   C35721441   6.474   6.980   3.424 -0.4074  0.7009  0.0222
   43MOL   C35821442   6.610   7.030   3.381 -1.1285 -0.4701 -0.4025
   43MOL   C35921443   6.642   7.017   3.228 -0.0055  0.0597 -0.1958
   43MOL   C36021444   6.533   7.073   3.144  0.4108  0.3183 -0.4086
   43MOL   H36121445   6.126   6.505   3.494 -1.4819  1.4017 -1.1971
   43MOL   H36221446   6.290   6.525   3.451  0.3121 -0.3316  0.8157
   43MOL   H36321447   6.137   6.732   3.624  0.7235  0.8818 -1.2009
   43MOL   H36421448   6.366   6.850   3.733  0.7751 -1.4645 -0.2285
   43MOL   H36521449   6.261   6.936   3.619 -0.1261  0.3733 -1.0161
   43MOL   H36621450   6.562   6.869   3.590 -0.1284  0.0851 -1.9239
   43MOL   H36721451   6.505   7.025   3.635  1.4307  0.2492 -0.0236
   43MOL   H36821452   6.454   6.885   3.375 -2.6056  1.1419  0.0137
   43MOL   H36921453   6.404   7.060   3.401 -0.5782  0.5555  0.0442
   43MOL   H37021454   6.626   7.136   3.403  1.0084 -0.8731  0.1072
   43MOL   H37121455   6.686   6.972   3.434  0.0591  0.3510 -1.1892
   43MOL   H37221456   6.730   7.077   3.205  1.4281 -1.3146  1.6278
   43MOL   H37321457   6.671   6.916   3.201  0.4610 -0.3727  1.8736
   43MOL   H37421458   6.545   7.047   3.039 -1.0719  2.6108 -1.1833
   43MOL   H37521459   6.438   7.027   3.172  0.1451  2.4087  2.3318
   43MOL   H37621460   6.540   7.182   3.146  1.7153  0.2236  3.0576
   43MOL   C37721461   6.257   6.592   3.737  0.4156 -0.1546  0.7689
   43MOL   C37821462   6.140   6.509   3.789  1.0936 -0.2235 -0.6460
   43MOL   O37921463   6.074   6.586   3.882 -1.0872 -0.3363  0.1378
   43MOL   C38021464   5.934   6.614   3.850 -0.9995 -0.5810  0.6618
   43MOL   C38121465   5.883   6.720   3.951  0.0141  0.1456  0.2787
   43MOL   C38221466   5.940   6.861   3.918 -0.4653  0.6187 -0.0143
   43MOL   C38321467   5.919   6.985   4.005 -0.3394 -0.3556  0.2823
   43MOL   C38421468   5.928   7.115   3.932  0.3023  0.7636  0.0601
   43MOL   C38521469   5.857   7.231   4.004 -0.5555  0.7072 -0.7203
   43MOL   H38621470   6.343   6.528   3.722 -0.2148 -0.8423  0.0160
   43MOL   H38721471   6.299   6.659   3.812 -2.3096  0.8642  1.4440
   43MOL   H38821472   6.073   6.479   3.708 -2.1614  2.6885  0.7886
   43MOL   H38921473   5.867   6.528   3.856 -2.5262  0.5507  0.2559
   43MOL   H39021474   5.929   6.649   3.747 -2.5116  1.1187  1.2771
   43MOL   H39121475   5.904   6.694   4.055  2.1585  1.5315  0.2315
   43MOL   H39221476   5.776   6.730   3.936  0.3507 -0.7465 -3.0902
   43MOL   H39321477   6.046   6.845   3.898 -0.3512  0.6963  0.5273
   43MOL   H39421478   5.884   6.888   3.829 -1.3794  1.3707  0.7867
   43MOL   H39521479   5.817   6.986   4.045 -0.7314 -1.3966 -0.6523
   43MOL   H39621480   5.983   6.988   4.093  0.0822 -0.2741 -0.0261
   43MOL   H39721481   6.033   7.144   3.927  0.3230  0.3714 -2.1266
   43MOL   H39821482   5.877   7.109   3.837 -0.8979 -1.6956  0.8095
   43MOL   H39921483   5.761   7.205   4.050 -1.1292 -0.4395 -2.5146
   43MOL   H40021484   5.925   7.274   4.077  0.9570 -2.6832 -0.0238
   43MOL   H40121485   5.831   7.303   3.927 -1.7501  0.0446 -0.9567
   43MOL   C40221486   6.176   6.381   3.860 -0.3024 -1.1459 -0.4557
   43MOL   C40321487   6.222   6.262   3.771  0.4274  0.8599 -0.0433
   43MOL   O40421488   6.312   6.306   3.677  0.5010  0.1394 -0.5588
   43MOL   C40521489   6.422   6.218   3.670 -0.3085  0.2381 -0.3251
   43MOL   C40621490   6.512   6.235   3.541 -0.5153 -0.3734 -0.1525
   43MOL   C40721491   6.590   6.364   3.546 -0.4870 -0.5601  0.3079
   43MOL   C40821492   6.649   6.397   3.411  0.1229 -0.0599 -0.0908
   43MOL   C40921493   6.753   6.515   3.422  0.7887 -0.6877  0.1734
   43MOL   C41021494   6.691   6.658   3.414  0.5202 -0.3014  0.7661
   43MOL   H41121495   6.094   6.348   3.925  0.9098 -1.0873  1.1555
   43MOL   H41221496   6.251   6.409   3.935 -2.0994  0.3088  0.8672
   43MOL   H41321497   6.270   6.187   3.834 -0.0587  0.6602  0.0966
   43MOL   H41421498   6.375   6.122   3.648  0.6635 -0.3335  0.0340
   43MOL   H41521499   6.481   6.212   3.761  0.4453  0.8945 -0.7639
   43MOL   H41621500   6.455   6.249   3.449  0.4711  0.4300 -0.6487
   43MOL   H41721501   6.567   6.146   3.512  0.4752  0.1321  0.1599
   43MOL   H41821502   6.510   6.437   3.552  0.7435  0.7441  1.1571
   43MOL   H41921503   6.658   6.387   3.628 -0.7062  2.6756 -0.3845
   43MOL   H42021504   6.706   6.310   3.379  0.4201  0.3933 -0.8077
   43MOL   H42121505   6.578   6.428   3.335 -0.2452 -0.1425  0.2192
   43MOL   H42221506   6.810   6.520   3.515 -0.6930 -0.0789  1.0873
   43MOL   H42321507   6.830   6.500   3.347  1.5547 -1.1757  1.0496
   43MOL   H42421508   6.653   6.671   3.312  0.0892  0.3896  1.0184
   43MOL   H42521509   6.607   6.667   3.483 -0.8701  0.6547 -1.0196
   43MOL   H42621510   6.772   6.729   3.428 -0.7219  1.2389  0.2069
   43MOL   C42721511   6.112   6.191   3.702  0.2671  0.0593  0.4056
   43MOL   C42821512   6.044   6.078   3.780 -0.5767 -0.0933 -0.1782
   43MOL   O42921513   5.911   6.046   3.734  0.6039 -0.9702  0.4251
   43MOL   C43021514   5.815   6.148   3.734 -0.9183 -0.6139 -0.2997
   43MOL   C43121515   5.668   6.090   3.724  0.1699 -0.4744 -0.3168
   43MOL   C43221516   5.647   5.999   3.839  0.4922  0.1103  1.1269
   43MOL   C43321517   5.504   5.946   3.853 -0.5464  0.2102  0.2564
   43MOL   C43421518   5.461   5.838   3.751  0.3857 -0.4527 -0.4800
   43MOL   C43521519   5.545   5.711   3.779 -0.3446  0.4856 -0.4419
   43MOL   H43621520   6.040   6.264   3.665  1.9458 -0.1376 -3.4675
   43MOL   H43721521   6.137   6.143   3.608  0.7643  3.6776 -1.4172
   43MOL   H43821522   6.033   6.100   3.887 -0.6032  1.7092 -0.5393
   43MOL   H43921523   5.844   6.219   3.657 -2.8497  0.5223 -0.0127
   43MOL   H44021524   5.827   6.212   3.822 -0.9620 -0.5923 -0.3101
   43MOL   H44121525   5.649   6.037   3.631  2.4026 -0.4036 -0.8603
   43MOL   H44221526   5.608   6.180   3.723  1.1456  0.1800 -1.5285
   43MOL   H44321527   5.728   5.926   3.848  2.1059  2.0268  2.5329
   43MOL   H44421528   5.662   6.057   3.930  1.2500 -0.3890  1.3220
   43MOL   H44521529   5.501   5.914   3.958 -0.0957 -0.9194 -0.0614
   43MOL   H44621530   5.436   6.031   3.847 -2.9096 -1.4427  2.3827
   43MOL   H44721531   5.353   5.824   3.748  0.3684 -0.7146  0.9939
   43MOL   H44821532   5.501   5.882   3.660  0.9745  0.1164  0.0529
   43MOL   H44921533   5.511   5.678   3.877  2.2405  2.2473  1.1149
   43MOL   H45021534   5.541   5.633   3.704 -0.1214 -0.3170  0.3697
   43MOL   H45121535   5.650   5.739   3.775 -0.1360  0.0210  1.3612
   43MOL   C45221536   6.131   5.943   3.780 -0.8174 -0.1000  0.3953
   43MOL   C45321537   6.079   5.836   3.875  0.1143 -0.0267 -0.3459
   43MOL   O45421538   6.106   5.896   3.998 -0.1471  0.0507 -0.0901
   43MOL   C45521539   5.998   5.879   4.093 -0.2488  0.5636 -0.7828
   43MOL   C45621540   6.021   5.931   4.238  1.1088  0.0825  0.0642
   43MOL   C45721541   6.005   6.076   4.252 -0.3660  0.1900 -0.5036
   43MOL   C45821542   5.895   6.151   4.181 -0.1620  0.9767  0.2514
   43MOL   C45921543   5.894   6.295   4.209 -0.2687 -0.1811 -0.1584
   43MOL   C46021544   5.813   6.365   4.100 -0.3763  0.2943  0.0329
   43MOL   H46121545   6.148   5.913   3.676 -1.7015 -1.1759  0.5623
   43MOL   H46221546   6.229   5.964   3.822 -1.5111  0.2848  1.8488
   43MOL   H46321547   5.971   5.824   3.864 -0.1388  1.9606 -0.2300
   43MOL   H46421548   5.988   5.772   4.112 -1.3778  0.8125  0.0764
   43MOL   H46521549   5.902   5.915   4.054 -0.5831 -0.8405 -1.2938
   43MOL   H46621550   6.115   5.896   4.282  1.3221  0.6526  0.0807
   43MOL   H46721551   5.941   5.895   4.303 -0.4218  2.3795 -0.4888
   43MOL   H46821552   5.988   6.096   4.358 -1.0410  0.8308 -0.7238
   43MOL   H46921553   6.101   6.121   4.228 -0.4186  0.8064  0.4319
   43MOL   H47021554   5.909   6.132   4.075 -0.0935 -0.3649  0.4960
   43MOL   H47121555   5.795   6.112   4.200  0.1015  1.6785  3.4501
   43MOL   H47221556   5.852   6.318   4.308  0.4901  0.7519 -0.0429
   43MOL   H47321557   5.996   6.333   4.216  0.3865 -1.1670 -3.6577
   43MOL   H47421558   5.857   6.347   4.002  3.2280 -1.3540  1.8257
   43MOL   H47521559   5.707   6.339   4.107 -0.6940  0.8212 -2.4845
   43MOL   H47621560   5.822   6.473   4.107 -0.6549  0.5125 -2.4764
   43MOL   C47721561   6.153   5.700   3.868  0.0871  0.0798 -0.1958
   43MOL   C47821562   6.119   5.617   3.752  0.3234  0.6012 -0.7408
   43MOL   O47921563   6.183   5.490   3.744 -0.6418  0.5213  0.4569
   43MOL   C48021564   6.150   5.398   3.638  0.0501  0.0415 -0.1707
   43MOL   C48121565   6.228   5.272   3.643  0.5862 -0.4164  0.1903
   43MOL   C48221566   6.202   5.184   3.766  0.3182  0.5132  0.8206
   43MOL   C48321567   6.271   5.046   3.763 -0.4365  0.7159 -0.4531
   43MOL   C48421568   6.260   4.959   3.640  0.0035  0.6639 -0.1126
   43MOL   C48521569   6.324   4.822   3.673 -0.0405 -0.0773 -0.0254
   43MOL   H48621570   6.261   5.714   3.861 -0.0282  1.7585  0.8331
   43MOL   H48721571   6.140   5.634   3.954 -2.2045  0.4995 -0.1864
   43MOL   H48821572   6.012   5.594   3.757  0.4393  0.3639  1.1088
   43MOL   H48921573   6.172   5.451   3.544  2.7917 -0.1704  0.3082
   43MOL   H49021574   6.042   5.388   3.647  0.0982  0.0554  0.4286
   43MOL   H49121575   6.330   5.305   3.630  0.5745  0.3280  1.8796
   43MOL   H49221576   6.206   5.216   3.552  0.7734 -0.2900  0.0703
   43MOL   H49321577   6.238   5.241   3.852 -0.8001  0.1842  1.5229
   43MOL   H49421578   6.095   5.171   3.781  0.0311  2.3043  0.5439
   43MOL   H49521579   6.378   5.064   3.771 -0.1704 -0.5148 -1.1245
   43MOL   H49621580   6.244   4.990   3.853  2.4578 -1.2596 -0.7625
   43MOL   H49721581   6.153   4.950   3.623  0.2752 -2.8262 -0.2653
   43MOL   H49821582   6.305   5.005   3.553  3.2328 -1.9683  0.0666
   43MOL   H49921583   6.281   4.752   3.601  0.4530  0.0294 -0.4243
   43MOL   H50021584   6.432   4.835   3.673 -0.2204  1.4334  0.3197
   43MOL   H50121585   6.287   4.783   3.768  2.3566 -0.6673  0.7007
   43MOL   H50221586   6.136   5.677   3.663 -0.9441  2.2709  0.1071
   44MOL     C121587   6.911   1.357   5.880 -0.3973  0.2827  0.9800
   44MOL     C221588   6.936   1.284   5.747  0.3540 -0.3556 -0.3948
   44MOL     O321589   6.945   1.146   5.773 -0.1792  0.2445 -0.4538
   44MOL     C421590   6.826   1.085   5.750  0.4643  0.2149  0.2084
   44MOL     C521591   6.845   0.936   5.795  0.0869  0.8080  0.5590
   44MOL     C621592   6.865   0.921   5.949  0.0516  0.6792 -0.4763
   44MOL     C721593   6.880   0.768   5.982  0.3187  0.0352  0.3776
   44MOL     C821594   6.744   0.703   6.015 -0.1538 -0.6808 -0.1624
   44MOL     C921595   6.739   0.549   6.020 -0.4330  0.1218  0.6595
   44MOL    H1021596   6.830   1.316   5.941 -1.4702  1.8955  0.6899
   44MOL    H1121597   7.001   1.365   5.941 -0.5197  0.7890  1.1035
   44MOL    H1221598   6.855   1.306   5.678 -0.9771 -0.1240  1.2383
   44MOL    H1321599   6.803   1.082   5.643 -0.8051  0.3133  0.4727
   44MOL    H1421600   6.747   1.137   5.804  1.5670  2.6984 -0.5043
   44MOL    H1521601   6.920   0.885   5.734  0.9859  0.1867  2.1730
   44MOL    H1621602   6.749   0.889   5.774 -1.1000  4.1680 -2.1649
   44MOL    H1721603   6.953   0.980   5.974  1.1004 -1.9733  2.4321
   44MOL    H1821604   6.787   0.978   5.999  1.8555  1.7199  1.2307
   44MOL    H1921605   6.910   0.708   5.897  1.0348  0.7817  0.0952
   44MOL    H2021606   6.955   0.755   6.061 -1.8910 -1.5814  2.2900
   44MOL    H2121607   6.675   0.747   5.944  0.2433 -0.0746 -0.1793
   44MOL    H2221608   6.711   0.732   6.115 -0.5706 -1.0926 -0.1799
   44MOL    H2321609   6.646   0.509   6.061 -0.8237  1.1181  0.7606
   44MOL    H2421610   6.746   0.511   5.918 -0.3004 -0.9383  1.0571
   44MOL    H2521611   6.812   0.497   6.082 -0.1165 -0.1726  0.0365
   44MOL    H2621612   6.886   1.461   5.858 -1.4863 -0.0997  0.3478
   44MOL    C2721613   7.070   1.300   5.677 -0.2445  0.1554  0.3490
   44MOL    C2821614   7.074   1.250   5.530  0.4444  0.2671 -0.0535
   44MOL    O2921615   6.980   1.318   5.443 -1.1848 -0.5630  0.5156
   44MOL    C3021616   6.903   1.238   5.364 -0.7986 -0.5583  0.2363
   44MOL    C3121617   6.811   1.324   5.275  0.1115  0.5271 -0.8750
   44MOL    C3221618   6.891   1.396   5.160  0.6182  0.6117  0.2333
   44MOL    C3321619   6.958   1.312   5.053  0.2728 -0.4825  0.6218
   44MOL    C3421620   7.008   1.390   4.930  0.1713 -0.2993  0.5475
   44MOL    C3521621   7.153   1.428   4.966 -0.0167 -0.1289 -0.1078
   44MOL    H3621622   7.102   1.404   5.670  3.4024 -0.9327 -0.3223
   44MOL    H3721623   7.144   1.248   5.738 -0.1465 -0.8116 -0.5899
   44MOL    H3821624   7.050   1.144   5.528 -0.3356  0.4023  1.6606
   44MOL    H3921625   6.857   1.168   5.435 -0.2508 -2.2740 -1.0692
   44MOL    H4021626   6.972   1.175   5.307 -1.5713 -0.9901 -0.2314
   44MOL    H4121627   6.751   1.389   5.338  0.3095 -0.3245  0.2056
   44MOL    H4221628   6.737   1.257   5.231  0.9341 -2.2656  1.8550
   44MOL    H4321629   6.821   1.466   5.115 -1.1899 -0.1951  1.7501
   44MOL    H4421630   6.965   1.462   5.207  0.2990 -0.4082  2.2164
   44MOL    H4521631   7.038   1.250   5.096  1.2632  0.6454  0.4261
   44MOL    H4621632   6.880   1.246   5.016 -0.6715 -0.0543  1.8173
   44MOL    H4721633   7.009   1.318   4.848 -2.0918  0.9736 -0.6569
   44MOL    H4821634   6.937   1.466   4.897  0.9047  0.4576  0.6945
   44MOL    H4921635   7.220   1.471   4.891  1.2039  1.8943  2.0877
   44MOL    H5021636   7.148   1.499   5.048 -1.0235 -2.3803  1.8277
   44MOL    H5121637   7.204   1.338   4.999 -2.7572 -1.3899  0.8404
   44MOL    C5221638   7.216   1.267   5.470  0.5477 -0.4648 -0.0939
   44MOL    C5321639   7.334   1.177   5.513 -0.1450 -0.0685 -0.1233
   44MOL    O5421640   7.295   1.049   5.452  0.1166  0.1042 -0.6675
   44MOL    C5521641   7.361   0.934   5.513  0.0877  0.2614  0.7426
   44MOL    C5621642   7.303   0.809   5.449 -0.4692  0.3185  0.7534
   44MOL    C5721643   7.372   0.685   5.502 -0.9362  0.6318 -0.8815
   44MOL    C5821644   7.371   0.566   5.404 -0.0472  0.3944 -0.2268
   44MOL    C5921645   7.234   0.498   5.383  0.2615 -0.1894  0.4096
   44MOL    C6021646   7.172   0.453   5.519 -0.9193 -0.4371 -0.1257
   44MOL    H6121647   7.257   1.368   5.479  0.4952 -0.6674  2.9056
   44MOL    H6221648   7.219   1.272   5.361 -1.3062 -1.2645 -0.1877
   44MOL    H6321649   7.340   1.160   5.621  0.7624 -2.9162 -0.5795
   44MOL    H6421650   7.336   0.928   5.619 -1.5248 -1.7217  0.2810
   44MOL    H6521651   7.468   0.946   5.496  0.0872  1.0657  1.2812
   44MOL    H6621652   7.320   0.829   5.344 -0.3556  0.7752  0.8603
   44MOL    H6721653   7.195   0.808   5.465 -0.5622  0.2151  0.1354
   44MOL    H6821654   7.480   0.699   5.498 -0.6722 -1.4755 -2.1671
   44MOL    H6921655   7.342   0.669   5.605  0.8940  0.4772 -0.3734
   44MOL    H7021656   7.393   0.604   5.304  1.6094 -0.8818 -0.3805
   44MOL    H7121657   7.445   0.487   5.417  0.3685  0.4391 -2.1134
   44MOL    H7221658   7.163   0.568   5.339  0.7605 -0.0991 -0.2694
   44MOL    H7321659   7.242   0.410   5.319  0.2463 -0.0083  0.1579
   44MOL    H7421660   7.073   0.411   5.505 -1.1364  0.0645 -0.0831
   44MOL    H7521661   7.233   0.374   5.564 -0.8179 -0.2079  0.1381
   44MOL    H7621662   7.182   0.537   5.587 -1.6450  0.1502 -0.7481
   44MOL    C7721663   7.474   1.222   5.448  0.4942 -0.1077 -0.5520
   44MOL    C7821664   7.533   1.360   5.500  0.3219 -0.9515  0.4801
   44MOL    O7921665   7.610   1.407   5.387 -0.4028 -0.0189 -0.0025
   44MOL    C8021666   7.563   1.515   5.315 -0.3497 -0.1026 -0.2636
   44MOL    C8121667   7.641   1.508   5.183 -0.3940  0.2292 -0.2787
   44MOL    C8221668   7.630   1.632   5.095 -0.1616 -0.4539 -0.4396
   44MOL    C8321669   7.494   1.654   5.024  0.2998 -0.2587 -0.6724
   44MOL    C8421670   7.483   1.783   4.931  0.3555 -0.0890 -0.0883
   44MOL    C8521671   7.353   1.780   4.847 -0.0394 -0.6091  0.5413
   44MOL    H8621672   7.444   1.241   5.345 -1.8259  1.3371  0.3335
   44MOL    H8721673   7.560   1.156   5.435  2.1472  1.7416  0.7024
   44MOL    H8821674   7.451   1.428   5.525 -0.7220 -1.5979 -1.1124
   44MOL    H8921675   7.576   1.615   5.357  1.9707 -0.6170  0.3159
   44MOL    H9021676   7.456   1.499   5.299 -0.4007  0.5400 -0.5808
   44MOL    H9121677   7.620   1.415   5.131 -0.2922 -0.0802  0.2298
   44MOL    H9221678   7.745   1.514   5.217 -0.6815  0.0692  0.6358
   44MOL    H9321679   7.659   1.709   5.167 -0.5810  0.1848 -0.9604
   44MOL    H9421680   7.711   1.631   5.022  1.5522 -0.1163  1.4106
   44MOL    H9521681   7.487   1.564   4.962  1.7068 -0.9633  0.1686
   44MOL    H9621682   7.415   1.660   5.099  0.8768  1.3987 -0.1639
   44MOL    H9721683   7.491   1.869   4.996  0.6355 -0.3582  0.2362
   44MOL    H9821684   7.569   1.799   4.866 -0.9068  0.3238 -1.6962
   44MOL    H9921685   7.346   1.704   4.770 -1.3966  0.5760 -0.5210
   44MOL   H10021686   7.270   1.769   4.917 -0.9095 -0.3470 -0.4515
   44MOL   H10121687   7.332   1.874   4.796  2.1750  0.6292  1.7989
   44MOL   C10221688   7.624   1.337   5.627 -0.3233  0.1276  0.0376
   44MOL   C10321689   7.671   1.473   5.684  0.5156  0.0870 -0.6169
   44MOL   O10421690   7.547   1.545   5.711 -0.5053  0.0815  0.1324
   44MOL   C10521691   7.556   1.690   5.720  0.2399  0.0624  0.2574
   44MOL   C10621692   7.424   1.733   5.652 -0.2109 -0.1440 -0.0582
   44MOL   C10721693   7.395   1.885   5.671 -0.4647 -0.3544  0.2462
   44MOL   C10821694   7.475   1.977   5.572 -0.0892  0.2052  0.3557
   44MOL   C10921695   7.445   2.121   5.568 -0.7253  0.0028 -0.6327
   44MOL   C11021696   7.527   2.203   5.470 -0.6045  0.2020  0.0398
   44MOL   H11121697   7.577   1.288   5.712  0.8064  0.8280  1.0817
   44MOL   H11221698   7.707   1.275   5.593  1.1442  0.6428  2.5659
   44MOL   H11321699   7.741   1.520   5.615  0.4777  1.3682  0.1808
   44MOL   H11421700   7.640   1.723   5.660  2.4435 -1.9464  2.0909
   44MOL   H11521701   7.572   1.730   5.820  2.3946  1.4025 -0.5886
   44MOL   H11621702   7.345   1.671   5.694 -0.0517 -2.1975 -2.6294
   44MOL   H11721703   7.427   1.704   5.546  0.0521 -0.7288  0.1078
   44MOL   H11821704   7.296   1.915   5.639 -1.1259  1.3865  3.6410
   44MOL   H11921705   7.404   1.920   5.774 -2.3203 -1.0591  0.6723
   44MOL   H12021706   7.581   1.961   5.594  0.1333  0.5150 -0.4815
   44MOL   H12121707   7.448   1.938   5.474  1.7443 -0.1627 -0.0247
   44MOL   H12221708   7.341   2.135   5.538 -1.0378  2.0991  1.2113
   44MOL   H12321709   7.455   2.161   5.669  0.1484 -1.4858 -0.1103
   44MOL   H12421710   7.635   2.210   5.482 -0.5461  0.2093 -0.5146
   44MOL   H12521711   7.515   2.164   5.369  1.2956 -2.0774  0.6499
   44MOL   H12621712   7.484   2.303   5.472 -1.5625 -0.1815 -1.3610
   44MOL   C12721713   7.739   1.454   5.822  0.2524 -1.0011  0.1219
   44MOL   C12821714   0.078   1.550   5.853  0.8188 -0.2288  0.7543
   44MOL   O12921715   0.185   1.512   5.761 -0.4837 -0.0778 -0.1984
   44MOL   C13021716   0.248   1.614   5.679  0.1413 -0.0812  0.8597
   44MOL   C13121717   0.332   1.526   5.581  0.9291  0.1777  0.2216
   44MOL   C13221718   0.237   1.459   5.482 -0.3447  0.2000  0.4244
   44MOL   C13321719   0.310   1.349   5.407  0.4534  0.0854  0.8209
   44MOL   C13421720   0.226   1.281   5.292  0.0234 -0.2785 -0.2727
   44MOL   C13521721   0.310   1.171   5.230  0.9998 -0.3332  0.1417
   44MOL   H13621722   7.659   1.476   5.892 -2.2400  0.0759 -2.9596
   44MOL   H13721723   7.771   1.350   5.834  0.7795 -0.6816  1.6206
   44MOL   H13821724   0.034   1.648   5.833 -1.3531 -0.6680  3.1573
   44MOL   H13921725   0.302   1.671   5.755 -0.9165  0.7354  1.0215
   44MOL   H14021726   0.179   1.684   5.632 -0.8068 -0.8392  1.1130
   44MOL   H14121727   0.386   1.447   5.632  0.8621 -1.0625 -1.5755
   44MOL   H14221728   0.400   1.585   5.520  0.7216 -0.5253 -0.6962
   44MOL   H14321729   0.148   1.422   5.533 -0.3813 -1.9795 -1.1627
   44MOL   H14421730   0.209   1.550   5.428 -0.7054  0.3846  0.9164
   44MOL   H14521731   0.403   1.388   5.365  0.3513 -1.8251 -1.3036
   44MOL   H14621732   0.345   1.273   5.476  1.9406 -0.2640 -0.3039
   44MOL   H14721733   0.126   1.249   5.320  0.6075 -1.8741  0.0636
   44MOL   H14821734   0.198   1.353   5.216 -1.3073 -0.4825  0.0102
   44MOL   H14921735   0.307   1.076   5.283  2.1049  0.7101  2.1514
   44MOL   H15021736   0.272   1.148   5.131  0.7251  0.1061  0.1428
   44MOL   H15121737   0.415   1.201   5.225  1.2209 -1.1569 -0.2457
   44MOL   C15221738   0.132   1.530   5.994  0.0123  0.0471  0.2630
   44MOL   C15321739   0.056   1.598   6.114 -0.2063  0.3198  0.2056
   44MOL   O15421740   7.719   1.526   6.156  0.7094 -0.0796 -0.3242
   44MOL   C15521741   7.617   1.607   6.213 -0.2507  0.4447  0.1220
   44MOL   C15621742   7.507   1.651   6.113  0.2238 -0.2905  0.2714
   44MOL   C15721743   7.385   1.717   6.176 -0.5859 -0.3609 -0.0220
   44MOL   C15821744   7.284   1.775   6.080 -0.3570  0.1866  0.3581
   44MOL   C15921745   7.204   1.677   6.001 -0.2087 -0.1846  0.4218
   44MOL   C16021746   7.105   1.740   5.897  1.0504  0.5702  0.2734
   44MOL   H16121747   0.133   1.424   6.018 -0.8094  0.1079  0.5681
   44MOL   H16221748   0.228   1.582   5.985  0.1083 -0.1091  0.3857
   44MOL   H16321749   0.017   1.694   6.080 -0.5622  1.2396  3.0377
   44MOL   H16421750   7.657   1.681   6.282  1.7700  0.3915 -0.9501
   44MOL   H16521751   7.565   1.542   6.283  1.3153 -0.5333  0.4069
   44MOL   H16621752   7.487   1.574   6.038  0.6427 -0.0861 -0.0533
   44MOL   H16721753   7.547   1.722   6.040  2.0464 -0.3464  1.2020
   44MOL   H16821754   7.346   1.649   6.251  1.9507  0.6190  2.2887
   44MOL   H16921755   7.420   1.797   6.241 -0.6345 -0.0835 -0.3349
   44MOL   H17021756   7.205   1.825   6.137 -0.9038  0.2293 -0.4358
   44MOL   H17121757   7.329   1.859   6.028 -1.6208  1.1868  0.8358
   44MOL   H17221758   7.274   1.612   5.949  1.9409  3.3449 -1.2792
   44MOL   H17321759   7.138   1.621   6.067 -0.6195  0.5308  0.6241
   44MOL   H17421760   7.031   1.662   5.876  1.9864 -0.7097  1.6557
   44MOL   H17521761   7.058   1.824   5.949 -2.0201 -0.5687 -0.5176
   44MOL   H17621762   7.134   1.765   5.795  1.1081 -0.7724 -0.0486
   44MOL   C17721763   0.156   1.629   6.235  0.4817  0.0827 -0.4500
   44MOL   C17821764   0.189   1.782   6.270 -0.7102  0.4937 -0.4600
   44MOL   O17921765   0.082   1.813   6.359 -0.2848 -0.2089 -0.3094
   44MOL   C18021766   0.074   1.951   6.402  0.0606 -0.1579  0.1639
   44MOL   C18121767   7.697   1.975   6.443  0.1168  0.0770 -0.1011
   44MOL   C18221768   7.662   1.901   6.574 -0.5761 -0.3544 -0.1825
   44MOL   C18321769   7.516   1.908   6.603  0.1036 -0.1326 -0.3230
   44MOL   C18421770   7.471   1.816   6.714  0.7564 -0.4324  0.0603
   44MOL   C18521771   7.331   1.856   6.763  0.0010 -0.4598  0.6982
   44MOL   H18621772   0.115   1.584   6.326  3.4580 -1.0542  0.3868
   44MOL   H18721773   0.248   1.573   6.217  0.0140 -2.1466  3.5128
   44MOL   H18821774   0.181   1.836   6.176  2.3325 -0.8976 -1.5692
   44MOL   H18921775   0.106   2.014   6.319 -0.1127 -0.8328 -0.4220
   44MOL   H19021776   0.152   1.962   6.478 -1.2045 -0.5104  1.5406
   44MOL   H19121777   7.634   1.948   6.359  3.7319  0.8703 -3.2212
   44MOL   H19221778   7.670   2.077   6.470 -2.6890 -0.6425 -0.0377
   44MOL   H19321779   7.694   1.797   6.561 -0.3246 -0.0851 -1.7970
   44MOL   H19421780   7.713   1.957   6.652 -0.4722 -0.1707 -0.3803
   44MOL   H19521781   7.487   2.011   6.626 -1.1693 -0.1398 -1.7955
   44MOL   H19621782   7.456   1.892   6.513 -0.4085 -0.6324  0.1107
   44MOL   H19721783   7.470   1.711   6.686 -1.8007 -0.1059 -1.2001
   44MOL   H19821784   7.530   1.831   6.805 -0.5046  1.4889  0.5914
   44MOL   H19921785   7.304   1.789   6.845 -1.1440 -0.7191  0.1107
   44MOL   H20021786   7.325   1.958   6.803  0.7636 -0.1498  0.0445
   44MOL   H20121787   7.251   1.851   6.689 -0.4399  0.2718  1.1163
   44MOL   C20221788   0.334   1.807   6.323  0.3246 -0.0701  0.6923
   44MOL   C20321789   0.391   1.721   6.439 -0.4932 -0.1980 -0.0086
   44MOL   O20421790   0.347   1.788   6.562 -0.2246  0.5387 -0.7328
   44MOL   C20521791   0.233   1.727   6.626 -0.8006  0.2441  0.0355
   44MOL   C20621792   0.196   1.799   6.753 -0.4597  0.4592 -0.8944
   44MOL   C20721793   0.288   1.768   6.874 -0.2210  0.1628 -0.2934
   44MOL   C20821794   0.241   1.831   7.005 -0.3215 -0.0597  0.1258
   44MOL   C20921795   0.322   1.783   7.124 -0.4825 -0.0788 -0.3513
   44MOL   C21021796   0.292   1.846   7.265 -0.5134 -0.1739  0.3631
   44MOL   H21121797   0.413   1.791   6.249  1.4469 -1.8594  2.2065
   44MOL   H21221798   0.334   1.913   6.347 -1.9266 -0.1679  1.1842
   44MOL   H21321799   0.358   1.617   6.430  0.4530 -0.5111  0.0675
   44MOL   H21421800   0.275   1.629   6.649 -0.5652 -0.0366 -1.5523
   44MOL   H21521801   0.154   1.711   6.553 -0.1422 -0.9738 -0.4274
   44MOL   H21621802   0.095   1.767   6.779  0.7006  0.1012  3.5051
   44MOL   H21721803   0.202   1.904   6.725  0.5512  0.4156 -0.8815
   44MOL   H21821804   0.305   1.660   6.880 -1.7962 -0.0419  1.1291
   44MOL   H21921805   0.392   1.797   6.860  0.5535 -1.7776  1.1571
   44MOL   H22021806   0.258   1.937   6.985 -2.2439 -0.2239 -2.6676
   44MOL   H22121807   0.137   1.811   7.033  0.1453 -2.5180  0.1883
   44MOL   H22221808   0.314   1.674   7.128 -0.5223 -0.0678 -0.1272
   44MOL   H22321809   0.423   1.810   7.093 -1.0386  0.5323 -1.6230
   44MOL   H22421810   0.294   1.955   7.276 -0.1021 -0.1970  0.5119
   44MOL   H22521811   0.189   1.820   7.291 -1.0992  0.0922 -1.6103
   44MOL   H22621812   0.360   1.801   7.337  0.8969  0.5001 -0.5166
   44MOL   C22721813   0.552   1.728   6.443  0.5943  0.0544 -0.5081
   44MOL   C22821814   0.602   1.643   6.557  0.0585  0.1818 -0.2982
   44MOL   O22921815   0.567   1.511   6.520  0.1252 -0.4193 -0.4405
   44MOL   C23021816   0.514   1.432   6.620  0.3651  0.2402 -0.0421
   44MOL   C23121817   0.434   1.314   6.559  0.0915  0.3010 -0.1891
   44MOL   C23221818   0.310   1.355   6.475 -0.1006  0.0555 -0.5200
   44MOL   C23321819   0.201   1.240   6.456  0.1572  0.5920  0.0351
   44MOL   C23421820   0.073   1.308   6.395 -0.8043 -0.0511 -0.0518
   44MOL   C23521821   7.730   1.214   6.383  0.4571 -0.9251  0.0543
   44MOL   H23621822   0.601   1.701   6.349  1.4762 -1.4567  0.3664
   44MOL   H23721823   0.582   1.832   6.455 -0.8628  0.6963 -2.2687
   44MOL   H23821824   0.570   1.680   6.655  1.5874 -0.3128  0.4026
   44MOL   H23921825   0.441   1.495   6.669 -1.2732 -1.9401  0.4149
   44MOL   H24021826   0.587   1.394   6.692 -0.8225 -0.0789  1.0061
   44MOL   H24121827   0.377   1.258   6.633 -1.7982 -0.5829 -2.2621
   44MOL   H24221828   0.504   1.255   6.499  1.4096  0.3819  1.2167
   44MOL   H24321829   0.262   1.440   6.522 -1.6095 -0.4290 -1.1516
   44MOL   H24421830   0.351   1.395   6.382  1.1062 -2.8862 -1.3344
   44MOL   H24521831   0.231   1.157   6.393 -3.1033 -1.8836  1.5927
   44MOL   H24621832   0.191   1.193   6.554 -0.4303 -0.7202 -0.6433
   44MOL   H24721833   0.056   1.397   6.455  0.1702  0.6768 -0.8301
   44MOL   H24821834   0.089   1.335   6.290 -0.3302 -2.2855 -0.5919
   44MOL   H24921835   7.667   1.225   6.472 -0.6851  1.5562 -1.0218
   44MOL   H25021836   7.669   1.233   6.295 -1.4902 -0.3243  1.4964
   44MOL   H25121837   7.771   1.113   6.375 -0.4845 -1.2978 -0.2553
   44MOL   C25221838   0.757   1.650   6.561 -0.2736  0.2106  0.0362
   44MOL   C25321839   0.810   1.580   6.687 -1.8463 -0.3790 -0.3700
   44MOL   O25421840   0.777   1.651   6.806 -0.1830  0.4140  0.0613
   44MOL   C25521841   0.786   1.578   6.929  0.7131  0.4828 -0.1783
   44MOL   C25621842   0.733   1.658   7.041 -0.3856  0.7023 -0.0805
   44MOL   C25721843   0.802   1.797   7.051  0.0328  0.0157  0.1011
   44MOL   C25821844   0.756   1.894   7.162 -0.0780  0.3369  0.5433
   44MOL   C25921845   0.818   2.037   7.158 -0.3127 -0.2757 -0.3464
   44MOL   C26021846   0.968   2.038   7.157 -0.4523  0.2031  0.0280
   44MOL   H26121847   0.790   1.600   6.471  1.6349 -0.0572  0.8692
   44MOL   H26221848   0.796   1.752   6.557  1.3544 -0.3939  0.2675
   44MOL   H26321849   0.777   1.478   6.707  0.8830 -0.8992  1.7994
   44MOL   H26421850   0.888   1.548   6.952  0.0378 -1.2589  0.6067
   44MOL   H26521851   0.740   1.479   6.931  0.0996  0.7678  4.1255
   44MOL   H26621852   0.737   1.603   7.135 -2.3620  1.3323  0.3973
   44MOL   H26721853   0.626   1.668   7.024 -0.3936  2.0507  0.7280
   44MOL   H26821854   0.907   1.771   7.064 -0.0626 -0.5194 -0.1732
   44MOL   H26921855   0.789   1.839   6.952  1.7772  1.7412  0.5677
   44MOL   H27021856   0.648   1.906   7.169 -0.1065 -0.4826  1.5385
   44MOL   H27121857   0.786   1.837   7.250  1.3110 -0.6126 -0.5253
   44MOL   H27221858   0.772   2.097   7.080 -1.2885  1.9581  1.9039
   44MOL   H27321859   0.776   2.091   7.242  3.0569  1.2332  0.4613
   44MOL   H27421860   1.009   2.138   7.173  1.6157 -0.5305 -0.5871
   44MOL   H27521861   1.006   1.982   7.242 -1.4631  0.3061  0.5557
   44MOL   H27621862   1.004   2.000   7.061  0.4089  0.6295  0.1746
   44MOL   C27721863   0.967   1.577   6.680  0.2838  0.3342 -0.3215
   44MOL   C27821864   1.027   1.507   6.552  0.3579  0.1217  0.0239
   44MOL   O27921865   1.159   1.471   6.566 -0.7549 -0.2664 -0.2674
   44MOL   C28021866   1.252   1.580   6.560 -0.4213 -0.1805  0.3094
   44MOL   C28121867   1.293   1.622   6.414 -0.4317 -0.4395  0.0390
   44MOL   C28221868   1.408   1.721   6.409 -0.3138 -0.3666  0.5099
   44MOL   C28321869   1.365   1.867   6.439 -0.1634  0.0897 -0.2293
   44MOL   C28421870   1.341   1.959   6.316 -0.4136  0.4201  0.5126
   44MOL   C28521871   1.347   2.102   6.353 -0.3313  0.8189 -0.2302
   44MOL   H28621872   1.004   1.679   6.690  2.1244  0.0144 -3.1379
   44MOL   H28721873   1.008   1.523   6.764 -0.0259 -0.2104 -0.5213
   44MOL   H28821874   1.017   1.579   6.470 -1.0307 -0.8575 -0.6864
   44MOL   H28921875   1.345   1.550   6.609  0.4162  4.7794  2.0323
   44MOL   H29021876   1.222   1.664   6.623 -0.1486  0.2026 -0.0716
   44MOL   H29121877   1.210   1.663   6.356  0.2779  0.4539 -0.3586
   44MOL   H29221878   1.326   1.536   6.356 -1.6974 -0.7420 -0.2414
   44MOL   H29321879   1.494   1.692   6.469 -0.1049  0.6147  0.6949
   44MOL   H29421880   1.447   1.723   6.308 -1.0798 -1.2894  0.1902
   44MOL   H29521881   1.293   1.877   6.520 -1.0177 -1.9061 -0.7271
   44MOL   H29621882   1.455   1.908   6.486 -0.3843 -0.4568  0.6727
   44MOL   H29721883   1.412   1.943   6.235  1.5722  1.7858  1.9512
   44MOL   H29821884   1.245   1.923   6.278 -0.2797  1.5457 -0.9429
   44MOL   H29921885   1.278   2.131   6.432  0.1732 -1.3553  1.0662
   44MOL   H30021886   1.443   2.125   6.400 -0.3508  2.2299 -0.8668
   44MOL   H30121887   1.335   2.161   6.263  1.9920 -2.4242 -2.8100
   44MOL   C30221888   0.948   1.385   6.498 -0.5256 -0.4596 -0.5373
   44MOL   C30321889   1.001   1.334   6.365 -0.1292  0.3334 -0.0519
   44MOL   O30421890   0.934   1.426   6.275 -0.7700 -0.4848 -0.6890
   44MOL   C30521891   1.009   1.444   6.156  0.0770 -1.1223  0.5429
   44MOL   C30621892   0.920   1.546   6.079 -0.2687  0.1199 -0.2305
   44MOL   C30721893   0.933   1.691   6.126  0.0909 -0.2780  0.6187
   44MOL   C30821894   0.815   1.778   6.099 -0.3956 -0.4794 -0.3204
   44MOL   C30921895   0.813   1.919   6.161 -0.0149  0.1672  0.4850
   44MOL   C31021896   0.906   1.965   6.275 -0.5120  0.1547  0.1189
   44MOL   H31121897   0.959   1.307   6.573  0.3987  0.9717  0.8345
   44MOL   H31221898   0.842   1.402   6.481 -0.3972  0.2242 -0.6431
   44MOL   H31321899   1.108   1.351   6.354 -0.1627 -0.9520 -2.6786
   44MOL   H31421900   1.023   1.350   6.102 -0.3199 -0.9113  0.0659
   44MOL   H31521901   1.105   1.491   6.174 -0.6881  0.6141  0.2179
   44MOL   H31621902   0.814   1.521   6.092 -0.2691  0.0338 -0.4023
   44MOL   H31721903   0.933   1.541   5.971 -0.0109 -1.7664 -0.1256
   44MOL   H31821904   0.948   1.690   6.234  1.7171  0.5114  0.4120
   44MOL   H31921905   1.022   1.739   6.085 -1.0574  0.5548 -0.9348
   44MOL   H32021906   0.787   1.779   5.993 -1.6288 -3.1310 -0.0587
   44MOL   H32121907   0.739   1.710   6.136  0.1789 -1.6351 -1.2396
   44MOL   H32221908   0.823   1.995   6.084  0.4136  0.1949  0.5722
   44MOL   H32321909   0.710   1.939   6.194  0.2631 -0.7999  1.9791
   44MOL   H32421910   1.005   1.953   6.232 -1.0123 -0.3986 -0.8906
   44MOL   H32521911   0.883   2.071   6.286 -1.0867 -0.0757  1.2965
   44MOL   H32621912   0.899   1.907   6.368  0.8267  0.2433  0.2750
   44MOL   C32721913   0.963   1.194   6.317  0.2995  0.0716 -0.3911
   44MOL   C32821914   0.981   1.068   6.408  0.3280  0.5953  0.0559
   44MOL   O32921915   0.940   0.953   6.334 -1.1860  0.0986  0.2552
   44MOL   C33021916   0.822   0.887   6.382 -0.0428 -0.0455  0.3731
   44MOL   C33121917   0.761   0.772   6.286  0.2437 -0.3030  0.1122
   44MOL   C33221918   0.666   0.829   6.192 -0.8146 -0.5927 -0.1803
   44MOL   C33321919   0.603   0.723   6.103  0.2036 -0.2542 -0.0146
   44MOL   C33421920   0.503   0.780   5.995  0.0459  0.0054  0.2710
   44MOL   C33521921   0.562   0.850   5.872 -0.0247  0.0734 -0.2980
   44MOL   H33621922   1.013   1.177   6.222 -0.3572 -0.5345 -0.6304
   44MOL   H33721923   0.861   1.201   6.280  0.1702 -1.1042 -0.2625
   44MOL   H33821924   0.928   1.069   6.503 -0.0474 -2.1247 -0.1072
   44MOL   H33921925   0.752   0.966   6.411 -1.3895 -0.2720 -2.0950
   44MOL   H34021926   0.852   0.836   6.473  2.2186  0.9081  0.2138
   44MOL   H34121927   0.706   0.694   6.339 -0.2567  0.0469  0.1134
   44MOL   H34221928   0.846   0.713   6.251  1.0767  0.3812  0.9717
   44MOL   H34321929   0.603   0.894   6.252 -0.6812 -0.1248 -0.5364
   44MOL   H34421930   0.717   0.893   6.119 -0.1543 -2.4785 -1.4331
   44MOL   H34521931   0.673   0.648   6.067  1.9801  1.3578  0.0024
   44MOL   H34621932   0.544   0.664   6.173  2.8907 -2.8924  0.1086
   44MOL   H34721933   0.446   0.696   5.956  1.9352  0.0105 -2.6101
   44MOL   H34821934   0.422   0.837   6.041  0.6177  1.1392 -0.1241
   44MOL   H34921935   0.618   0.940   5.897 -0.5664  0.2380  0.3430
   44MOL   H35021936   0.619   0.776   5.815  0.9438  0.7579 -0.2397
   44MOL   H35121937   0.486   0.894   5.809  0.5053  0.2490 -0.8242
   44MOL   C35221938   1.132   1.047   6.434 -0.2072 -0.2328  0.1072
   44MOL   C35321939   1.160   0.918   6.508 -0.5242  0.5281  0.3683
   44MOL   O35421940   1.127   0.950   6.636 -0.2410  0.2825 -0.3625
   44MOL   C35521941   1.103   0.838   6.726 -0.0178  0.3902  0.1668
   44MOL   C35621942   1.083   0.886   6.877  0.5145 -0.4399  0.1361
   44MOL   C35721943   0.969   0.989   6.900 -0.0453 -0.2146 -0.5641
   44MOL   C35821944   0.953   1.050   7.036  0.1681 -0.2832 -0.4157
   44MOL   C35921945   0.842   1.152   7.055 -0.2121  0.8787  0.1589
   44MOL   C36021946   0.704   1.101   7.080 -0.6245  0.2364  0.0849
   44MOL   H36121947   1.176   1.029   6.335  1.1561 -0.8527  0.8111
   44MOL   H36221948   1.172   1.138   6.479  3.9894 -1.5497 -0.7824
   44MOL   H36321949   1.098   0.835   6.476 -0.5987  1.5634 -2.3435
   44MOL   H36421950   1.178   0.760   6.732 -0.5109 -0.2177 -1.3881
   44MOL   H36521951   1.014   0.795   6.681 -0.0394  0.3085  0.2905
   44MOL   H36621952   1.183   0.914   6.909  0.6698 -0.2026 -0.5483
   44MOL   H36721953   1.056   0.807   6.947  0.4889  0.1166  0.7555
   44MOL   H36821954   1.000   1.072   6.837  0.2121  0.2604  0.1871
   44MOL   H36921955   0.872   0.950   6.868  0.0333 -0.2336 -0.7797
   44MOL   H37021956   0.948   0.969   7.109 -1.2084 -0.0029 -0.1915
   44MOL   H37121957   1.048   1.100   7.052 -0.0647 -0.3680  1.3833
   44MOL   H37221958   0.879   1.202   7.144  1.6642 -0.7731  0.3469
   44MOL   H37321959   0.839   1.210   6.963 -3.5467  1.5095  0.5901
   44MOL   H37421960   0.660   1.035   7.006 -0.0160  0.3489 -0.3763
   44MOL   H37521961   0.713   1.032   7.164 -0.9024 -0.2608 -0.2870
   44MOL   H37621962   0.632   1.175   7.117 -0.3579 -0.1243  1.3758
   44MOL   C37721963   1.314   0.888   6.506 -0.4680 -0.3761  0.6986
   44MOL   C37821964   1.392   0.856   6.380 -0.0865 -0.0362 -0.0281
   44MOL   O37921965   1.347   0.723   6.342  0.0282  0.1273  0.6793
   44MOL   C38021966   1.254   0.716   6.233 -0.0436  0.6507 -0.4052
   44MOL   C38121967   1.231   0.561   6.199  0.2329  0.0893 -0.6353
   44MOL   C38221968   1.131   0.544   6.090 -0.0515  0.0012 -0.1294
   44MOL   C38321969   1.126   0.397   6.052 -0.2777  0.3519 -0.0926
   44MOL   C38421970   1.007   0.359   5.965  0.2018 -0.6320 -0.1845
   44MOL   C38521971   1.004   0.208   5.929 -0.6313 -0.6646 -0.7623
   44MOL   H38621972   1.367   0.962   6.566 -0.6886  0.5599 -0.2544
   44MOL   H38721973   1.331   0.797   6.565  0.8470 -0.0449  0.8432
   44MOL   H38821974   1.367   0.931   6.305  0.8582  0.6958  0.3815
   44MOL   H38921975   1.299   0.759   6.144 -1.7095  0.2284 -1.4829
   44MOL   H39021976   1.165   0.775   6.257 -2.4627 -3.0602  0.2772
   44MOL   H39121977   1.191   0.521   6.292 -0.4059 -1.1605 -1.4367
   44MOL   H39221978   1.326   0.520   6.166 -0.1253 -0.2783 -1.2154
   44MOL   H39321979   1.028   0.575   6.106 -0.5865 -0.6701 -2.0201
   44MOL   H39421980   1.164   0.594   5.998 -0.0794 -0.9771 -0.6804
   44MOL   H39521981   1.229   0.371   6.028 -0.5775 -1.8152  0.8722
   44MOL   H39621982   1.105   0.334   6.138  0.3168 -0.7719 -0.7566
   44MOL   H39721983   0.912   0.374   6.016  0.0815 -0.8112 -0.3533
   44MOL   H39821984   1.012   0.422   5.876 -0.5945  1.1153  0.9699
   44MOL   H39921985   0.971   0.139   6.008  0.1647 -1.1352 -0.8322
   44MOL   H40021986   0.936   0.212   5.844 -0.3546 -0.3933 -0.9701
   44MOL   H40121987   1.101   0.178   5.890 -0.5558 -1.1554 -0.2182
   44MOL   C40221988   1.546   0.861   6.383 -0.3832  0.0117  0.7471
   44MOL   C40321989   1.600   0.812   6.243 -0.6328 -0.1311  0.3468
   44MOL   O40421990   1.736   0.780   6.270  0.1305 -0.2856  0.1773
   44MOL   C40521991   1.769   0.641   6.294  0.1884  0.3740 -0.5548
   44MOL   C40621992   1.921   0.643   6.306 -0.4496  0.4142 -0.4090
   44MOL   C40721993   1.976   0.498   6.322  0.2860  0.2670  0.1265
   44MOL   C40821994   2.129   0.502   6.321  0.1269  0.0264  0.0572
   44MOL   C40921995   2.202   0.370   6.302  0.2132  0.4782 -0.3355
   44MOL   C41021996   2.336   0.379   6.230 -0.3853  0.7436  0.1156
   44MOL   H41121997   1.592   0.804   6.463 -0.6628 -0.6416  0.4472
   44MOL   H41221998   1.579   0.964   6.395  1.0213 -0.0833 -2.0339
   44MOL   H41321999   1.545   0.725   6.207  1.3416 -1.2417 -0.0388
   44MOL   H41422000   1.731   0.583   6.211 -1.6136 -1.1806  1.3087
   44MOL   H41522001   1.723   0.626   6.392  1.4848  1.6511  0.2722
   44MOL   H41622002   1.946   0.703   6.393 -0.8504 -0.3244  0.2252
   44MOL   H41722003   1.962   0.686   6.215 -3.3158  1.7063 -1.1450
   44MOL   H41822004   1.949   0.456   6.419  1.9602 -1.9283 -0.3413
   44MOL   H41922005   1.938   0.427   6.249  0.7563  0.9464 -0.7844
   44MOL   H42022006   2.162   0.588   6.262  2.3714 -0.4468  0.5982
   44MOL   H42122007   2.160   0.536   6.420 -0.0330 -1.7771  0.7500
   44MOL   H42222008   2.214   0.319   6.398  0.0304  1.4221  0.1974
   44MOL   H42322009   2.142   0.294   6.253 -0.5209  0.8597 -0.0471
   44MOL   H42422010   2.410   0.440   6.283  1.4534 -0.6160 -0.8414
   44MOL   H42522011   2.384   0.282   6.216 -2.6734 -0.2042 -1.2915
   44MOL   H42622012   2.317   0.424   6.133 -0.1101  1.2833  0.3087
   44MOL   C42722013   1.605   0.916   6.134  0.1734 -0.1548 -0.2140
   44MOL   C42822014   1.646   0.863   5.992  0.9004 -0.4240  0.7897
   44MOL   O42922015   1.594   0.950   5.896  0.2430 -0.1277 -0.1043
   44MOL   C43022016   1.549   0.889   5.775 -0.4594  0.5082 -1.1363
   44MOL   C43122017   1.457   0.990   5.711  0.3467 -0.5207  0.4315
   44MOL   C43222018   1.382   0.935   5.586  0.2407  0.1757  0.4408
   44MOL   C43322019   1.311   1.041   5.514 -0.0167 -0.2334  0.4576
   44MOL   C43422020   1.233   0.980   5.397  0.6601  0.2779 -0.0427
   44MOL   C43522021   1.122   1.079   5.355  0.0866 -0.1253  0.0921
   44MOL   H43622022   1.501   0.948   6.129  0.4899  0.7550 -1.3034
   44MOL   H43722023   1.668   1.003   6.154 -0.1331 -0.2448  1.1778
   44MOL   H43822024   1.596   0.766   5.986 -1.7500  0.8841  0.7190
   44MOL   H43922025   1.494   0.800   5.806 -0.8588  1.0982 -0.0820
   44MOL   H44022026   1.635   0.862   5.715 -0.2677 -1.3720 -0.0387
   44MOL   H44122027   1.515   1.076   5.678 -0.9132 -0.6229 -2.1769
   44MOL   H44222028   1.387   1.027   5.786  1.2048  1.5592  0.2519
   44MOL   H44322029   1.455   0.886   5.521  0.0022  3.0857 -2.2127
   44MOL   H44422030   1.318   0.868   5.643  0.4344  2.4745  3.5078
   44MOL   H44522031   1.240   1.079   5.588 -1.1539 -1.5001  0.0527
   44MOL   H44622032   1.382   1.119   5.487  1.7354 -0.7094  3.5354
   44MOL   H44722033   1.294   0.944   5.315 -0.6676 -1.7218 -0.1808
   44MOL   H44822034   1.187   0.894   5.445  0.8691 -0.0295 -0.3939
   44MOL   H44922035   1.077   1.036   5.264  1.3184 -1.9387  0.3038
   44MOL   H45022036   1.046   1.082   5.433  2.1761 -1.1810  2.1953
   44MOL   H45122037   1.143   1.182   5.328  1.3822 -0.2158  0.7157
   44MOL   C45222038   1.798   0.827   5.964  0.3651  0.1481 -0.0303
   44MOL   C45322039   1.914   0.931   5.973  0.7403 -0.2290  0.6557
   44MOL   O45422040   1.900   0.995   6.097 -0.0571  0.3062  0.0155
   44MOL   C45522041   2.026   1.037   6.153  0.1665 -0.1419  1.0487
   44MOL   C45622042   2.015   1.086   6.294  0.4373 -0.0907  0.0400
   44MOL   C45722043   2.128   1.170   6.355 -0.1322  0.0103 -0.3900
   44MOL   C45822044   2.082   1.234   6.487  0.4451  0.1780 -0.1459
   44MOL   C45922045   2.194   1.299   6.566 -0.4380 -0.9398 -0.7547
   44MOL   C46022046   2.172   1.306   6.718 -0.2000 -0.5860  0.1249
   44MOL   H46122047   1.823   0.751   6.038 -1.4420  0.1373  0.5931
   44MOL   H46222048   1.807   0.766   5.874 -1.7959 -0.9189  0.4470
   44MOL   H46322049   2.012   0.884   5.959  1.2036  0.9012  0.0002
   44MOL   H46422050   2.080   1.112   6.095  0.5175 -1.9329 -1.0241
   44MOL   H46522051   2.095   0.952   6.151  0.4304  0.0842  0.1579
   44MOL   H46622052   2.005   0.998   6.356 -0.1696 -0.5796 -0.7398
   44MOL   H46722053   1.923   1.144   6.300 -1.9258 -3.4306 -2.1212
   44MOL   H46822054   2.216   1.107   6.364 -0.3802 -0.3337 -0.3521
   44MOL   H46922055   2.150   1.253   6.287  1.7544 -1.1671 -1.2717
   44MOL   H47022056   2.001   1.300   6.459 -0.0345 -0.0593  0.6731
   44MOL   H47122057   2.043   1.160   6.556  2.2993 -2.0629 -1.4234
   44MOL   H47222058   2.288   1.245   6.554 -0.2520 -1.1139  1.2760
   44MOL   H47322059   2.210   1.399   6.526  1.7630 -1.0700 -0.2371
   44MOL   H47422060   2.072   1.346   6.738 -0.1565  0.4722 -1.6614
   44MOL   H47522061   2.171   1.206   6.762  3.6916 -0.4559  0.7145
   44MOL   H47622062   2.248   1.366   6.769  2.1468 -1.1122 -2.6849
   44MOL   C47722063   1.892   1.025   5.851 -0.2152 -0.6486 -1.0274
   44MOL   C47822064   2.006   1.128   5.833 -0.1082  0.8478 -0.2728
   44MOL   O47922065   2.133   1.055   5.824  0.3679 -0.1759 -0.0490
   44MOL   C48022066   2.249   1.129   5.795 -0.4718 -0.8057 -0.5000
   44MOL   C48122067   2.371   1.039   5.821  0.5801 -0.5607 -0.5776
   44MOL   C48222068   2.509   1.100   5.787  0.1805  0.0062 -0.6127
   44MOL   C48322069   2.626   1.008   5.828  0.2354  0.6742 -0.8030
   44MOL   C48422070   2.766   1.071   5.801 -1.1104 -0.2047 -0.2489
   44MOL   C48522071   2.888   0.984   5.848 -0.7070  0.2121  0.6124
   44MOL   H48622072   1.899   0.966   5.760  0.5622 -1.7208 -0.2936
   44MOL   H48722073   1.796   1.077   5.853  0.6001  0.9707 -2.5861
   44MOL   H48822074   1.997   1.176   5.736  1.6309  0.8210 -0.4726
   44MOL   H48922075   2.242   1.215   5.862 -2.2870 -1.0116 -0.4180
   44MOL   H49022076   2.254   1.159   5.690  0.8846 -0.2264 -0.2812
   44MOL   H49122077   2.361   0.941   5.775 -1.7986 -1.1718  1.1513
   44MOL   H49222078   2.370   1.013   5.927 -0.3034 -1.9918 -0.9264
   44MOL   H49322079   2.498   1.135   5.685  0.9618 -2.0983 -1.4484
   44MOL   H49422080   2.510   1.194   5.843  0.4820 -1.0674  1.2318
   44MOL   H49522081   2.622   0.994   5.936  1.6034 -2.8683 -1.1572
   44MOL   H49622082   2.612   0.910   5.783 -0.8620  0.0302  0.8832
   44MOL   H49722083   2.774   1.105   5.698  0.3409  1.8078  0.5185
   44MOL   H49822084   2.780   1.157   5.866 -0.1745 -0.7128  0.2499
   44MOL   H49922085   2.983   1.018   5.806 -1.5327  1.7249 -0.0465
   44MOL   H50022086   2.903   0.983   5.956  0.7854 -3.2597  0.4317
   44MOL   H50122087   2.875   0.879   5.824  1.2470 -0.4567  2.2437
   44MOL   H50222088   2.009   1.204   5.910 -1.2726  1.9551 -1.3078
   45MOL     C122089   2.936   3.627   3.527 -0.4841 -0.0195  0.2801
   45MOL     C222090   2.813   3.572   3.594  0.4521  0.0892  0.7856
   45MOL     O322091   2.860   3.496   3.700  0.2890  0.3023 -0.2610
   45MOL     C422092   2.769   3.475   3.803  0.0007  1.1407  0.1377
   45MOL     C522093   2.785   3.584   3.920 -0.0485  0.3732 -0.0461
   45MOL     C622094   2.693   3.557   4.040  0.0464 -0.2460  0.5979
   45MOL     C722095   2.670   3.677   4.132 -0.0260 -0.0134  0.1923
   45MOL     C822096   2.600   3.649   4.267  0.2004  0.4304 -0.0746
   45MOL     C922097   2.604   3.766   4.360  1.4312  0.2800 -0.0980
   45MOL    H1022098   2.996   3.545   3.488 -3.1335 -2.2183  0.7460
   45MOL    H1122099   2.931   3.707   3.452  3.2581  0.4176  0.3965
   45MOL    H1222100   2.757   3.656   3.634 -1.5994 -0.6535 -0.4420
   45MOL    H1322101   2.802   3.373   3.826 -4.2989 -0.5342 -0.5937
   45MOL    H1422102   2.667   3.463   3.768  0.2563 -0.8599 -0.0220
   45MOL    H1522103   2.767   3.681   3.875 -1.7600  0.8718  1.6999
   45MOL    H1622104   2.888   3.589   3.957  0.4370  0.5081 -1.3765
   45MOL    H1722105   2.596   3.516   4.012 -0.3120  1.0863 -0.1543
   45MOL    H1822106   2.742   3.484   4.105 -0.8570 -0.3932  1.1274
   45MOL    H1922107   2.767   3.724   4.145 -0.0967  1.0125 -2.6450
   45MOL    H2022108   2.619   3.756   4.076  2.0595 -0.3995 -2.3289
   45MOL    H2122109   2.644   3.561   4.314  0.9734  0.7318 -0.2336
   45MOL    H2222110   2.493   3.640   4.247  0.2544  0.0965 -0.2232
   45MOL    H2322111   2.705   3.786   4.396  2.0064  0.5794 -1.8533
   45MOL    H2422112   2.551   3.853   4.322 -2.6418 -1.9477  0.1987
   45MOL    H2522113   2.565   3.734   4.457  0.9462  0.2211 -0.3162
   45MOL    H2622114   2.999   3.659   3.609  0.5866  3.3283 -1.7395
   45MOL    C2722115   2.717   3.495   3.498 -0.4483 -0.4038 -0.1659
   45MOL    C2822116   2.674   3.567   3.372  0.4608 -0.3344 -0.6697
   45MOL    O2922117   2.616   3.470   3.292  0.2760  0.1534  0.1457
   45MOL    C3022118   2.661   3.458   3.162  0.6913  0.6371  0.2073
   45MOL    C3122119   2.589   3.348   3.093 -0.3584 -0.3953  0.7665
   45MOL    C3222120   2.655   3.303   2.958  0.3823 -0.4840  0.6928
   45MOL    C3322121   2.576   3.201   2.876  0.0444 -0.0567  0.0773
   45MOL    C3422122   2.609   3.059   2.924 -0.3063 -0.6361  0.1238
   45MOL    C3522123   2.530   2.946   2.856 -0.0494  0.0586 -0.1669
   45MOL    H3622124   2.781   3.411   3.470  3.7709  1.9134  2.1503
   45MOL    H3722125   2.634   3.445   3.548  0.7589 -3.2631 -0.8973
   45MOL    H3822126   2.761   3.616   3.327  1.5730  0.5853  2.3479
   45MOL    H3922127   2.767   3.430   3.165  0.6741  0.7069  1.8370
   45MOL    H4022128   2.642   3.555   3.117 -2.3295 -0.7485 -1.6715
   45MOL    H4122129   2.490   3.383   3.062  1.0495  2.9200 -0.1010
   45MOL    H4222130   2.568   3.257   3.151  1.5899 -1.3226  0.0576
   45MOL    H4322131   2.675   3.385   2.889 -0.2601  0.6503  1.8277
   45MOL    H4422132   2.757   3.277   2.986 -0.1180 -1.5445  1.5292
   45MOL    H4522133   2.470   3.222   2.886  0.1977  0.8540 -0.1669
   45MOL    H4622134   2.606   3.197   2.771  1.1085  0.2786  0.3602
   45MOL    H4722135   2.715   3.041   2.906  0.0599  0.1401  1.4071
   45MOL    H4822136   2.597   3.051   3.032 -1.2160  0.5195  0.1242
   45MOL    H4922137   2.549   2.950   2.749 -1.6478  0.8908 -0.4257
   45MOL    H5022138   2.571   2.850   2.887  0.0987 -0.5408 -2.1601
   45MOL    H5122139   2.422   2.950   2.863 -0.3123 -1.9236 -2.3917
   45MOL    C5222140   2.561   3.667   3.411 -0.5339  0.0301  0.0562
   45MOL    C5322141   2.493   3.744   3.287 -0.3188 -1.0157 -0.1352
   45MOL    O5422142   2.386   3.826   3.338 -0.0105  0.3237 -0.7216
   45MOL    C5522143   2.257   3.758   3.356  0.4330  0.0901  0.3323
   45MOL    C5622144   2.134   3.869   3.366 -0.2583  0.0242 -0.2145
   45MOL    C5722145   2.142   3.987   3.268 -0.6615 -0.1126  0.7678
   45MOL    C5822146   2.005   4.054   3.225 -0.0569  0.1967 -0.2294
   45MOL    C5922147   2.015   4.149   3.102 -0.1857 -0.1463  0.0569
   45MOL    C6022148   2.038   4.065   2.976  0.0595  0.1568  0.0269
   45MOL    H6122149   2.599   3.739   3.484  0.6982 -0.5108 -0.0409
   45MOL    H6222150   2.484   3.605   3.458 -0.0306  0.3053  1.2760
   45MOL    H6322151   2.458   3.675   3.210 -0.6362  1.7755 -2.5585
   45MOL    H6422152   2.258   3.681   3.432  1.8842  0.1571  0.3963
   45MOL    H6522153   2.241   3.708   3.260 -0.5381  2.2466 -0.6652
   45MOL    H6622154   2.125   3.906   3.468 -2.0442  1.1215 -0.7475
   45MOL    H6722155   2.044   3.810   3.350 -0.6073  0.7998 -1.1517
   45MOL    H6822156   2.191   4.072   3.315 -0.7600  0.8065 -0.7586
   45MOL    H6922157   2.204   3.955   3.184 -0.1472 -0.2459  1.1961
   45MOL    H7022158   1.944   3.964   3.214 -0.3101 -0.0936  2.9597
   45MOL    H7122159   1.957   4.107   3.307 -0.6080 -1.9456  0.8832
   45MOL    H7222160   1.920   4.197   3.080  1.1602  1.1460 -3.2820
   45MOL    H7322161   2.098   4.219   3.107 -2.1362  2.2395  0.2283
   45MOL    H7422162   2.126   4.003   2.995  0.1369  0.8777  2.1533
   45MOL    H7522163   1.957   3.996   2.949  0.3078  0.1108 -0.6115
   45MOL    H7622164   2.068   4.120   2.887 -1.8305  1.1765  0.0091
   45MOL    C7722165   2.600   3.834   3.219  0.2423  0.2686 -0.7585
   45MOL    C7822166   2.546   3.892   3.091  0.1352 -0.4536  0.3550
   45MOL    O7922167   2.544   3.783   2.988 -0.0489 -0.3738 -0.0367
   45MOL    C8022168   2.416   3.762   2.930 -0.4943  0.1926  0.0611
   45MOL    C8122169   2.431   3.654   2.823  0.3635 -0.1199  0.2924
   45MOL    C8222170   2.534   3.685   2.714 -0.0769  0.1797  0.0077
   45MOL    C8322171   2.550   3.573   2.616 -0.4564  0.3648  0.0275
   45MOL    C8422172   2.641   3.604   2.498  0.0102 -0.5215  0.0232
   45MOL    C8522173   2.788   3.599   2.541  0.6995 -0.9035  0.4594
   45MOL    H8622174   2.698   3.792   3.194 -0.2836 -1.9210  0.7079
   45MOL    H8722175   2.633   3.911   3.288  0.5229 -0.7789  0.2986
   45MOL    H8822176   2.446   3.929   3.114  1.4137  2.3478  1.5854
   45MOL    H8922177   2.372   3.847   2.877 -2.4717 -0.5800  0.4235
   45MOL    H9022178   2.342   3.745   3.009  0.5666  1.8528  1.4571
   45MOL    H9122179   2.336   3.630   2.776  0.3861  0.0309  0.1682
   45MOL    H9222180   2.458   3.559   2.868 -3.1752 -0.6176  1.4479
   45MOL    H9322181   2.508   3.781   2.668 -1.0869  1.1337  2.5239
   45MOL    H9422182   2.633   3.704   2.757  0.0190 -1.1219  0.3764
   45MOL    H9522183   2.585   3.485   2.671 -1.1515  0.4826  0.6695
   45MOL    H9622184   2.451   3.538   2.586 -1.2170  1.8173  0.7861
   45MOL    H9722185   2.629   3.524   2.425  0.0171 -1.9941  1.6079
   45MOL    H9822186   2.621   3.698   2.447 -3.8584 -0.6378  1.1798
   45MOL    H9922187   2.811   3.696   2.584  1.8893 -0.7833 -0.3976
   45MOL   H10022188   2.814   3.515   2.606 -1.7796 -0.8053  1.5942
   45MOL   H10122189   2.848   3.586   2.451 -1.3609  0.4610 -1.1489
   45MOL   C10222190   2.629   4.008   3.040 -0.0453  0.2497  0.2622
   45MOL   C10322191   2.602   4.150   3.080 -0.2211  0.1830  0.3100
   45MOL   O10422192   2.710   4.240   3.062 -0.5021  0.3751  0.0965
   45MOL   C10522193   2.825   4.229   3.147 -0.1491  0.3014 -0.5955
   45MOL   C10622194   2.899   4.361   3.147  0.4605  0.2181 -0.3154
   45MOL   C10722195   2.809   4.471   3.199  0.2379 -0.6376 -0.2266
   45MOL   C10822196   2.876   4.602   3.177 -0.1645  0.0581  0.8816
   45MOL   C10922197   2.794   4.718   3.244  0.1941 -0.3543 -0.7692
   45MOL   C11022198   2.862   4.856   3.240 -0.1674  0.4108 -0.6068
   45MOL   H11122199   2.731   3.989   3.074 -0.4823  1.6435  2.4300
   45MOL   H11222200   2.650   3.994   2.934 -1.4061  1.2343 -0.1441
   45MOL   H11322201   2.564   4.146   3.182 -2.1072 -2.5359 -0.4237
   45MOL   H11422202   2.902   4.158   3.118  0.9668  1.8037 -1.3425
   45MOL   H11522203   2.795   4.204   3.249  2.5142 -0.0760  0.1351
   45MOL   H11622204   2.950   4.381   3.053 -0.1732  1.3507 -0.4261
   45MOL   H11722205   2.978   4.365   3.222 -1.1465  2.1692  1.3352
   45MOL   H11822206   2.721   4.470   3.135 -0.2828 -0.0790  0.4741
   45MOL   H11922207   2.780   4.460   3.303 -0.1357  0.5437 -0.2038
   45MOL   H12022208   2.977   4.610   3.217  0.1280  1.8371 -0.1475
   45MOL   H12122209   2.883   4.622   3.070 -0.7162  0.2363  0.8773
   45MOL   H12222210   2.703   4.728   3.184  0.8954  0.4612 -1.7233
   45MOL   H12322211   2.765   4.698   3.347  0.4545  0.1866 -0.5884
   45MOL   H12422212   2.875   4.913   3.148  4.0519  0.2506 -0.2249
   45MOL   H12522213   2.810   4.935   3.293  0.4849 -0.3646  1.2259
   45MOL   H12622214   2.965   4.853   3.275  0.1910 -0.6571 -1.7207
   45MOL   C12722215   2.484   4.197   2.993  0.0832 -0.1238 -0.7002
   45MOL   C12822216   2.408   4.323   3.040 -0.1055  0.1228 -0.8568
   45MOL   O12922217   2.352   4.302   3.177  0.0036  0.4256 -0.4844
   45MOL   C13022218   2.415   4.366   3.289  0.3620 -0.1917 -0.2899
   45MOL   C13122219   2.349   4.312   3.420 -0.3861 -0.2934  0.5753
   45MOL   C13222220   2.410   4.171   3.453  0.0986  0.3491 -0.1506
   45MOL   C13322221   2.559   4.171   3.502 -0.7694 -0.1078  0.5680
   45MOL   C13422222   2.589   4.045   3.587 -0.5867  0.4479  0.2530
   45MOL   C13522223   2.737   4.021   3.598  0.0408 -0.4186  0.4045
   45MOL   H13622224   2.526   4.227   2.897 -0.1960  1.3265 -0.3889
   45MOL   H13722225   2.406   4.122   2.979 -1.9483  2.0794 -1.8015
   45MOL   H13822226   2.484   4.401   3.032  0.3905 -0.2256  0.4124
   45MOL   H13922227   2.404   4.473   3.270  2.2120  0.1931  0.6444
   45MOL   H14022228   2.522   4.348   3.296  0.2037 -0.4100  1.8368
   45MOL   H14122229   2.241   4.309   3.408 -0.2555 -1.6799 -0.4635
   45MOL   H14222230   2.383   4.371   3.505  2.4669  0.1945 -0.8297
   45MOL   H14322231   2.360   4.127   3.539 -2.3977  1.7512 -0.8407
   45MOL   H14422232   2.408   4.103   3.367  0.6977 -1.0156  0.9025
   45MOL   H14522233   2.623   4.189   3.416  0.3189  0.3880  1.4675
   45MOL   H14622234   2.579   4.257   3.566  0.4886  0.3548 -0.4280
   45MOL   H14722235   2.552   4.060   3.688  1.6857  0.8983  1.0602
   45MOL   H14822236   2.547   3.953   3.547 -0.8221 -0.1143  1.7703
   45MOL   H14922237   2.776   3.980   3.505  0.5601  2.1930 -0.5867
   45MOL   H15022238   2.783   4.119   3.615  0.2044 -0.7116  1.7003
   45MOL   H15122239   2.757   3.959   3.685 -2.0435  1.4993  2.3028
   45MOL   C15222240   2.293   4.371   2.946 -0.3803  0.1359 -0.8929
   45MOL   C15322241   2.227   4.511   2.983  0.7753  0.0943  0.4246
   45MOL   O15422242   2.282   4.626   2.932 -0.1873 -0.2202 -0.0302
   45MOL   C15522243   2.422   4.638   2.928 -0.4475  0.3100 -0.0953
   45MOL   C15622244   2.468   4.774   2.880 -0.1358  0.1578  0.0366
   45MOL   C15722245   2.619   4.796   2.913  0.4322  0.1282  0.4019
   45MOL   C15822246   2.677   4.909   2.826 -0.1138  0.9237  0.2652
   45MOL   C15922247   2.826   4.906   2.819 -0.2646 -0.2358  0.5774
   45MOL   C16022248   2.883   5.036   2.759  0.1272 -0.2875  0.1963
   45MOL   H16122249   2.322   4.380   2.841  0.7164 -0.8248 -0.6780
   45MOL   H16222250   2.217   4.293   2.949 -1.8259  1.4141 -2.9282
   45MOL   H16322251   2.247   4.517   3.090 -0.8859 -0.3431  0.7667
   45MOL   H16422252   2.462   4.566   2.857 -1.4633  0.5021 -0.8656
   45MOL   H16522253   2.464   4.612   3.026  0.8973 -1.1386 -1.0327
   45MOL   H16622254   2.393   4.843   2.920 -1.5259 -1.2194 -0.1513
   45MOL   H16722255   2.450   4.785   2.773 -1.9095  2.3114  0.5098
   45MOL   H16822256   2.622   4.822   3.019  2.0879 -0.2043  0.4467
   45MOL   H16922257   2.665   4.699   2.894  0.8806  0.3011  0.6283
   45MOL   H17022258   2.635   4.918   2.726 -2.3672  0.0927  1.1090
   45MOL   H17122259   2.654   4.999   2.882  0.5549  0.6927  0.9149
   45MOL   H17222260   2.867   4.900   2.920  2.4751 -1.1190 -0.5196
   45MOL   H17322261   2.865   4.813   2.776  3.1495  1.7192 -0.8093
   45MOL   H17422262   2.991   5.025   2.746  0.1026  0.8184 -0.9905
   45MOL   H17522263   2.832   5.064   2.667 -0.6747  1.3146  1.1040
   45MOL   H17622264   2.864   5.120   2.826 -0.4786  0.5690 -1.0332
   45MOL   C17722265   2.075   4.515   2.960  0.0375  0.0735  0.3042
   45MOL   C17822266   2.001   4.594   3.066  0.0427 -0.1395 -0.4225
   45MOL   O17922267   1.872   4.642   3.032 -0.0363  0.7021  0.1752
   45MOL   C18022268   1.876   4.750   2.934 -0.0390  0.1305 -0.0009
   45MOL   C18122269   1.726   4.793   2.916  0.3410 -0.1394  1.0539
   45MOL   C18222270   1.727   4.908   2.807 -0.1704 -0.0917 -0.4243
   45MOL   C18322271   1.597   4.930   2.741 -0.0134 -0.0455 -0.2461
   45MOL   C18422272   1.612   5.034   2.625 -0.6451  0.3202 -0.8807
   45MOL   C18522273   1.651   5.178   2.672  0.4619  0.1746  0.2135
   45MOL   H18622274   2.051   4.543   2.858  1.6934  1.0148  0.1458
   45MOL   H18722275   2.035   4.416   2.983 -1.7554  1.1371  1.9011
   45MOL   H18822276   2.061   4.685   3.071  0.1665 -0.1906 -0.9362
   45MOL   H18922277   1.910   4.730   2.833 -0.0583  0.0772  0.0033
   45MOL   H19022278   1.921   4.839   2.977  1.0087 -0.9821  1.2533
   45MOL   H19122279   1.678   4.835   3.005 -1.2908  1.6280 -0.6067
   45MOL   H19222280   1.658   4.714   2.884 -0.2311  0.1375  1.5877
   45MOL   H19322281   1.748   5.002   2.857 -0.6987  0.4232 -1.1501
   45MOL   H19422282   1.802   4.884   2.731  2.4609  0.1925  2.0031
   45MOL   H19522283   1.549   4.838   2.710  0.0093 -0.2707  0.3924
   45MOL   H19622284   1.537   4.980   2.816 -0.3592  0.9669 -1.1754
   45MOL   H19722285   1.689   4.996   2.558  0.5436 -1.0686  1.2380
   45MOL   H19822286   1.523   5.038   2.562 -0.2351  2.7274 -1.3618
   45MOL   H19922287   1.656   5.233   2.579  2.1790  1.1080  0.8438
   45MOL   H20022288   1.572   5.201   2.745 -0.7597 -1.1915 -0.6472
   45MOL   H20122289   1.751   5.188   2.713  0.1953  0.9106  0.6924
   45MOL   C20222290   1.992   4.519   3.201  0.5396  0.4326 -0.1182
   45MOL   C20322291   1.957   4.609   3.326  0.8992 -0.2556  0.1449
   45MOL   O20422292   2.059   4.711   3.345  0.8213  0.3202  0.4489
   45MOL   C20522293   2.190   4.669   3.372  0.1877 -0.4759 -0.2707
   45MOL   C20622294   2.280   4.783   3.418  0.1068 -0.4083 -0.1896
   45MOL   C20722295   2.276   4.911   3.322 -0.5099 -0.6808  0.2115
   45MOL   C20822296   2.394   5.004   3.344  0.2969  0.3854  0.0265
   45MOL   C20922297   2.403   5.121   3.255  0.0814  0.6780 -0.6313
   45MOL   C21022298   2.430   5.096   3.106 -0.1441  0.2642  0.3693
   45MOL   H21122299   1.917   4.443   3.175  0.5122  0.8658 -1.3072
   45MOL   H21222300   2.078   4.453   3.213  0.8071  0.6353 -0.9114
   45MOL   H21322301   1.872   4.676   3.312  0.4310 -0.8268  0.2077
   45MOL   H21422302   2.235   4.634   3.279  0.7165 -0.1470 -0.1376
   45MOL   H21522303   2.192   4.589   3.446  1.7888 -0.9109 -0.7704
   45MOL   H21622304   2.379   4.739   3.417  1.5316  2.7350 -0.3988
   45MOL   H21722305   2.256   4.817   3.519 -2.4530 -0.9307 -0.5715
   45MOL   H21822306   2.286   4.878   3.219 -1.7080 -0.5990  0.0608
   45MOL   H21922307   2.186   4.973   3.324 -0.9959 -1.3171 -1.3228
   45MOL   H22022308   2.372   5.042   3.444  2.2845 -0.5281  0.8566
   45MOL   H22122309   2.494   4.960   3.350 -1.3704 -3.6756 -0.5624
   45MOL   H22222310   2.305   5.167   3.259 -0.7522 -0.9179 -1.9055
   45MOL   H22322311   2.474   5.192   3.297 -0.5106 -0.0992  1.7724
   45MOL   H22422312   2.418   5.199   3.074 -0.7390  0.0645 -0.0520
   45MOL   H22522313   2.525   5.048   3.083 -0.1003  0.2306  0.6165
   45MOL   H22622314   2.343   5.036   3.081 -0.9157 -0.2360  3.9606
   45MOL   C22722315   1.915   4.532   3.456 -0.1548 -0.2934 -0.7822
   45MOL   C22822316   1.769   4.476   3.435  0.1018  0.2670 -1.0336
   45MOL   O22922317   1.742   4.401   3.558 -0.4223 -0.7295  0.3029
   45MOL   C23022318   1.804   4.274   3.567  0.6779 -0.2834  0.1714
   45MOL   C23122319   1.763   4.229   3.706  0.1427 -0.0531 -0.5949
   45MOL   C23222320   1.819   4.084   3.726  0.0785 -0.4136 -0.0247
   45MOL   C23322321   1.794   4.036   3.869 -0.1334 -0.6175 -0.4158
   45MOL   C23422322   1.864   3.903   3.890  0.3387  0.2940  0.2095
   45MOL   C23522323   2.015   3.909   3.911 -0.3275  0.0728 -0.1418
   45MOL   H23622324   1.989   4.455   3.477 -1.0519 -0.7907  0.5698
   45MOL   H23722325   1.924   4.599   3.541 -1.3242 -1.1216  0.0075
   45MOL   H23822326   1.760   4.408   3.350 -1.5859  2.0315 -2.2910
   45MOL   H23922327   1.910   4.279   3.541  1.3077  2.4837  2.9110
   45MOL   H24022328   1.764   4.218   3.483  1.3726  2.4568 -2.0795
   45MOL   H24122329   1.656   4.229   3.727  0.3820  0.3427  0.6626
   45MOL   H24222330   1.810   4.294   3.779  2.3089  1.9504 -3.6292
   45MOL   H24322331   1.776   4.016   3.652 -1.9554 -0.1364  0.8691
   45MOL   H24422332   1.927   4.083   3.712  0.0298 -0.5807 -0.3986
   45MOL   H24522333   1.817   4.117   3.938 -1.1668  0.8011 -1.7092
   45MOL   H24622334   1.687   4.019   3.883  0.1103 -0.4232  1.9140
   45MOL   H24722335   1.814   3.859   3.976  0.4039 -0.2047 -0.0109
   45MOL   H24822336   1.840   3.834   3.810  1.2849  1.4630 -1.1167
   45MOL   H24922337   2.030   3.929   4.017 -0.2321 -1.7578  0.1985
   45MOL   H25022338   2.059   3.811   3.891  1.5979  1.0637 -0.8845
   45MOL   H25122339   2.061   3.980   3.842  0.1322 -0.0148  0.0758
   45MOL   C25222340   1.656   4.577   3.431 -0.6064  0.7963 -0.6462
   45MOL   C25322341   1.565   4.564   3.306  0.6154 -0.5132  0.4591
   45MOL   O25422342   1.472   4.672   3.315  0.5141  0.4208  0.0822
   45MOL   C25522343   1.506   4.789   3.242 -0.1139  0.1305  0.6045
   45MOL   C25622344   1.419   4.905   3.300 -0.0899  0.1199 -0.6402
   45MOL   C25722345   1.460   4.940   3.445 -0.7257 -0.5354 -0.2276
   45MOL   C25822346   1.403   5.073   3.504  0.3363 -0.1684  0.5672
   45MOL   C25922347   1.473   5.191   3.445 -0.1489  0.7224 -0.3620
   45MOL   C26022348   1.412   5.327   3.493  0.4540 -0.1184  0.3531
   45MOL   H26122349   1.593   4.577   3.520  1.2197  1.2505  0.6699
   45MOL   H26222350   1.696   4.678   3.442 -1.7713  1.1028  0.9574
   45MOL   H26322351   1.626   4.565   3.215 -1.4486 -1.3489 -0.9774
   45MOL   H26422352   1.489   4.792   3.135 -0.2998  2.3845  0.6598
   45MOL   H26522353   1.612   4.812   3.259  0.2089 -1.6606  1.1014
   45MOL   H26622354   1.314   4.877   3.312 -0.0530  0.0538 -0.4728
   45MOL   H26722355   1.422   4.990   3.232  1.8157 -0.2455 -1.0258
   45MOL   H26822356   1.429   4.856   3.508 -0.6456 -1.4977 -1.4437
   45MOL   H26922357   1.568   4.924   3.451 -0.9868 -2.1232  0.6870
   45MOL   H27022358   1.298   5.070   3.475  0.4542  1.1206 -0.0006
   45MOL   H27122359   1.411   5.072   3.613 -0.6979  1.3471  0.6737
   45MOL   H27222360   1.578   5.193   3.472 -0.6734 -0.6297  1.8430
   45MOL   H27322361   1.461   5.191   3.336  0.5348  0.2931 -0.4374
   45MOL   H27422362   1.482   5.410   3.480  0.6639 -0.0778  1.6967
   45MOL   H27522363   1.321   5.352   3.438  2.0526 -0.4920 -2.5718
   45MOL   H27622364   1.392   5.322   3.600 -0.4110  0.5968  0.2253
   45MOL   C27722365   1.476   4.435   3.310  0.1533  0.4016 -0.2120
   45MOL   C27822366   1.399   4.383   3.185  0.1566  0.2968 -0.7857
   45MOL   O27922367   1.495   4.357   3.087 -0.7998 -0.1582 -0.2229
   45MOL   C28022368   1.492   4.437   2.972  0.7030  0.2793 -0.5805
   45MOL   C28122369   1.610   4.402   2.892  0.3152  0.1049 -0.2160
   45MOL   C28222370   1.602   4.264   2.810 -0.1438 -0.1227  1.0288
   45MOL   C28322371   1.748   4.239   2.763 -0.6234  0.4238  0.1698
   45MOL   C28422372   1.760   4.097   2.709 -0.6418  0.5413 -0.5076
   45MOL   C28522373   1.683   4.074   2.590  0.5218  0.2523  0.4471
   45MOL   H28622374   1.545   4.356   3.339 -0.7504 -0.5405 -0.5986
   45MOL   H28722375   1.413   4.450   3.398  2.9202  0.9313  1.7462
   45MOL   H28822376   1.334   4.467   3.162  1.2949  2.4304  3.1461
   45MOL   H28922377   1.503   4.534   3.021  1.7793  0.7846 -1.8160
   45MOL   H29022378   1.401   4.434   2.912  0.8141 -0.8708 -0.7077
   45MOL   H29122379   1.700   4.416   2.951  1.0133  1.9071 -1.6529
   45MOL   H29222380   1.616   4.480   2.815 -1.8068 -0.0913 -0.6288
   45MOL   H29322381   1.565   4.190   2.881 -0.3101  0.1359  1.2146
   45MOL   H29422382   1.527   4.263   2.731  1.7451 -0.4551 -0.8017
   45MOL   H29522383   1.774   4.309   2.684  0.0741 -0.3628 -0.3138
   45MOL   H29622384   1.811   4.252   2.851 -0.4403  0.0796  0.0931
   45MOL   H29722385   1.860   4.064   2.684 -0.2660  0.2202  1.3271
   45MOL   H29822386   1.729   4.021   2.781  0.9300 -1.7040 -2.1539
   45MOL   H29922387   1.575   4.069   2.608  0.3498 -0.4642 -0.7261
   45MOL   H30022388   1.712   4.143   2.511  3.2148 -1.6361 -0.2760
   45MOL   H30122389   1.724   3.979   2.555 -0.2874 -0.0716  0.3575
   45MOL   C30222390   1.311   4.254   3.206 -0.0485 -0.3391 -0.9871
   45MOL   C30322391   1.189   4.249   3.116  0.1628  0.6451 -0.0977
   45MOL   O30422392   1.087   4.163   3.179  0.0325  0.1681  0.1467
   45MOL   C30522393   0.983   4.222   3.264 -0.6181  0.4200 -0.0628
   45MOL   C30622394   0.872   4.113   3.294 -0.8679  0.2349 -0.2562
   45MOL   C30722395   0.828   4.050   3.167 -0.2054  0.1288  0.5359
   45MOL   C30822396   0.714   3.952   3.180 -0.1391  0.4785 -0.4278
   45MOL   C30922397   0.745   3.820   3.246 -0.0075 -0.2192 -0.2355
   45MOL   C31022398   0.645   3.708   3.218  0.2885  0.0714  0.6798
   45MOL   H31122399   1.377   4.167   3.201  3.0841  1.7906  1.3492
   45MOL   H31222400   1.271   4.262   3.307 -1.0431  1.8074 -1.5276
   45MOL   H31322401   1.141   4.346   3.110 -3.0475 -0.9948 -1.7000
   45MOL   H31422402   0.942   4.309   3.214 -2.1304 -1.4455 -2.1758
   45MOL   H31522403   1.032   4.259   3.354  1.6442  2.2726 -1.9879
   45MOL   H31622404   0.789   4.166   3.342 -0.9906 -0.8332  0.7406
   45MOL   H31722405   0.902   4.039   3.368 -0.8765 -0.6861 -1.1828
   45MOL   H31822406   0.799   4.129   3.097  1.5795 -0.9707 -1.4887
   45MOL   H31922407   0.911   3.995   3.123  0.7387  1.2318  0.9169
   45MOL   H32022408   0.624   3.986   3.231  0.1361  2.1418 -1.0465
   45MOL   H32122409   0.684   3.926   3.079 -1.6014  0.1597  0.0806
   45MOL   H32222410   0.847   3.790   3.223  0.4723  1.1647  0.0766
   45MOL   H32322411   0.751   3.843   3.352  0.0268 -0.3385 -0.2107
   45MOL   H32422412   0.590   3.730   3.127 -0.9907  0.0191  1.4346
   45MOL   H32522413   0.686   3.607   3.205 -0.8103 -0.7324  3.0896
   45MOL   H32622414   0.577   3.702   3.303  2.0681 -3.5591  1.9769
   45MOL   C32722415   1.220   4.180   2.982 -0.4023  0.1152  0.0236
   45MOL   C32822416   1.097   4.189   2.893  0.1619 -0.9639  0.2527
   45MOL   O32922417   1.075   4.327   2.862 -0.0526  0.5566 -0.3247
   45MOL   C33022418   0.941   4.366   2.838  0.0627  0.6535  0.0412
   45MOL   C33122419   0.935   4.505   2.773 -0.2868 -0.0369  0.0157
   45MOL   C33222420   0.997   4.609   2.868  0.2839  0.0720 -0.5621
   45MOL   C33322421   1.068   4.737   2.808  0.3240  0.1997  0.1201
   45MOL   C33422422   1.188   4.706   2.720 -0.4071  0.3806 -0.6661
   45MOL   C33522423   1.247   4.841   2.675  0.5002  0.9869  0.3300
   45MOL   H33622424   1.250   4.078   3.008 -0.0191  0.4379  0.8422
   45MOL   H33722425   1.304   4.223   2.927 -0.0082 -1.5347 -0.6914
   45MOL   H33822426   1.010   4.149   2.946 -1.9481 -0.8804 -3.0098
   45MOL   H33922427   0.889   4.372   2.933  0.1929  0.5635  0.1195
   45MOL   H34022428   0.876   4.296   2.785  0.0381 -0.2990  1.3177
   45MOL   H34122429   0.835   4.537   2.743  0.9335  2.4356 -1.6013
   45MOL   H34222430   0.992   4.515   2.681 -0.5462 -1.0353 -0.2505
   45MOL   H34322431   0.922   4.655   2.932  0.1142  0.3616 -0.9630
   45MOL   H34422432   1.068   4.558   2.933  1.6276  1.6689 -0.7166
   45MOL   H34522433   0.999   4.805   2.759  0.5444  1.1029  1.0344
   45MOL   H34622434   1.112   4.791   2.892 -0.0223  0.1246  0.3526
   45MOL   H34722435   1.260   4.646   2.775  0.2141 -0.7383 -2.6463
   45MOL   H34822436   1.160   4.643   2.636  2.8840  0.7548 -2.1190
   45MOL   H34922437   1.257   4.915   2.754  1.4741 -0.3197  1.4462
   45MOL   H35022438   1.344   4.821   2.630  0.7592  0.9056  0.9307
   45MOL   H35122439   1.185   4.882   2.595 -0.7946  0.4694  1.0680
   45MOL   C35222440   1.118   4.100   2.765  0.0574 -0.7052 -0.4670
   45MOL   C35322441   1.116   3.948   2.776  0.3341 -0.2282  0.4319
   45MOL   O35422442   1.155   3.889   2.649 -0.5217  0.1078  0.0090
   45MOL   C35522443   1.294   3.890   2.621 -0.1587  0.0095  0.9953
   45MOL   C35622444   1.326   3.784   2.522  0.3007 -0.3689 -0.0918
   45MOL   C35722445   1.280   3.646   2.571 -0.3729 -0.2234 -0.1724
   45MOL   C35822446   1.300   3.536   2.474 -0.9681  0.3412 -0.0557
   45MOL   C35922447   1.250   3.406   2.524 -0.0897 -0.1988 -0.3262
   45MOL   C36022448   1.261   3.307   2.410 -0.2015 -0.1107  0.1245
   45MOL   H36122449   1.052   4.124   2.681  2.6027  1.3464 -1.9370
   45MOL   H36222450   1.206   4.133   2.710 -0.8943 -1.2321 -2.3521
   45MOL   H36322451   1.183   3.932   2.861  3.9041  2.7597 -1.6648
   45MOL   H36422452   1.356   3.878   2.709 -1.8882  2.3470  2.5844
   45MOL   H36522453   1.329   3.988   2.587 -0.2909  0.2768  1.6219
   45MOL   H36622454   1.433   3.770   2.508  0.0083 -2.1693 -0.6800
   45MOL   H36722455   1.268   3.805   2.432 -2.5610 -1.1176  1.4922
   45MOL   H36822456   1.331   3.623   2.664  2.8117  0.2972 -1.7328
   45MOL   H36922457   1.177   3.640   2.606 -0.2281  0.7129  0.4407
   45MOL   H37022458   1.272   3.558   2.371  0.8915  0.4567 -0.5437
   45MOL   H37122459   1.407   3.522   2.467 -1.0887 -0.9900  0.6902
   45MOL   H37222460   1.308   3.366   2.607 -1.0794  1.0112  0.9620
   45MOL   H37322461   1.151   3.417   2.568  0.5133  0.0987  0.9779
   45MOL   H37422462   1.359   3.308   2.362 -0.8628  1.5544 -1.2324
   45MOL   H37522463   1.246   3.208   2.454 -1.8994  0.2342  0.3516
   45MOL   H37622464   1.186   3.311   2.331  0.4747  2.1755 -0.4286
   45MOL   C37722465   0.975   3.896   2.811  0.5282 -0.5955  0.2778
   45MOL   C37822466   0.956   3.747   2.837 -0.3535 -0.0624  0.4742
   45MOL   O37922467   0.813   3.742   2.837  0.1575 -0.0296 -0.6646
   45MOL   C38022468   0.755   3.636   2.764  0.1951  0.3811  0.6571
   45MOL   C38122469   0.605   3.630   2.791 -0.2447 -0.6965  0.2703
   45MOL   C38222470   0.517   3.529   2.711 -0.1861  0.5014  0.8960
   45MOL   C38322471   0.549   3.385   2.747  0.1969 -0.5390  0.1238
   45MOL   C38422472   0.458   3.280   2.681  0.2540 -0.2102  0.0590
   45MOL   C38522473   0.308   3.302   2.700 -0.1162 -0.0473  0.4958
   45MOL   H38622474   0.934   3.957   2.892 -2.4232 -1.0983 -0.7757
   45MOL   H38722475   0.898   3.920   2.737  1.9869  0.8968 -0.7907
   45MOL   H38822476   0.993   3.688   2.753  0.3105  1.6996 -0.4997
   45MOL   H38922477   0.787   3.537   2.798 -1.5316 -0.1952  0.6514
   45MOL   H39022478   0.777   3.651   2.659  2.0565  2.2055  1.2744
   45MOL   H39122479   0.563   3.728   2.766 -0.3107 -0.4927  1.1603
   45MOL   H39222480   0.593   3.614   2.898  1.5127 -1.1792  0.3990
   45MOL   H39322481   0.412   3.548   2.733 -0.5519 -0.0304 -0.3610
   45MOL   H39422482   0.531   3.557   2.606  0.5262  0.4846  0.9824
   45MOL   H39522483   0.651   3.366   2.713 -0.2988 -0.8689 -1.2087
   45MOL   H39622484   0.543   3.371   2.856 -0.0132  1.3457  0.3595
   45MOL   H39722485   0.471   3.274   2.573  0.6202 -0.0798  0.0956
   45MOL   H39822486   0.479   3.181   2.720 -0.7059 -0.1332  0.7830
   45MOL   H39922487   0.291   3.397   2.648  2.6088 -0.1735 -0.7243
   45MOL   H40022488   0.248   3.229   2.646  0.9923 -1.2750  0.9076
   45MOL   H40122489   0.275   3.305   2.804 -1.7957 -1.0487  0.0236
   45MOL   C40222490   1.010   3.695   2.969  0.0889  0.1229 -0.4636
   45MOL   C40322491   1.041   3.546   2.969  0.6414  0.0631 -0.0738
   45MOL   O40422492   0.985   3.477   3.080  0.1632  0.4104 -0.0893
   45MOL   C40522493   0.863   3.411   3.049 -0.6862  0.7753 -0.5307
   45MOL   C40622494   0.808   3.327   3.166  0.5971 -0.5423 -0.0470
   45MOL   C40722495   0.650   3.297   3.152  0.1146 -0.2326 -0.2886
   45MOL   C40822496   0.610   3.204   3.271  0.6581 -0.0748 -1.5551
   45MOL   C40922497   0.467   3.231   3.312  0.0763 -0.1526  0.3202
   45MOL   C41022498   0.417   3.142   3.433 -0.6855 -0.1081  0.6146
   45MOL   H41122499   0.952   3.731   3.053 -0.0614 -2.3283  0.5283
   45MOL   H41222500   1.106   3.747   2.977 -0.2633  0.5627  1.1738
   45MOL   H41322501   1.000   3.502   2.877  0.6447  0.0895 -0.0877
   45MOL   H41422502   0.886   3.345   2.966  0.3959  0.6742 -0.1653
   45MOL   H41522503   0.787   3.484   3.021 -0.9829  1.3309  1.5848
   45MOL   H41622504   0.835   3.384   3.255 -0.5072 -1.3485  0.8242
   45MOL   H41722505   0.877   3.242   3.170  0.3314 -0.7323  0.5334
   45MOL   H41822506   0.606   3.397   3.159 -0.1130 -0.4890  2.5959
   45MOL   H41922507   0.618   3.253   3.057  1.2529  1.8256 -1.6470
   45MOL   H42022508   0.624   3.098   3.248 -0.0679 -0.0755 -1.9908
   45MOL   H42122509   0.677   3.225   3.355  0.1563 -1.6302 -0.7345
   45MOL   H42222510   0.472   3.331   3.353  3.8847 -0.5851  1.1017
   45MOL   H42322511   0.403   3.221   3.225  1.1270 -0.3955 -0.4364
   45MOL   H42422512   0.458   3.177   3.528 -1.1150 -0.4340  0.9220
   45MOL   H42522513   0.308   3.143   3.430 -0.7112  1.5230  1.3970
   45MOL   H42622514   0.464   3.044   3.422 -1.8715 -0.6034 -0.0694
   45MOL   C42722515   1.192   3.516   2.966 -0.1595  0.9419  0.6077
   45MOL   C42822516   1.206   3.361   2.962  0.9520  0.0868 -0.2375
   45MOL   O42922517   1.157   3.321   2.831  0.6006 -0.5189  0.5129
   45MOL   C43022518   1.116   3.185   2.837  0.3560 -0.5543  0.7628
   45MOL   C43122519   1.061   3.136   2.704  0.6354 -0.1491 -0.1186
   45MOL   C43222520   0.928   3.203   2.665 -0.3970 -0.0961  0.1387
   45MOL   C43322521   0.897   3.188   2.512  0.0604  0.7771 -0.6159
   45MOL   C43422522   0.778   3.274   2.472  0.5975  0.3830 -0.1929
   45MOL   C43522523   0.726   3.241   2.333  0.2771 -0.6124 -0.0594
   45MOL   H43622524   1.237   3.547   2.872 -1.0444 -0.6018 -0.3390
   45MOL   H43722525   1.249   3.563   3.047  0.4261  0.6605  0.3600
   45MOL   H43822526   1.154   3.306   3.041 -0.3462  0.8702 -0.5352
   45MOL   H43922527   1.041   3.170   2.914  0.3486 -1.7413  0.5368
   45MOL   H44022528   1.204   3.128   2.865  1.3998  0.8481  0.3803
   45MOL   H44122529   1.040   3.031   2.722 -1.4032 -0.3011 -3.0285
   45MOL   H44222530   1.133   3.143   2.622  0.1205  0.8474 -0.4965
   45MOL   H44322531   0.842   3.177   2.727 -0.7167 -1.7487 -0.9909
   45MOL   H44422532   0.935   3.308   2.695 -2.3241 -0.6209  2.6786
   45MOL   H44522533   0.976   3.222   2.446  0.1486 -0.3840 -1.1130
   45MOL   H44622534   0.873   3.084   2.490  0.5212 -0.2435  3.2580
   45MOL   H44722535   0.699   3.265   2.547 -1.1269  0.3320 -1.9835
   45MOL   H44822536   0.807   3.378   2.480 -0.6894  0.7539 -0.2728
   45MOL   H44922537   0.637   3.300   2.308  0.7352 -0.1363 -0.5584
   45MOL   H45022538   0.793   3.268   2.252 -0.1890 -0.4641 -0.3973
   45MOL   H45122539   0.698   3.137   2.321 -0.2103 -0.4975  0.0265
   45MOL   C45222540   1.352   3.312   2.977  0.0188  0.6981  0.1543
   45MOL   C45322541   1.396   3.245   3.107  0.3953 -0.1472  0.0955
   45MOL   O45422542   1.535   3.263   3.122  0.3039  0.3215 -0.2333
   45MOL   C45522543   1.558   3.380   3.198 -0.8420 -0.5946  0.5539
   45MOL   C45622544   1.699   3.438   3.184 -0.5255  0.2979  0.1088
   45MOL   C45722545   1.733   3.494   3.044 -0.0888  0.0224  0.2649
   45MOL   C45822546   1.874   3.555   3.030 -0.1395  0.1816  1.1316
   45MOL   C45922547   1.919   3.596   2.886  0.2777  0.3305  0.1299
   45MOL   C46022548   2.049   3.657   2.895 -0.2563  0.2862 -0.6027
   45MOL   H46122549   1.376   3.244   2.896 -1.9446  0.9104 -0.6358
   45MOL   H46222550   1.412   3.402   2.962 -0.6733  1.3172  1.0614
   45MOL   H46322551   1.340   3.294   3.186  0.6625  1.7622 -0.8753
   45MOL   H46422552   1.552   3.349   3.302 -0.6568 -0.6069  0.5613
   45MOL   H46522553   1.492   3.465   3.180  1.9944  1.5366 -0.1963
   45MOL   H46622554   1.769   3.357   3.204  0.0201  0.8789  0.5659
   45MOL   H46722555   1.699   3.520   3.256 -0.3582  1.6936 -1.4689
   45MOL   H46822556   1.723   3.417   2.967  1.8744  1.1120 -1.1297
   45MOL   H46922557   1.665   3.575   3.022  0.6874  1.0216  1.4684
   45MOL   H47022558   1.878   3.638   3.101  1.4073  2.2792 -1.3006
   45MOL   H47122559   1.947   3.480   3.063 -0.4064 -1.7968 -2.5587
   45MOL   H47222560   1.922   3.510   2.819  1.1677 -1.6803  2.6874
   45MOL   H47322561   1.845   3.668   2.851  0.3707  0.7119  0.7252
   45MOL   H47422562   2.043   3.757   2.939  0.7542  1.0772 -2.2391
   45MOL   H47522563   2.113   3.589   2.952 -0.7821  1.0773  0.9528
   45MOL   H47622564   2.101   3.653   2.800 -0.7434 -1.2294 -0.8253
   45MOL   C47722565   1.367   3.100   3.128  0.3162 -0.0252 -0.2152
   45MOL   C47822566   1.387   3.055   3.269  0.3109  0.5268 -0.3531
   45MOL   O47922567   1.361   2.912   3.271  0.3209 -0.3891  0.5114
   45MOL   C48022568   1.420   2.845   3.384  0.0420 -0.1730 -0.2068
   45MOL   C48122569   1.392   2.695   3.412 -0.0181  0.1421 -0.3999
   45MOL   C48222570   1.486   2.642   3.526  0.0945  0.6278  0.2708
   45MOL   C48322571   1.488   2.495   3.530 -0.0757  0.0157  0.1197
   45MOL   C48422572   1.378   2.431   3.614 -0.2535 -0.7454 -0.2142
   45MOL   C48522573   1.373   2.277   3.614 -0.1108  0.3094 -0.0490
   45MOL   H48622574   1.261   3.080   3.112 -0.1138  0.2186  2.1756
   45MOL   H48722575   1.427   3.041   3.058  0.0370 -0.5354 -0.0313
   45MOL   H48822576   1.488   3.087   3.297  0.0092  1.0729  0.1272
   45MOL   H48922577   1.387   2.902   3.471 -3.0312 -2.7012  0.3765
   45MOL   H49022578   1.529   2.847   3.383  0.2088 -3.1447  1.7171
   45MOL   H49122579   1.420   2.642   3.321  2.7136 -1.0500  1.0865
   45MOL   H49222580   1.287   2.679   3.436  0.0523  1.6804  0.9819
   45MOL   H49322581   1.584   2.680   3.495  0.0491  1.0827  0.6871
   45MOL   H49422582   1.478   2.679   3.628  0.1355 -1.3278  0.9977
   45MOL   H49522583   1.483   2.462   3.426  0.7760 -1.1756  0.4420
   45MOL   H49622584   1.586   2.459   3.561  0.2003  0.3138 -0.4024
   45MOL   H49722585   1.391   2.461   3.718 -0.3847  2.7898 -1.1703
   45MOL   H49822586   1.286   2.468   3.569  1.1048  0.1344 -2.3423
   45MOL   H49922587   1.317   2.244   3.527 -2.0016 -0.5320  1.4452
   45MOL   H50022588   1.472   2.234   3.597 -1.6508 -2.1017 -3.5728
   45MOL   H50122589   1.321   2.232   3.698  0.5244 -2.8397 -1.2903
   45MOL   H50222590   1.323   3.108   3.340  1.0602  1.0691 -0.0769
   46MOL     C122591   1.753   6.358   2.324 -0.1636  0.1677  0.3599
   46MOL     C222592   1.798   6.416   2.184 -0.3683  0.0530  0.2576
   46MOL     O322593   1.817   6.547   2.217 -0.6073  0.2214 -0.0601
   46MOL     C422594   1.906   6.625   2.130  0.5435  0.1255 -0.4635
   46MOL     C522595   1.890   6.768   2.162 -0.2519 -0.1504 -0.2896
   46MOL     C622596   2.004   6.855   2.114 -0.2007  0.1946  0.0514
   46MOL     C722597   1.966   7.004   2.129 -0.5493  0.0562 -0.9122
   46MOL     C822598   2.081   7.089   2.078 -0.5789 -0.0390 -0.0772
   46MOL     C922599   2.054   7.238   2.093  0.1605 -0.1532 -0.0762
   46MOL    H1022600   1.806   6.396   2.411 -0.2836 -0.0695  0.5369
   46MOL    H1122601   1.649   6.379   2.350 -1.0408  2.5887 -4.4727
   46MOL    H1222602   1.886   6.362   2.149  0.6693  1.4557  0.6661
   46MOL    H1322603   1.895   6.613   2.022 -0.9718  0.5927 -0.3657
   46MOL    H1422604   2.011   6.602   2.151  0.3454 -0.3764 -0.0079
   46MOL    H1522605   1.873   6.776   2.269 -1.0735  0.4775 -0.4616
   46MOL    H1622606   1.801   6.813   2.118 -2.0360  0.2614  3.5576
   46MOL    H1722607   2.092   6.821   2.168  0.9990 -1.0345 -2.5686
   46MOL    H1822608   2.014   6.826   2.009 -1.0304  1.7926 -0.5058
   46MOL    H1922609   1.876   7.029   2.073 -0.8705 -2.3243 -1.5269
   46MOL    H2022610   1.940   7.028   2.232  1.6338  0.7666 -0.5099
   46MOL    H2122611   2.108   7.065   1.975  1.1592 -0.5639  0.4721
   46MOL    H2222612   2.165   7.061   2.141 -0.0657 -2.9242 -1.9364
   46MOL    H2322613   2.000   7.265   2.184  1.0194  1.6660 -0.0779
   46MOL    H2422614   2.142   7.302   2.096 -1.5276  2.2081  0.8915
   46MOL    H2522615   2.005   7.271   2.001  0.2857  1.2461  0.3488
   46MOL    H2622616   1.765   6.250   2.324  0.8907  0.2767  0.2150
   46MOL    C2722617   1.688   6.408   2.074  0.3306  0.6205 -0.3499
   46MOL    C2822618   1.674   6.272   2.007 -0.4018  1.0746 -0.7730
   46MOL    O2922619   1.560   6.279   1.928  0.3005 -0.3032 -0.0823
   46MOL    C3022620   1.447   6.225   1.988  0.6503 -0.4813  0.3951
   46MOL    C3122621   1.452   6.072   1.983 -0.6907 -0.7526 -0.3987
   46MOL    C3222622   1.324   6.011   2.033  0.4548 -0.5599  0.1175
   46MOL    C3322623   1.334   5.857   2.044  0.0964 -0.3109  0.3396
   46MOL    C3422624   1.201   5.784   2.057 -0.1076 -0.0021 -0.2787
   46MOL    C3522625   1.100   5.835   2.163 -0.5781  0.0164  0.0597
   46MOL    H3622626   1.593   6.431   2.121  0.6105 -1.3710  1.2886
   46MOL    H3722627   1.713   6.476   1.993  2.9726  0.5877  0.3633
   46MOL    H3822628   1.676   6.206   2.094 -3.4266 -1.1336 -2.2950
   46MOL    H3922629   1.353   6.249   1.939  1.5214  1.8077 -0.2340
   46MOL    H4022630   1.446   6.251   2.094 -0.8575  0.8001  0.0843
   46MOL    H4122631   1.540   6.040   2.039  0.0888  0.2680 -1.0259
   46MOL    H4222632   1.480   6.027   1.889  0.8260  2.5113 -1.5905
   46MOL    H4322633   1.293   6.034   2.135 -1.2389 -4.1235  0.4792
   46MOL    H4422634   1.234   6.032   1.975  0.5611  1.9930  0.8227
   46MOL    H4522635   1.383   5.818   1.954 -0.6589 -3.4595  1.2261
   46MOL    H4622636   1.395   5.838   2.132 -0.1021 -0.1462  0.5134
   46MOL    H4722637   1.159   5.786   1.956 -0.0918  0.2977 -0.2798
   46MOL    H4822638   1.232   5.681   2.072  4.3605  0.8753 -2.6421
   46MOL    H4922639   1.012   5.771   2.164 -0.5326 -0.0478 -0.0796
   46MOL    H5022640   1.137   5.845   2.265 -2.4459  0.0421  0.7539
   46MOL    H5122641   1.055   5.933   2.146  0.8797  0.3603 -1.9630
   46MOL    C5222642   1.794   6.243   1.905 -0.4726  0.2641  0.3728
   46MOL    C5322643   1.832   6.095   1.889 -0.6496 -0.2843  0.3486
   46MOL    O5422644   1.883   6.076   1.759 -0.5323  0.2305  0.4221
   46MOL    C5522645   1.800   6.017   1.663 -0.8427 -0.1639 -0.1156
   46MOL    C5622646   1.870   6.029   1.530  0.2161 -0.7049 -0.4735
   46MOL    C5722647   2.001   5.950   1.527  0.0449  0.3506 -0.1243
   46MOL    C5822648   2.068   5.960   1.394 -0.0275  0.2776  0.5435
   46MOL    C5922649   2.217   5.911   1.410 -0.3075 -0.1972 -0.5937
   46MOL    C6022650   2.282   5.936   1.278  0.1079  0.4690  0.3906
   46MOL    H6122651   1.878   6.302   1.943 -0.7377 -0.5314  2.2635
   46MOL    H6222652   1.763   6.287   1.811  0.1808 -0.4160 -0.1648
   46MOL    H6322653   1.746   6.030   1.906 -2.5075  2.4728  1.7711
   46MOL    H6422654   1.703   6.066   1.655 -0.3242  1.3175  2.4543
   46MOL    H6522655   1.776   5.915   1.693 -1.6317 -0.1446 -0.6781
   46MOL    H6622656   1.883   6.136   1.512 -1.2421 -0.4316  0.0848
   46MOL    H6722657   1.805   5.987   1.453 -1.3573  1.0285 -0.0996
   46MOL    H6822658   2.063   5.994   1.606 -0.1155  2.5195 -1.1797
   46MOL    H6922659   1.976   5.844   1.535 -1.3163  0.4548 -2.6037
   46MOL    H7022660   2.009   5.903   1.323  0.0161  0.0660  0.6768
   46MOL    H7122661   2.065   6.063   1.359 -2.2072  0.0589 -0.0218
   46MOL    H7222662   2.272   5.971   1.483  1.5525 -2.6231  0.0718
   46MOL    H7322663   2.210   5.807   1.439  0.5210  0.1018  0.7278
   46MOL    H7422664   2.247   5.854   1.215  0.1570 -0.9834  2.2053
   46MOL    H7522665   2.255   6.029   1.227  0.9236  1.3466  1.5328
   46MOL    H7622666   2.391   5.933   1.282  0.3094  2.5616 -2.3360
   46MOL    C7722667   1.940   6.059   1.993  0.2151 -0.6078  0.1904
   46MOL    C7822668   1.977   5.908   1.989 -0.9146 -0.0709 -0.5651
   46MOL    O7922669   1.911   5.842   2.092 -0.4318  0.4461 -0.0742
   46MOL    C8022670   1.842   5.721   2.052 -0.8686  0.2335 -0.1455
   46MOL    C8122671   1.808   5.634   2.176 -0.0760 -0.3582  0.1427
   46MOL    C8222672   1.704   5.528   2.148  0.4916 -0.0266 -0.7151
   46MOL    C8322673   1.581   5.552   2.233 -0.0131 -0.3576  0.0413
   46MOL    C8422674   1.607   5.508   2.380 -0.5868 -0.0347  0.0734
   46MOL    C8522675   1.495   5.549   2.476 -0.1163  0.2921 -0.6449
   46MOL    H8622676   1.913   6.081   2.097 -1.9391 -4.4702  0.5619
   46MOL    H8722677   2.030   6.118   1.982 -0.4286  0.0524 -1.6181
   46MOL    H8822678   1.964   5.868   1.889 -0.7388  0.5486 -0.8397
   46MOL    H8922679   1.913   5.663   1.993 -0.4677  1.4923 -0.9414
   46MOL    H9022680   1.761   5.740   1.981 -0.2576  1.9515 -0.4193
   46MOL    H9122681   1.773   5.704   2.253 -1.8500 -1.7059  0.5994
   46MOL    H9222682   1.894   5.583   2.220  0.5254 -0.0262 -0.6276
   46MOL    H9322683   1.680   5.528   2.042  0.6866 -0.8024 -0.7588
   46MOL    H9422684   1.737   5.424   2.154  1.4563  0.2829 -0.6188
   46MOL    H9522685   1.558   5.658   2.241 -1.6971 -0.7421  0.4646
   46MOL    H9622686   1.494   5.504   2.189 -0.4890  2.5459 -2.3945
   46MOL    H9722687   1.619   5.400   2.381  1.6429  0.1803 -0.1426
   46MOL    H9822688   1.703   5.547   2.416 -0.8764  1.2067 -0.4991
   46MOL    H9922689   1.509   5.531   2.582  1.4040 -0.1341 -0.9100
   46MOL   H10022690   1.474   5.656   2.470 -0.8649  0.1478 -0.6995
   46MOL   H10122691   1.404   5.490   2.461  1.6286 -2.8727  0.9246
   46MOL   C10222692   2.132   5.881   2.007 -0.7864  0.2935  1.0685
   46MOL   C10322693   2.219   5.921   1.886  0.6127 -0.2829  0.6232
   46MOL   O10422694   2.263   6.054   1.902 -0.2310  0.1951 -0.0956
   46MOL   C10522695   2.260   6.147   1.792 -0.0429 -0.1228 -0.1053
   46MOL   C10622696   2.290   6.290   1.858 -0.3067  0.1387 -0.0733
   46MOL   C10722697   2.424   6.295   1.930 -0.2556 -0.3145 -0.2134
   46MOL   C10822698   2.456   6.430   2.000 -0.6193 -1.0077 -0.0434
   46MOL   C10922699   2.578   6.431   2.091  0.2224  1.0629  0.6557
   46MOL   C11022700   2.572   6.521   2.214 -0.6603  0.4350 -0.1167
   46MOL   H11122701   2.173   5.911   2.104  0.8855 -2.1987  1.1823
   46MOL   H11222702   2.149   5.774   2.010 -0.6925  0.1738 -2.3731
   46MOL   H11322703   2.160   5.914   1.795  2.2962  1.3319 -0.6331
   46MOL   H11422704   2.162   6.127   1.749  1.8353 -1.2456 -4.0968
   46MOL   H11522705   2.341   6.115   1.727 -0.0159 -1.1543  0.4174
   46MOL   H11622706   2.207   6.319   1.923 -0.4124 -0.3802  0.0348
   46MOL   H11722707   2.280   6.359   1.774 -0.8506  0.5087  0.2922
   46MOL   H11822708   2.426   6.215   2.004  0.2254 -0.4999 -0.4258
   46MOL   H11922709   2.506   6.274   1.861  2.3396  0.7634  2.4259
   46MOL   H12022710   2.454   6.511   1.927  2.2916 -0.7858  0.0841
   46MOL   H12122711   2.367   6.450   2.060 -1.6315 -4.3195 -0.3824
   46MOL   H12222712   2.599   6.331   2.128 -0.3327  0.7230  0.0826
   46MOL   H12322713   2.667   6.468   2.041  1.7662 -1.9415  1.0489
   46MOL   H12422714   2.508   6.481   2.293 -2.3986  1.0326 -1.1842
   46MOL   H12522715   2.670   6.532   2.261 -0.4696 -1.2578 -0.1049
   46MOL   H12622716   2.526   6.616   2.184 -0.9099  0.6326  0.8751
   46MOL   C12722717   2.350   5.838   1.869 -0.1304  0.2741  0.2356
   46MOL   C12822718   2.442   5.855   1.746 -0.3449  0.6627 -0.2183
   46MOL   O12922719   2.474   5.727   1.705  0.0058  0.4227  0.6903
   46MOL   C13022720   2.395   5.677   1.599 -0.1621 -0.8057 -0.3233
   46MOL   C13122721   2.432   5.530   1.588  0.1521 -0.5247 -0.0219
   46MOL   C13222722   2.353   5.464   1.474  0.1017  0.2697 -0.2018
   46MOL   C13322723   2.393   5.319   1.434 -0.6903  0.1888 -0.4497
   46MOL   C13422724   2.289   5.242   1.353  0.4566  0.3177  0.1984
   46MOL   C13522725   2.316   5.097   1.325  0.2305  0.4974 -0.4316
   46MOL   H13622726   2.414   5.858   1.955 -2.1138  2.5522  1.2502
   46MOL   H13722727   2.316   5.736   1.885  1.0984 -0.2197 -0.2955
   46MOL   H13822728   2.387   5.913   1.672  1.5614  1.8357 -0.7290
   46MOL   H13922729   2.413   5.730   1.505 -0.7769 -0.8601 -0.4739
   46MOL   H14022730   2.291   5.695   1.626 -0.1412 -0.4020 -0.5070
   46MOL   H14122731   2.413   5.474   1.680 -1.3758  1.6632  1.0293
   46MOL   H14222732   2.538   5.523   1.564  0.4831  1.0085  0.9332
   46MOL   H14322733   2.246   5.479   1.491  0.5876  2.8624  0.7483
   46MOL   H14422734   2.369   5.515   1.380 -0.2142  1.9452  0.6292
   46MOL   H14522735   2.491   5.316   1.387  0.3452  1.2487  1.6111
   46MOL   H14622736   2.392   5.262   1.527 -1.7136  1.5879  0.4118
   46MOL   H14722737   2.195   5.257   1.406 -0.2094 -1.0700 -0.5643
   46MOL   H14822738   2.287   5.301   1.261  1.8586  1.9955  1.2035
   46MOL   H14922739   2.253   5.064   1.243  0.8127 -0.1771 -0.6089
   46MOL   H15022740   2.418   5.084   1.288 -0.3100 -3.0655 -0.8191
   46MOL   H15122741   2.290   5.030   1.407 -2.6643  0.5977 -1.2185
   46MOL   C15222742   2.575   5.931   1.791  0.0072  0.5314  0.3607
   46MOL   C15322743   2.653   6.005   1.683  0.3866  0.4832  0.2673
   46MOL   O15422744   2.574   6.105   1.616 -0.3560  0.3348  0.2268
   46MOL   C15522745   2.543   6.081   1.480 -0.1019  0.9127 -0.7474
   46MOL   C15622746   2.667   6.088   1.393 -0.1891  0.0528 -0.6085
   46MOL   C15722747   2.637   6.147   1.258 -0.4012  0.4532 -0.6275
   46MOL   C15822748   2.764   6.171   1.173  0.5500  0.4862 -0.4065
   46MOL   C15922749   2.732   6.279   1.067  0.3157 -0.0182  0.3847
   46MOL   C16022750   2.856   6.346   1.023  0.2246 -0.0840 -0.1849
   46MOL   H16122751   2.539   5.996   1.871  1.2468 -1.2344  2.4339
   46MOL   H16222752   2.645   5.861   1.837 -0.0386 -0.3385 -0.8646
   46MOL   H16322753   2.677   5.921   1.618  2.1557  0.4400  0.9538
   46MOL   H16422754   2.466   6.151   1.447 -1.7943 -1.4966 -2.1043
   46MOL   H16522755   2.502   5.980   1.468 -1.2016  1.4888 -2.0287
   46MOL   H16622756   2.709   5.991   1.367  0.2795  0.1400 -0.1870
   46MOL   H16722757   2.744   6.142   1.448 -2.7978  1.1662  2.0554
   46MOL   H16822758   2.562   6.100   1.194  0.9207  0.6278 -2.3353
   46MOL   H16922759   2.598   6.248   1.270 -0.4307  0.6196 -1.9923
   46MOL   H17022760   2.841   6.211   1.239 -0.3001  1.3150  0.1002
   46MOL   H17122761   2.805   6.077   1.136 -1.3553 -1.8907  3.2468
   46MOL   H17222762   2.678   6.229   0.987 -1.1702  0.3377  1.1580
   46MOL   H17322763   2.671   6.356   1.114 -2.4365 -2.0944  0.3264
   46MOL   H17422764   2.916   6.400   1.097 -1.9187  1.3201  0.5540
   46MOL   H17522765   2.921   6.266   0.988 -0.0023 -0.6946  0.7540
   46MOL   H17622766   2.824   6.412   0.943  1.1073  0.1348 -0.3616
   46MOL   C17722767   2.770   6.085   1.742 -0.0013  0.3367  0.3325
   46MOL   C17822768   2.885   5.993   1.778 -0.1032 -0.2570 -1.0271
   46MOL   O17922769   2.930   5.924   1.655  0.1642  0.7222 -0.0092
   46MOL   C18022770   3.010   5.812   1.667  0.1815 -0.0249  0.2692
   46MOL   C18122771   3.100   5.809   1.544  0.4895  0.1217 -0.0381
   46MOL   C18222772   3.196   5.928   1.538 -0.7868 -0.0142  0.4219
   46MOL   C18322773   3.291   5.922   1.413 -0.6446 -0.4129  0.3666
   46MOL   C18422774   3.207   5.966   1.292  0.4800  0.0146  0.1733
   46MOL   C18522775   3.293   5.963   1.169  0.0510 -0.5114  0.9109
   46MOL   H18622776   2.800   6.163   1.672 -1.7745  0.5729 -0.1860
   46MOL   H18722777   2.736   6.140   1.830  1.9532  0.2245  1.1985
   46MOL   H18822778   2.851   5.928   1.859  0.7176 -2.5059 -2.4410
   46MOL   H18922779   2.955   5.719   1.680 -1.8137  0.9104 -1.2120
   46MOL   H19022780   3.063   5.821   1.762 -0.3362  0.6667  0.4951
   46MOL   H19122781   3.038   5.795   1.456  0.2003  0.6066  0.0855
   46MOL   H19222782   3.165   5.722   1.548  1.3375  0.7920  1.0435
   46MOL   H19322783   3.140   6.021   1.551 -0.6483  0.0255  0.7478
   46MOL   H19422784   3.265   5.927   1.623  0.9675  1.0449 -0.9549
   46MOL   H19522785   3.383   5.979   1.426 -1.1922 -0.0314  2.7229
   46MOL   H19622786   3.324   5.818   1.404  0.5626  0.1592 -2.2041
   46MOL   H19722787   3.117   5.905   1.293  1.2292 -1.1142  2.2889
   46MOL   H19822788   3.169   6.066   1.314  1.4583  0.2265  0.9631
   46MOL   H19922789   3.330   5.862   1.154  1.4098 -0.4280  3.4545
   46MOL   H20022790   3.230   5.991   1.085  1.2750  0.3434  0.2622
   46MOL   H20122791   3.374   6.035   1.183 -0.2056 -0.3155  1.4261
   46MOL   C20222792   2.997   6.085   1.836 -0.0780 -0.1478  0.1763
   46MOL   C20322793   2.987   6.098   1.987  0.0402  0.4411  0.2911
   46MOL   O20422794   3.042   6.222   2.013  0.4782  0.3978  0.0460
   46MOL   C20522795   2.955   6.328   2.045  0.3433  0.3183 -0.4278
   46MOL   C20622796   3.049   6.434   2.106  0.1199 -0.4810  0.2210
   46MOL   C20722797   2.971   6.565   2.131  0.0378 -0.1627  0.5318
   46MOL   C20822798   3.043   6.694   2.168 -0.2928 -0.6963  0.1106
   46MOL   C20922799   2.951   6.798   2.233 -0.4589  0.0242 -0.3491
   46MOL   C21022800   3.031   6.924   2.263 -0.5418 -0.1161 -0.1630
   46MOL   H21122801   3.097   6.052   1.809 -0.0452  0.8119 -0.8635
   46MOL   H21222802   2.983   6.177   1.780  0.5425 -1.6775 -2.5718
   46MOL   H21322803   2.883   6.098   2.021 -0.1404  1.2489 -0.2440
   46MOL   H21422804   2.874   6.308   2.114  2.7005 -0.8564  2.0965
   46MOL   H21522805   2.918   6.371   1.952 -2.3804 -2.3516 -0.6512
   46MOL   H21622806   3.128   6.454   2.033  0.3889 -0.8628  0.4071
   46MOL   H21722807   3.101   6.401   2.195  1.6057 -0.7799 -0.7300
   46MOL   H21822808   2.905   6.591   2.048  0.2447 -1.5856 -0.0902
   46MOL   H21922809   2.899   6.537   2.207 -0.5229  0.7830  0.3583
   46MOL   H22022810   3.125   6.674   2.236 -1.1899 -1.8397  0.8943
   46MOL   H22122811   3.073   6.719   2.066 -0.6739 -1.0332 -0.0895
   46MOL   H22222812   2.851   6.807   2.189 -1.0603 -1.8927  0.5966
   46MOL   H22322813   2.909   6.765   2.328  1.7284  1.3452  1.1363
   46MOL   H22422814   3.047   6.993   2.180  2.6736  0.8033  1.1555
   46MOL   H22522815   2.980   6.981   2.341  0.5672  0.2402  0.3000
   46MOL   H22622816   3.132   6.898   2.292  0.1431  1.5978 -0.9241
   46MOL   C22722817   3.065   5.999   2.074  0.1086  0.5704 -0.4140
   46MOL   C22822818   3.036   6.020   2.225  0.0752  0.6167 -0.0192
   46MOL   O22922819   3.090   6.137   2.281 -0.0951 -0.4834  0.4693
   46MOL   C23022820   3.228   6.149   2.296 -0.1064 -0.6370  0.7388
   46MOL   C23122821   3.275   6.262   2.399  0.0139 -0.1154 -0.9635
   46MOL   C23222822   3.320   6.194   2.530  0.4638  0.0815 -0.6133
   46MOL   C23322823   3.334   6.298   2.642  0.2409 -0.5035  0.0293
   46MOL   C23422824   3.354   6.233   2.776  0.4285  0.0488  0.5124
   46MOL   C23522825   3.502   6.177   2.795 -0.3083 -0.0278  0.4563
   46MOL   H23622826   3.029   5.897   2.057 -1.4160  1.3578 -2.1438
   46MOL   H23722827   3.173   6.010   2.062  0.2734 -0.6337 -0.1317
   46MOL   H23822828   3.082   5.934   2.274 -2.9324 -2.8520 -2.9481
   46MOL   H23922829   3.264   6.175   2.196 -1.4848 -1.5056  0.0053
   46MOL   H24022830   3.275   6.054   2.322  0.7147 -0.1441  1.0823
   46MOL   H24122831   3.192   6.328   2.423 -0.6942 -0.5459 -2.2114
   46MOL   H24222832   3.369   6.314   2.378  0.3734  0.1620  1.2377
   46MOL   H24322833   3.243   6.122   2.559 -1.0376  1.9813  0.1916
   46MOL   H24422834   3.413   6.142   2.509 -0.7275 -2.2859 -0.2369
   46MOL   H24522835   3.415   6.369   2.623  0.2509 -0.6987 -0.6425
   46MOL   H24622836   3.258   6.377   2.639 -1.9608 -2.4295  2.4078
   46MOL   H24722837   3.338   6.311   2.850  0.1308  1.5067 -1.0582
   46MOL   H24822838   3.287   6.147   2.780  0.7759 -0.2966 -0.8120
   46MOL   H24922839   3.570   6.258   2.769 -0.6459  0.0241 -0.2714
   46MOL   H25022840   3.515   6.138   2.896 -1.3801  0.0893  0.6508
   46MOL   H25122841   3.528   6.107   2.715 -0.6108  0.7241 -0.3072
   46MOL   C25222842   2.887   6.007   2.279 -0.5811 -0.1278  0.0939
   46MOL   C25322843   2.826   5.875   2.233  0.0811 -0.3175  0.3861
   46MOL   O25422844   2.696   5.878   2.299 -0.0518 -0.1811  0.1645
   46MOL   C25522845   2.600   5.971   2.243  0.0299 -0.7865  0.6155
   46MOL   C25622846   2.465   5.906   2.285  0.6534 -0.1523  0.3272
   46MOL   C25722847   2.452   5.913   2.433  0.1227  0.1039  0.1288
   46MOL   C25822848   2.324   5.843   2.494  0.1752  0.3422  0.0110
   46MOL   C25922849   2.319   5.840   2.648 -0.4518  0.2320 -0.3544
   46MOL   C26022850   2.185   5.783   2.699  1.2192 -0.5079 -0.0442
   46MOL   H26122851   2.894   6.007   2.388  0.1084  0.1101  0.0557
   46MOL   H26222852   2.833   6.099   2.257  1.6594  0.8010 -1.7764
   46MOL   H26322853   2.811   5.874   2.125 -0.0459  1.8470  0.3539
   46MOL   H26422854   2.602   5.984   2.135 -0.1951  1.6378  0.8631
   46MOL   H26522855   2.596   6.069   2.291 -1.0665 -0.9658  0.9053
   46MOL   H26622856   2.457   5.809   2.236 -1.1227  0.2449 -0.1999
   46MOL   H26722857   2.386   5.966   2.239  2.1917  0.0629 -2.1103
   46MOL   H26822858   2.544   5.865   2.467 -0.3386  1.0174  2.7131
   46MOL   H26922859   2.452   6.016   2.466  3.5880 -0.2916  1.5389
   46MOL   H27022860   2.240   5.907   2.466 -0.0606 -0.8878 -2.2063
   46MOL   H27122861   2.314   5.744   2.450  0.1988 -0.5114  1.8865
   46MOL   H27222862   2.403   5.786   2.693 -0.5870 -0.6239 -1.0878
   46MOL   H27322863   2.341   5.942   2.679 -2.4757  0.9995 -1.3643
   46MOL   H27422864   2.095   5.801   2.641  0.4075 -1.3039  0.9501
   46MOL   H27522865   2.188   5.674   2.702  0.2294 -0.5074  2.0113
   46MOL   H27622866   2.155   5.815   2.798  1.7465 -1.7694  0.5431
   46MOL   C27722867   2.896   5.740   2.278  0.0366  0.0017 -0.2354
   46MOL   C27822868   2.816   5.613   2.224 -1.4709  0.5512 -0.2892
   46MOL   O27922869   2.866   5.575   2.097  0.0059 -0.0924 -0.3560
   46MOL   C28022870   2.777   5.618   1.994  0.6036  0.1487  0.9554
   46MOL   C28122871   2.777   5.527   1.867  0.0950 -0.2929 -0.4036
   46MOL   C28222872   2.732   5.383   1.908  0.2650  0.2838  0.3505
   46MOL   C28322873   2.678   5.300   1.792 -0.2692 -0.3818  0.0145
   46MOL   C28422874   2.638   5.159   1.836  0.1528 -0.1616  0.2375
   46MOL   C28522875   2.619   5.067   1.715 -0.4984  0.3099  0.2636
   46MOL   H28622876   3.000   5.741   2.245  0.5094  0.9036  1.2173
   46MOL   H28722877   2.905   5.734   2.387 -2.1472 -1.3514 -0.1012
   46MOL   H28822878   2.709   5.633   2.219 -1.5464 -0.2501 -2.2864
   46MOL   H28922879   2.809   5.718   1.967  2.7849 -0.2277  2.0433
   46MOL   H29022880   2.674   5.645   2.019 -0.4522 -0.9824 -1.8899
   46MOL   H29122881   2.876   5.525   1.822  1.2256 -0.1995  2.0126
   46MOL   H29222882   2.719   5.586   1.796 -0.3445 -0.4617 -0.1848
   46MOL   H29322883   2.811   5.320   1.949 -0.5928 -0.1536  1.3357
   46MOL   H29422884   2.655   5.378   1.985  0.0069 -1.0622  0.0239
   46MOL   H29522885   2.590   5.349   1.749  0.0624 -1.7005 -2.2703
   46MOL   H29622886   2.754   5.288   1.714  0.5520 -0.2448  0.7902
   46MOL   H29722887   2.723   5.121   1.894 -1.6088 -3.6379  0.6761
   46MOL   H29822888   2.557   5.161   1.909 -0.2160  0.5087 -0.1851
   46MOL   H29922889   2.532   5.097   1.656 -0.0072  2.0239  0.3778
   46MOL   H30022890   2.704   5.059   1.648 -1.1806 -0.0327 -0.5719
   46MOL   H30122891   2.594   4.967   1.750 -0.6586  2.1138  5.7609
   46MOL   C30222892   2.847   5.501   2.316 -0.5019  0.3821 -0.0346
   46MOL   C30322893   2.755   5.375   2.292 -0.0702  0.0046 -0.6161
   46MOL   O30422894   2.704   5.345   2.425 -0.8002  0.4145  0.1598
   46MOL   C30522895   2.593   5.428   2.470 -0.2446 -0.0857 -0.0274
   46MOL   C30622896   2.603   5.425   2.617 -0.9386  0.1529 -1.0538
   46MOL   C30722897   2.475   5.465   2.686  0.1860 -0.0307 -0.0703
   46MOL   C30822898   2.487   5.480   2.839  0.4387  0.0781  0.7838
   46MOL   C30922899   2.373   5.551   2.908 -0.3421  1.3215 -0.4421
   46MOL   C31022900   2.378   5.541   3.058 -0.2427 -0.2984  0.1057
   46MOL   H31122901   2.954   5.480   2.321  0.1727  3.8115  0.9705
   46MOL   H31222902   2.830   5.531   2.420 -3.2639 -0.1994 -0.2724
   46MOL   H31322903   2.671   5.394   2.225 -0.2588  1.0265 -0.1021
   46MOL   H31422904   2.497   5.392   2.433  0.8634 -0.9444 -2.1882
   46MOL   H31522905   2.611   5.527   2.430  1.7626 -0.7135 -0.7698
   46MOL   H31622906   2.678   5.493   2.656 -3.1518  2.3229 -0.4720
   46MOL   H31722907   2.634   5.331   2.664  0.3588  1.4242  0.6890
   46MOL   H31822908   2.441   5.560   2.646  2.0499 -0.5185 -2.9904
   46MOL   H31922909   2.393   5.395   2.674 -0.8614  0.8945  1.4390
   46MOL   H32022910   2.497   5.383   2.886  1.3039  0.3490  1.1660
   46MOL   H32122911   2.583   5.527   2.864  1.1546  0.1289 -1.8788
   46MOL   H32222912   2.397   5.654   2.881 -0.1540  1.5981  0.7554
   46MOL   H32322913   2.277   5.514   2.871 -0.1039  1.2389 -0.9891
   46MOL   H32422914   2.280   5.580   3.086  0.6564  1.5766  0.7288
   46MOL   H32522915   2.391   5.443   3.104 -1.8696  0.0806  1.4512
   46MOL   H32622916   2.460   5.604   3.094 -1.4912  0.7472  1.1699
   46MOL   C32722917   2.841   5.245   2.253 -0.1206 -0.9445 -0.3571
   46MOL   C32822918   2.760   5.118   2.223 -0.9492  0.5054  0.6233
   46MOL   O32922919   2.844   5.017   2.157 -0.9156 -0.0318  0.1721
   46MOL   C33022920   2.967   4.993   2.228 -0.6714 -0.5114  0.1501
   46MOL   C33122921   3.025   4.864   2.177  0.0515  0.3885  0.9164
   46MOL   C33222922   2.951   4.740   2.238 -0.6343 -0.2697  0.3534
   46MOL   C33322923   3.011   4.599   2.219 -0.2561  0.8648 -0.3760
   46MOL   C33422924   2.915   4.495   2.272  0.1500  0.0094 -0.3520
   46MOL   C33522925   2.934   4.350   2.219 -0.0464 -0.1454  0.0798
   46MOL   H33622926   2.909   5.220   2.335 -0.4650 -1.0577 -0.1043
   46MOL   H33722927   2.898   5.265   2.162 -0.8318 -1.3206 -0.8839
   46MOL   H33822928   2.691   5.152   2.145 -2.2403  1.5193  2.1571
   46MOL   H33922929   2.936   4.984   2.332  0.6620 -2.1310  0.4270
   46MOL   H34022930   3.037   5.074   2.205 -2.5730  0.7136 -1.5486
   46MOL   H34122931   3.125   4.855   2.221  1.1969 -0.7735 -1.7907
   46MOL   H34222932   3.035   4.850   2.069  0.8700  0.1139  1.0240
   46MOL   H34322933   2.945   4.751   2.346  2.5016  0.5932  0.5113
   46MOL   H34422934   2.850   4.742   2.198  0.0822 -0.7918 -1.5669
   46MOL   H34522935   3.022   4.584   2.112 -0.5806  1.7692 -0.5314
   46MOL   H34622936   3.104   4.579   2.272 -1.6783  1.2089  2.3335
   46MOL   H34722937   2.921   4.504   2.380  0.5355  1.5197 -0.4914
   46MOL   H34822938   2.812   4.521   2.247  0.2336  1.2849  0.5598
   46MOL   H34922939   2.930   4.341   2.110  0.7608 -0.7273  0.0912
   46MOL   H35022940   3.027   4.300   2.248 -0.0935  0.1597  0.7563
   46MOL   H35122941   2.867   4.275   2.263 -1.3144  0.5572 -0.6459
   46MOL   C35222942   2.663   5.061   2.333 -0.6394 -0.4126 -0.0446
   46MOL   C35322943   2.592   4.930   2.308  0.6066 -0.1382  0.4466
   46MOL   O35422944   2.493   4.951   2.205 -0.4524  0.0815  0.6319
   46MOL   C35522945   2.537   4.895   2.078 -0.6546 -0.2638  0.2213
   46MOL   C35622946   2.543   4.746   2.078 -0.1683  0.6152 -0.0936
   46MOL   C35722947   2.595   4.690   1.939 -0.4132  0.1388 -0.2092
   46MOL   C35822948   2.646   4.548   1.943  0.3272  0.4448  0.2787
   46MOL   C35922949   2.688   4.505   1.801  0.1808 -0.3670 -0.1420
   46MOL   C36022950   2.726   4.357   1.792  0.6175  0.3068  0.2102
   46MOL   H36122951   2.735   5.044   2.414  0.0172  2.6385  0.0861
   46MOL   H36222952   2.587   5.132   2.366 -0.8863 -1.3668  1.5162
   46MOL   H36322953   2.668   4.855   2.285  0.0892 -0.4124 -0.3924
   46MOL   H36422954   2.631   4.945   2.053 -1.0524  0.6248  0.4621
   46MOL   H36522955   2.462   4.921   2.003 -1.9082  2.3974  2.2970
   46MOL   H36622956   2.450   4.695   2.104 -0.3919  1.8868  1.6742
   46MOL   H36722957   2.601   4.708   2.162 -0.2040  1.9281  0.5438
   46MOL   H36822958   2.501   4.677   1.886 -0.6641  2.1080 -0.2775
   46MOL   H36922959   2.659   4.753   1.877 -1.5614 -1.0656 -2.6754
   46MOL   H37022960   2.737   4.538   2.003  0.0139 -0.4687  0.5993
   46MOL   H37122961   2.571   4.481   1.984  1.6667 -0.7848  0.7636
   46MOL   H37222962   2.600   4.515   1.737  2.1318  0.9730 -2.7091
   46MOL   H37322963   2.766   4.571   1.763  0.4162  0.7244  2.1289
   46MOL   H37422964   2.711   4.318   1.692 -1.9435 -2.9001  1.7386
   46MOL   H37522965   2.830   4.333   1.813  0.2516 -0.4695  1.1955
   46MOL   H37622966   2.657   4.292   1.846  0.6962  0.3397  0.3511
   46MOL   C37722967   2.505   4.886   2.431  0.6844  0.1563  0.1044
   46MOL   C37822968   2.487   4.734   2.452 -0.3259 -0.7430  0.3991
   46MOL   O37922969   2.394   4.719   2.562  0.2221  0.2421  0.3272
   46MOL   C38022970   2.258   4.720   2.517 -0.3054 -0.4904 -0.2429
   46MOL   C38122971   2.166   4.770   2.627  0.4908  0.3332  0.3453
   46MOL   C38222972   2.194   4.914   2.659  0.0555 -0.0506 -0.7372
   46MOL   C38322973   2.137   4.959   2.796  0.1634  0.2343 -0.5447
   46MOL   C38422974   2.163   5.109   2.829  0.4749  0.2048 -0.2769
   46MOL   C38522975   2.301   5.163   2.785  0.6826 -0.2721  0.3254
   46MOL   H38622976   2.560   4.906   2.523 -0.3615 -2.6911  1.4145
   46MOL   H38722977   2.413   4.945   2.426  1.6677  1.7540  0.7077
   46MOL   H38822978   2.445   4.683   2.365  0.3565  2.4634 -1.8692
   46MOL   H38922979   2.231   4.620   2.484  0.8863 -0.8666 -0.0768
   46MOL   H39022980   2.234   4.785   2.432 -1.1452 -0.1049  0.2766
   46MOL   H39122981   2.183   4.709   2.715  3.9638  2.0541  0.9647
   46MOL   H39222982   2.062   4.755   2.598  1.1761  0.6886 -2.4665
   46MOL   H39322983   2.303   4.920   2.663 -0.0801  1.0788  2.4650
   46MOL   H39422984   2.164   4.985   2.582  1.4709  2.1314  0.6758
   46MOL   H39522985   2.028   4.962   2.796  0.2085  2.4168  0.0443
   46MOL   H39622986   2.183   4.891   2.868  1.5908 -1.4856 -2.9929
   46MOL   H39722987   2.084   5.173   2.791 -0.2347 -1.2170 -1.2688
   46MOL   H39822988   2.161   5.102   2.937  0.0223  1.8603 -0.1725
   46MOL   H39922989   2.383   5.098   2.815  0.8082  0.4147  1.5069
   46MOL   H40022990   2.315   5.175   2.678 -0.7629 -1.2186  0.0088
   46MOL   H40122991   2.306   5.263   2.829  0.2518 -0.2802  0.3974
   46MOL   C40222992   2.622   4.666   2.483  0.3507 -0.1976  1.0584
   46MOL   C40322993   2.604   4.524   2.533  0.2508 -0.3565  0.1734
   46MOL   O40422994   2.729   4.494   2.595 -0.1596 -0.2785  0.1692
   46MOL   C40522995   2.737   4.382   2.678 -0.1740  0.2927  0.2325
   46MOL   C40622996   2.864   4.382   2.760  0.1807 -0.9639 -0.6824
   46MOL   C40722997   2.993   4.373   2.676 -0.3976 -0.1097 -0.6845
   46MOL   C40822998   3.059   4.509   2.664 -0.4065  0.1149 -0.2888
   46MOL   C40922999   3.169   4.498   2.563 -0.5023 -0.6340  0.8656
   46MOL   C41023000   3.250   4.634   2.566  0.6882 -0.3470  0.7137
   46MOL   H41123001   2.667   4.720   2.567  0.7453  2.0407 -0.5391
   46MOL   H41223002   2.689   4.682   2.398  1.2553 -3.2244  1.1403
   46MOL   H41323003   2.522   4.535   2.605  0.8808  0.4343  0.7809
   46MOL   H41423004   2.721   4.292   2.619  0.2060  0.2772  0.1468
   46MOL   H41523005   2.658   4.390   2.752 -0.0026 -2.5040  0.7716
   46MOL   H41623006   2.862   4.305   2.837  1.5887 -0.2818  0.0386
   46MOL   H41723007   2.856   4.471   2.822 -1.3177 -0.7737 -1.1048
   46MOL   H41823008   3.069   4.313   2.726  0.4724  1.6069  0.1024
   46MOL   H41923009   2.971   4.322   2.582  1.6269 -0.0241 -1.2200
   46MOL   H42023010   2.990   4.590   2.639 -0.5497  0.1927  0.3348
   46MOL   H42123011   3.096   4.540   2.762 -2.4077 -2.5117  1.3837
   46MOL   H42223012   3.239   4.418   2.585  1.0310  0.2763 -0.5114
   46MOL   H42323013   3.130   4.485   2.462 -0.4138 -0.1460  0.7659
   46MOL   H42423014   3.330   4.635   2.492  0.9546  0.4544  1.0033
   46MOL   H42523015   3.187   4.718   2.536 -0.8939 -2.1576 -1.1711
   46MOL   H42623016   3.287   4.648   2.668  1.4719 -0.7355  0.4884
   46MOL   C42723017   2.581   4.426   2.417 -0.2119  0.2787 -0.9051
   46MOL   C42823018   2.452   4.341   2.419 -0.5137  0.2615 -0.3692
   46MOL   O42923019   2.461   4.256   2.307 -0.1858  0.6610  0.1951
   46MOL   C43023020   2.396   4.294   2.189 -0.0174 -0.5917 -0.2609
   46MOL   C43123021   2.439   4.207   2.075  0.0452 -0.8379  0.6505
   46MOL   C43223022   2.360   4.237   1.945 -0.1648 -0.2284 -0.3442
   46MOL   C43323023   2.249   4.134   1.916  0.5160 -0.2621  0.1388
   46MOL   C43423024   2.163   4.171   1.787  0.0667  0.3458  0.0795
   46MOL   C43523025   2.038   4.082   1.775  0.0684 -0.1033 -0.4629
   46MOL   H43623026   2.582   4.486   2.326  0.9662 -0.7678 -1.5990
   46MOL   H43723027   2.667   4.361   2.399 -1.5500 -2.3737  1.7767
   46MOL   H43823028   2.361   4.401   2.409 -0.0750  0.7297 -1.6723
   46MOL   H43923029   2.416   4.396   2.157 -0.5224  0.0308  1.3532
   46MOL   H44023030   2.290   4.274   2.208 -0.1693  1.1166  0.7132
   46MOL   H44123031   2.426   4.103   2.104 -0.9299 -1.0167 -0.3717
   46MOL   H44223032   2.542   4.231   2.050 -0.9604  1.2468 -1.6698
   46MOL   H44323033   2.327   4.341   1.947  2.0903  0.5184 -0.6280
   46MOL   H44423034   2.425   4.245   1.858 -0.7065  1.1443 -0.6289
   46MOL   H44523035   2.295   4.037   1.900  0.9351 -0.2363  1.1692
   46MOL   H44623036   2.182   4.140   2.002  0.8674 -1.2338  0.4881
   46MOL   H44723037   2.140   4.275   1.810 -0.5477  0.9332 -2.9481
   46MOL   H44823038   2.217   4.158   1.694  0.3650 -0.5338  0.3702
   46MOL   H44923039   2.054   3.983   1.816  0.5482  0.8607  1.7468
   46MOL   H45023040   1.961   4.143   1.822  0.2141 -0.7774  0.6662
   46MOL   H45123041   2.005   4.081   1.671 -0.9651 -1.6431 -0.1277
   46MOL   C45223042   2.429   4.268   2.547 -0.6450  0.2153 -0.3679
   46MOL   C45323043   2.290   4.213   2.563 -0.3888 -0.2743  0.3281
   46MOL   O45423044   2.212   4.333   2.603  0.1846 -0.2577  0.6569
   46MOL   C45523045   2.072   4.303   2.607 -0.2449  0.0247  0.2244
   46MOL   C45623046   2.014   4.296   2.469  0.3835 -0.1289  0.3480
   46MOL   C45723047   2.062   4.414   2.375  0.3308 -0.1304  0.3388
   46MOL   C45823048   1.997   4.407   2.232  0.1761  0.0202  0.7127
   46MOL   C45923049   2.058   4.501   2.117  0.2184 -0.3566 -0.3060
   46MOL   C46023050   2.012   4.476   1.971  0.4478  0.1894 -0.2870
   46MOL   H46123051   2.510   4.196   2.539  1.7095  2.6964  0.7274
   46MOL   H46223052   2.450   4.326   2.637  2.3289  0.7158 -1.3364
   46MOL   H46323053   2.248   4.164   2.476  1.3250 -0.6726 -0.2791
   46MOL   H46423054   2.042   4.383   2.675  2.9771  0.7810  0.8538
   46MOL   H46523055   2.046   4.214   2.665  1.4473  1.1007  2.7466
   46MOL   H46623056   1.907   4.280   2.475  0.5392 -0.5545  2.1926
   46MOL   H46723057   2.051   4.203   2.425 -1.1965 -2.1278  3.1094
   46MOL   H46823058   2.036   4.508   2.423 -2.9428 -0.3736 -0.8320
   46MOL   H46923059   2.170   4.413   2.364  0.3320  0.3028  0.3026
   46MOL   H47023060   2.026   4.311   2.189  1.4200  0.4332  0.5957
   46MOL   H47123061   1.889   4.418   2.232  0.2595  1.0223 -0.9553
   46MOL   H47223062   2.048   4.604   2.151  1.3867 -0.6128  0.8855
   46MOL   H47323063   2.167   4.494   2.122  0.2494  0.9834  1.4404
   46MOL   H47423064   2.071   4.536   1.902  1.3758  0.4486  0.7171
   46MOL   H47523065   2.017   4.375   1.930  1.2521 -0.3316  1.0491
   46MOL   H47623066   1.908   4.502   1.950  0.0907 -0.4981  0.6130
   46MOL   C47723067   2.291   4.102   2.677  0.6907 -0.4054 -0.8653
   46MOL   C47823068   2.204   3.981   2.655  0.5792 -0.2563  0.5730
   46MOL   O47923069   2.251   3.905   2.543 -0.5517  0.1018  0.1307
   46MOL   C48023070   2.176   3.784   2.519  0.3703 -0.7274 -0.2988
   46MOL   C48123071   2.052   3.798   2.436 -0.2363 -0.5631  0.1081
   46MOL   C48223072   2.067   3.883   2.312  0.3513  0.1047 -0.9739
   46MOL   C48323073   1.937   3.870   2.230  0.1488  0.1754 -0.1528
   46MOL   C48423074   1.941   3.965   2.110  0.3439 -0.5323 -0.0522
   46MOL   C48523075   1.808   3.961   2.027 -0.2133 -0.1488  0.2483
   46MOL   H48623076   2.392   4.068   2.699  0.9125  1.1500  0.5997
   46MOL   H48723077   2.267   4.145   2.774  0.9589 -1.1876 -0.4564
   46MOL   H48823078   2.207   3.921   2.745  1.8945 -1.4822 -0.2688
   46MOL   H48923079   2.154   3.715   2.601  2.1033 -1.8697 -0.7661
   46MOL   H49023080   2.238   3.716   2.461  0.0497  0.3878 -1.9795
   46MOL   H49123081   1.987   3.853   2.505 -1.8885 -1.2759 -0.8850
   46MOL   H49223082   2.017   3.696   2.424  1.0025 -1.2286  1.8308
   46MOL   H49323083   2.073   3.988   2.342  1.8228 -0.2845  0.2037
   46MOL   H49423084   2.154   3.868   2.248 -0.1228 -0.1142 -1.5662
   46MOL   H49523085   1.903   3.769   2.208 -2.6112  0.3807  2.8215
   46MOL   H49623086   1.847   3.900   2.284  1.8738  2.4556  1.5722
   46MOL   H49723087   1.955   4.066   2.149 -0.2267  0.1291 -1.5157
   46MOL   H49823088   2.028   3.932   2.053  0.5086 -0.8199  0.3683
   46MOL   H49923089   1.784   3.858   2.001 -3.2796  0.2994  1.0899
   46MOL   H50023090   1.724   3.999   2.086 -0.8881 -1.0192 -0.1337
   46MOL   H50123091   1.810   4.028   1.941 -0.2100  0.8267  1.0056
   46MOL   H50223092   2.100   4.010   2.642  0.7685  0.9527  1.6628
   47MOL     C123093   0.621   7.496   5.688  0.8973  0.0575 -0.5578
   47MOL     C223094   0.651   7.611   5.597 -0.1740 -0.4515  0.7754
   47MOL     O323095   0.527   7.653   5.542  0.0693 -0.4384  0.6467
   47MOL     C423096   0.455   7.767   5.593  0.0315  0.2389 -0.3827
   47MOL     C523097   0.309   0.011   5.526  0.1865  0.4586 -0.4491
   47MOL     C623098   0.226   7.662   5.527  0.1051  0.4011 -0.2372
   47MOL     C723099   0.097   7.650   5.430 -0.2019 -0.7031  0.5043
   47MOL     C823100   0.004   7.525   5.459  0.0945  0.1613 -0.0401
   47MOL     C923101   7.671   7.499   5.358  0.3190  0.1889  0.0147
   47MOL    H1023102   0.546   7.528   5.760 -1.2143 -0.6556 -2.3733
   47MOL    H1123103   0.579   7.408   5.640  1.9741 -1.5460  1.3456
   47MOL    H1223104   0.690   7.694   5.656  2.2435 -1.4879  0.6904
   47MOL    H1323105   0.519   0.074   5.563 -1.0771  0.4944 -2.0702
   47MOL    H1423106   0.451   7.764   5.702 -0.1698 -1.3840 -0.4271
   47MOL    H1523107   0.314   0.032   5.419  0.3705  1.6883 -0.2028
   47MOL    H1623108   0.252   0.094   5.568 -1.2844  0.7130 -2.8204
   47MOL    H1723109   0.295   7.580   5.505 -0.4681 -0.6500  1.7430
   47MOL    H1823110   0.190   7.647   5.629  0.4934  1.2711  0.0346
   47MOL    H1923111   0.045   7.744   5.446 -0.2079 -0.3215 -1.5424
   47MOL    H2023112   0.135   7.648   5.328  0.8558  2.1644  0.7927
   47MOL    H2123113   7.736   7.562   5.551  1.6568 -0.6273  1.0621
   47MOL    H2223114   0.050   7.428   5.476 -1.3079 -0.7284 -1.2082
   47MOL    H2323115   7.585   7.564   5.371 -0.4861 -0.9477  0.5091
   47MOL    H2423116   7.708   7.496   5.256 -2.2061  0.4933 -0.9570
   47MOL    H2523117   7.625   7.401   5.370 -0.3258  0.4399 -0.3822
   47MOL    H2623118   0.703   7.465   5.753  2.1250  0.0860 -2.0635
   47MOL    C2723119   0.746   7.560   5.480  0.4911 -0.2375 -0.2140
   47MOL    C2823120   0.785   7.664   5.379 -0.1415  0.3644  0.1854
   47MOL    O2923121   0.830   7.773   5.460 -0.1709 -0.5061  0.1165
   47MOL    C3023122   0.829   0.116   5.379 -0.3716 -0.2577 -0.2850
   47MOL    C3123123   0.887   0.229   5.452 -0.0579  0.7439  0.0020
   47MOL    C3223124   1.040   0.216   5.468  0.3575  0.0780  0.0116
   47MOL    C3323125   1.111   0.327   5.536 -0.3460 -0.8089  0.1663
   47MOL    C3423126   1.251   0.288   5.578  0.3465 -0.1457 -0.4207
   47MOL    C3523127   1.317   0.389   5.676  0.1532  0.4834  1.2849
   47MOL    H3623128   0.835   7.517   5.528  1.0467  0.4445 -0.6303
   47MOL    H3723129   0.705   7.471   5.432  1.6291  0.2491 -2.1208
   47MOL    H3823130   0.697   7.694   5.323  0.1200 -0.1769 -0.5332
   47MOL    H3923131   0.727   0.147   5.354 -0.6026 -1.7546 -1.2624
   47MOL    H4023132   0.869   0.106   5.278  0.2314 -3.2433  0.1958
   47MOL    H4123133   0.834   0.239   5.547 -1.8662  0.0579 -0.9007
   47MOL    H4223134   0.857   0.326   5.411  3.9591  3.6165  3.3855
   47MOL    H4323135   1.046   0.121   5.522 -0.5683 -0.6057 -1.0444
   47MOL    H4423136   1.082   0.194   5.370 -0.2052 -1.2508  0.0496
   47MOL    H4523137   1.108   0.416   5.473  0.3167 -1.4293 -0.7405
   47MOL    H4623138   1.040   0.342   5.618 -2.5728 -0.2312 -1.7966
   47MOL    H4723139   1.257   0.188   5.621  1.8132  0.8202  1.6620
   47MOL    H4823140   1.311   0.292   5.487 -0.3156 -0.6639 -0.8907
   47MOL    H4923141   1.268   0.382   5.774 -0.1903  3.0181  1.3307
   47MOL    H5023142   1.422   0.365   5.697  0.2223 -0.3441  0.0475
   47MOL    H5123143   1.309   0.493   5.647  2.9880  0.2563 -0.4582
   47MOL    C5223144   0.883   7.611   5.261 -0.1469  0.1910  0.4485
   47MOL    C5323145   1.031   7.588   5.306 -0.4254  0.0292 -0.4123
   47MOL    O5423146   1.086   7.462   5.262 -0.3756 -0.2908  0.8582
   47MOL    C5523147   1.060   7.354   5.350 -0.4359 -0.1639 -0.1038
   47MOL    C5623148   1.143   7.246   5.287  0.3234 -0.4588 -0.2759
   47MOL    C5723149   1.291   7.253   5.317  0.6328 -0.5106  0.5619
   47MOL    C5823150   1.366   7.128   5.300  0.0641 -0.2317  0.1878
   47MOL    C5923151   1.374   7.078   5.160 -0.2751 -0.0674  0.2952
   47MOL    C6023152   1.510   6.999   5.148  0.4000  0.7407  0.3647
   47MOL    H6123153   0.894   7.674   5.173 -1.7638  1.9439  1.4665
   47MOL    H6223154   0.837   7.523   5.217  0.3200  0.6953 -1.0930
   47MOL    H6323155   1.023   7.600   5.414 -0.0901 -2.1607 -0.1206
   47MOL    H6423156   0.953   7.332   5.346 -0.8010  1.2347  1.3000
   47MOL    H6523157   1.103   7.375   5.448  0.6898 -3.7968  0.2312
   47MOL    H6623158   1.111   7.246   5.183 -1.5090 -0.8129  0.2738
   47MOL    H6723159   1.110   7.151   5.329 -1.0894  0.1046 -0.0941
   47MOL    H6823160   1.341   7.326   5.253 -1.1648  0.5066  0.2948
   47MOL    H6923161   1.307   7.290   5.418  1.1665 -0.1096  0.3352
   47MOL    H7023162   1.461   7.151   5.348 -1.0084  0.5201  2.0398
   47MOL    H7123163   1.323   7.049   5.363  1.4437 -0.8748  0.3370
   47MOL    H7223164   1.286   7.023   5.125  0.5003 -1.2181  0.1023
   47MOL    H7323165   1.393   7.156   5.087  3.1779 -0.6916  0.4573
   47MOL    H7423166   1.534   6.983   5.043 -1.0773 -0.3375  0.1761
   47MOL    H7523167   1.584   7.072   5.183 -1.0205  1.5613  1.7046
   47MOL    H7623168   1.508   6.906   5.205 -0.7209 -0.9363 -2.3516
   47MOL    C7723169   1.127   7.700   5.248  0.5280 -0.4614  0.0075
   47MOL    C7823170   1.250   7.740   5.329 -0.0994  0.0166 -0.8396
   47MOL    O7923171   1.318   0.066   5.264 -0.1844 -0.2823 -0.3828
   47MOL    C8023172   1.338   0.072   5.126 -0.2686  0.8037  0.8877
   47MOL    C8123173   1.426   0.196   5.097 -0.0945 -0.1958  0.0542
   47MOL    C8223174   1.579   0.167   5.101  0.3600 -0.2665 -0.0213
   47MOL    C8323175   1.630   0.106   4.978 -0.0738 -0.1324  0.2396
   47MOL    C8423176   1.774   0.060   4.970 -0.4598 -0.2406 -0.5921
   47MOL    C8523177   1.883   0.162   5.012 -0.3955 -0.4704 -0.3979
   47MOL    H8623178   1.064   0.010   5.230  1.2985 -0.5102 -3.1862
   47MOL    H8723179   1.160   7.678   5.147  2.8730  1.1747  0.3904
   47MOL    H8823180   1.229   0.005   5.427 -0.4575  0.9653 -1.3208
   47MOL    H8923181   1.238   0.089   5.086 -0.6949 -0.8759  1.2411
   47MOL    H9023182   1.380   7.761   5.078  0.7089  1.2729  0.8682
   47MOL    H9123183   1.405   0.263   5.180  1.2506 -0.9756  1.0452
   47MOL    H9223184   1.391   0.253   5.010 -0.5664 -0.1641  0.2641
   47MOL    H9323185   1.627   0.265   5.098  0.7541 -0.4927 -1.2861
   47MOL    H9423186   1.606   0.126   5.199  0.0278 -3.0779 -1.0744
   47MOL    H9523187   1.581   0.015   4.942 -0.6770  1.1942 -2.4646
   47MOL    H9623188   1.603   0.160   4.886  2.4094  1.0799  0.1895
   47MOL    H9723189   1.789   7.752   5.036  1.0098 -0.6926 -1.4780
   47MOL    H9823190   1.807   0.025   4.872  2.2165 -0.3526  0.2953
   47MOL    H9923191   1.867   0.264   4.978 -0.1745 -0.8265 -1.5801
   47MOL   H10023192   1.893   0.185   5.118 -0.5598  0.4424 -0.5827
   47MOL   H10123193   1.980   0.121   4.983  0.3036  1.7780 -1.3131
   47MOL   C10223194   1.353   7.625   5.347  0.0496  0.8252  0.5368
   47MOL   C10323195   1.494   7.667   5.406 -0.2871  0.5993 -0.3091
   47MOL   O10423196   1.477   7.702   5.544 -0.3473 -0.5443  0.1572
   47MOL   C10523197   1.585   0.012   5.599  0.0780  0.3023  0.1549
   47MOL   C10623198   1.527   0.059   5.731  0.4658 -0.3976 -0.4596
   47MOL   C10723199   1.639   0.122   5.819 -0.2605  0.0449  0.3100
   47MOL   C10823200   1.603   0.164   5.959 -0.3015 -0.3953 -0.6878
   47MOL   C10923201   1.659   0.305   5.998  0.8664  0.2503  0.6831
   47MOL   C11023202   1.577   0.411   5.921  0.0652  0.3766  0.4285
   47MOL   H11123203   1.311   7.550   5.415  0.7409 -0.3780 -0.3491
   47MOL   H11223204   1.365   7.573   5.252 -0.0100  1.7553  0.0130
   47MOL   H11323205   1.542   7.749   5.352  1.6228 -0.9993 -1.0869
   47MOL   H11423206   1.603   0.101   5.540  0.5118  0.4345  0.4848
   47MOL   H11523207   1.676   7.730   5.605  0.4781  0.8286 -0.6609
   47MOL   H11623208   1.494   7.744   5.779 -1.2776  0.4045 -0.0598
   47MOL   H11723209   1.442   0.121   5.704  0.8073  0.2197 -0.1337
   47MOL   H11823210   1.707   0.037   5.827 -0.2289 -0.2046 -2.0428
   47MOL   H11923211   1.689   0.205   5.768  1.2040 -1.0237 -0.0568
   47MOL   H12023212   1.497   0.149   5.977  0.4572 -1.8661  3.2984
   47MOL   H12123213   1.643   0.091   6.030  0.8333  1.3631  0.5071
   47MOL   H12223214   1.662   0.316   6.106 -1.2465 -0.0213  0.7920
   47MOL   H12323215   1.763   0.311   5.965  0.9469  2.6658  1.2673
   47MOL   H12423216   1.593   0.510   5.964  1.0298  0.8047 -0.8927
   47MOL   H12523217   1.597   0.417   5.814  0.1160  0.6492  0.4543
   47MOL   H12623218   1.470   0.393   5.926  0.0291  0.3983 -0.2099
   47MOL   C12723219   1.587   7.547   5.409  0.0292  0.4053  0.3001
   47MOL   C12823220   1.671   7.526   5.275  0.0452 -0.4177 -0.1035
   47MOL   O12923221   1.772   7.629   5.267  0.2842  0.3189 -0.0428
   47MOL   C13023222   1.877   7.604   5.352 -0.5715 -0.3328  0.2734
   47MOL   C13123223   1.992   7.695   5.305  0.4030 -0.1603 -0.0161
   47MOL   C13223224   2.057   7.645   5.172 -0.7833  0.8415 -0.6178
   47MOL   C13323225   2.179   7.732   5.128  0.5285  0.0340  0.0073
   47MOL   C13423226   2.236   7.689   4.996  0.3379 -0.3124 -0.2415
   47MOL   C13523227   2.331   7.566   5.001  0.4257 -0.6532  0.0672
   47MOL   H13623228   1.653   7.554   5.496 -2.3810 -1.6147  2.3872
   47MOL   H13723229   1.532   7.456   5.433 -0.1950  0.5634  0.3851
   47MOL   H13823230   1.720   7.431   5.298  0.1389 -0.3514 -0.0277
   47MOL   H13923231   1.914   7.503   5.363  0.5464  0.0405  0.0001
   47MOL   H14023232   1.849   7.654   5.445 -1.6006 -0.9152  0.2865
   47MOL   H14123233   2.074   7.692   5.376  1.8215 -0.6570 -1.6277
   47MOL   H14223234   1.964   0.023   5.298 -1.3564 -0.6388 -0.3847
   47MOL   H14323235   2.089   7.548   5.208 -0.2694  1.8731  1.7478
   47MOL   H14423236   1.976   7.624   5.102 -0.2552 -0.5925 -0.8162
   47MOL   H14523237   2.148   0.059   5.117 -1.7475 -0.2594  2.7900
   47MOL   H14623238   2.258   7.737   5.203  2.2107 -0.8900 -1.6776
   47MOL   H14723239   2.152   7.676   4.928 -0.2424  0.4478  0.3311
   47MOL   H14823240   2.294   7.771   4.954 -1.2953  1.0332  0.0953
   47MOL   H14923241   2.365   7.527   4.905 -0.0423  3.1335 -1.7293
   47MOL   H15023242   2.418   7.578   5.065  0.6014 -0.0456 -0.2847
   47MOL   H15123243   2.278   7.482   5.045 -0.4971  0.1865  0.5896
   47MOL   C15223244   1.586   7.502   5.142 -0.6955  0.1539  0.4760
   47MOL   C15323245   1.667   7.444   5.026 -0.0288  0.9737  0.5771
   47MOL   O15423246   1.712   7.306   5.054  0.0689 -0.5881  0.0306
   47MOL   C15523247   1.854   7.290   5.056 -0.0689  0.4956  0.3015
   47MOL   C15623248   1.901   7.143   5.076 -0.0415 -0.4986  0.3884
   47MOL   C15723249   1.838   7.053   4.966  0.3448  0.4992  0.0287
   47MOL   C15823250   1.863   6.899   4.986  0.4745 -0.6094 -0.1543
   47MOL   C15923251   1.807   6.815   4.877 -0.3352 -0.2133  0.3274
   47MOL   C16023252   1.894   6.831   4.757  0.2513 -0.1219 -0.0612
   47MOL   H16123253   1.506   7.429   5.155 -0.0597 -0.3986  1.3129
   47MOL   H16223254   1.539   7.594   5.109 -0.1091  0.4408  0.4334
   47MOL   H16323255   1.756   7.503   5.002  0.8207  0.0643  1.4996
   47MOL   H16423256   1.897   7.342   5.141 -2.4741 -1.1003  2.5339
   47MOL   H16523257   1.900   7.332   4.966 -2.1159 -0.7496 -1.3825
   47MOL   H16623258   1.866   7.111   5.174 -0.5553  1.6747  0.9552
   47MOL   H16723259   2.009   7.127   5.071 -0.3095 -1.9508 -1.1246
   47MOL   H16823260   1.731   7.067   4.982  0.5508  0.7836  1.2441
   47MOL   H16923261   1.852   7.093   4.866  0.4526 -0.2706 -0.2604
   47MOL   H17023262   1.971   6.885   4.994  0.8540  1.5934 -1.0200
   47MOL   H17123263   1.827   6.853   5.078  1.0711  0.0988  0.4414
   47MOL   H17223264   1.809   6.710   4.907  2.9661 -0.6056 -1.0011
   47MOL   H17323265   1.702   6.840   4.857 -0.5476  0.5557  2.3424
   47MOL   H17423266   1.886   6.929   4.711  0.1063 -1.2407 -2.5159
   47MOL   H17523267   1.998   6.809   4.781  0.8238  2.0771 -0.4778
   47MOL   H17623268   1.857   6.767   4.677 -2.9921  0.0003  1.2758
   47MOL   C17723269   1.572   7.437   4.904  0.1715 -0.0889 -0.3229
   47MOL   C17823270   1.636   7.385   4.769 -0.0797 -0.5982 -0.9295
   47MOL   O17923271   1.546   7.323   4.679  0.0188  0.5435  0.0690
   47MOL   C18023272   1.499   7.188   4.706 -0.5198 -0.6414 -0.4698
   47MOL   C18123273   1.439   7.125   4.578 -0.4031  0.2529  0.1395
   47MOL   C18223274   1.537   7.129   4.458 -0.3923 -0.2400 -0.1788
   47MOL   C18323275   1.503   7.039   4.341 -0.2571  0.1463  0.0636
   47MOL   C18423276   1.604   7.037   4.234  0.8090 -0.4083 -0.3620
   47MOL   C18523277   1.570   6.923   4.131 -0.1271 -0.2562 -0.1668
   47MOL   H18623278   1.485   7.375   4.926 -0.2007  0.4680 -0.2294
   47MOL   H18723279   1.517   7.529   4.888  1.2433  0.5771 -0.2553
   47MOL   H18823280   1.714   7.313   4.796  1.8923  1.1942 -1.7780
   47MOL   H18923281   1.422   7.186   4.783  1.4477 -0.0813  1.5679
   47MOL   H19023282   1.578   7.117   4.732  0.0483 -0.0441 -0.5393
   47MOL   H19123283   1.347   7.177   4.549 -1.6072 -0.9707  1.6915
   47MOL   H19223284   1.408   7.022   4.590 -2.5471  0.6384 -1.8271
   47MOL   H19323285   1.531   7.234   4.429  0.8376  0.0316  0.5535
   47MOL   H19423286   1.638   7.120   4.498 -0.2989  0.8518 -0.1702
   47MOL   H19523287   1.474   6.939   4.375  1.4705 -0.2726  0.3356
   47MOL   H19623288   1.414   7.082   4.294 -0.7901  0.1914  1.0879
   47MOL   H19723289   1.602   7.134   4.184 -2.2998 -0.2126  0.0537
   47MOL   H19823290   1.705   7.025   4.276  1.3430  0.6945 -1.3014
   47MOL   H19923291   1.552   6.825   4.174  3.0089 -0.9704 -0.3838
   47MOL   H20023292   1.482   6.960   4.078  0.0942 -0.1069 -0.4323
   47MOL   H20123293   1.654   6.910   4.062  0.4960 -0.4389  0.6206
   47MOL   C20223294   1.706   7.494   4.693 -0.0348  0.3643 -0.9869
   47MOL   C20323295   1.807   7.441   4.585  0.5786 -0.3637  0.6192
   47MOL   O20423296   1.911   7.390   4.662 -0.3999  0.1746  0.1360
   47MOL   C20523297   1.940   7.256   4.629 -0.3012 -0.2867  0.0993
   47MOL   C20623298   2.079   7.229   4.684  0.4291  0.5629 -0.5408
   47MOL   C20723299   2.199   7.302   4.618  0.5735  0.5534 -0.1844
   47MOL   C20823300   2.335   7.248   4.665  0.2951  0.2563  0.8629
   47MOL   C20923301   2.459   7.317   4.620 -0.1914  0.4398 -0.5700
   47MOL   C21023302   2.578   7.287   4.709 -0.0631 -1.1127 -0.4808
   47MOL   H21123303   1.623   7.540   4.639  0.2783  1.8464 -0.2315
   47MOL   H21223304   1.750   7.566   4.762  0.9738 -0.8118 -0.3888
   47MOL   H21323305   1.756   7.363   4.529 -1.2909  1.8645 -0.9112
   47MOL   H21423306   1.940   7.232   4.523  1.2621  1.3026 -0.2742
   47MOL   H21523307   1.861   7.197   4.676 -1.6568  2.5215  1.5287
   47MOL   H21623308   2.095   7.123   4.703 -2.3406  0.3313  0.7831
   47MOL   H21723309   2.084   7.263   4.787 -1.0748  2.3656 -1.0290
   47MOL   H21823310   2.175   7.285   4.514  1.6998  1.3283 -0.5826
   47MOL   H21923311   2.200   7.408   4.642 -1.7948  0.2723  1.3557
   47MOL   H22023312   2.336   7.241   4.774  1.0734  0.4419  0.8744
   47MOL   H22123313   2.340   7.145   4.631  1.5811  1.1736 -1.8714
   47MOL   H22223314   2.479   7.324   4.513  2.5372  1.2769 -0.0739
   47MOL   H22323315   2.442   7.425   4.620  0.7226  0.6493  2.4209
   47MOL   H22423316   2.573   7.319   4.813 -1.0531 -0.6417 -0.6706
   47MOL   H22523317   2.582   7.178   4.708 -1.9901 -1.1850 -0.9521
   47MOL   H22623318   2.660   7.335   4.655  0.5700 -0.1316  1.3218
   47MOL   C22723319   1.856   7.557   4.501 -0.5018  0.3713 -0.4073
   47MOL   C22823320   1.887   7.521   4.352 -0.1666 -0.0731  0.2683
   47MOL   O22923321   1.989   7.419   4.344  1.0072  0.4148  0.5160
   47MOL   C23023322   2.057   7.414   4.223 -0.1638 -0.5480 -0.4086
   47MOL   C23123323   2.182   7.499   4.232  0.1630  0.1924 -0.8992
   47MOL   C23223324   2.260   7.515   4.106  0.7236  0.6533 -0.8065
   47MOL   C23323325   2.402   7.562   4.140  0.0851  0.0668 -0.5859
   47MOL   C23423326   2.485   7.609   4.020 -1.1136 -0.3786 -0.8434
   47MOL   C23523327   2.533   7.495   3.925  0.1485 -0.3311  0.0952
   47MOL   H23623328   1.794   7.646   4.503  0.5289  1.1941 -3.3573
   47MOL   H23723329   1.952   7.581   4.547  0.5019 -0.9555 -1.7699
   47MOL   H23823330   1.936   7.614   4.323  1.3993 -0.6577  0.9849
   47MOL   H23923331   1.999   7.447   4.137  0.9328  1.5850 -0.3475
   47MOL   H24023332   2.095   7.314   4.200  0.1365 -0.2044 -1.3943
   47MOL   H24123333   2.246   7.456   4.309 -0.3397  0.3793 -0.3695
   47MOL   H24223334   2.156   7.598   4.270  0.9668  0.0601  0.0267
   47MOL   H24323335   2.245   7.422   4.052 -2.8908 -0.5087  2.0502
   47MOL   H24423336   2.207   7.591   4.047 -3.3624 -0.1455  1.6719
   47MOL   H24523337   2.401   7.640   4.216  1.5886  0.2731 -0.7611
   47MOL   H24623338   2.458   7.486   4.194 -0.5976  0.4294  0.6510
   47MOL   H24723339   2.428   7.685   3.966 -0.4160 -0.1314 -1.2287
   47MOL   H24823340   2.576   7.651   4.064 -1.3610 -0.5404 -0.1673
   47MOL   H24923341   2.471   7.408   3.907 -0.8102  0.3784 -0.0663
   47MOL   H25023342   2.558   7.532   3.825  0.8973  1.0168  0.7600
   47MOL   H25123343   2.619   7.448   3.974  1.2251 -0.0265 -1.4554
   47MOL   C25223344   1.762   7.481   4.270 -0.1943  0.0523  0.1476
   47MOL   C25323345   1.659   7.602   4.223 -0.2603  0.3926  0.6832
   47MOL   O25423346   1.540   7.532   4.172  0.1052 -0.0307  0.2177
   47MOL   C25523347   1.430   7.524   4.258  0.5299 -0.8148 -1.0568
   47MOL   C25623348   1.336   7.408   4.224  0.9754  0.0668  0.0489
   47MOL   C25723349   1.243   7.366   4.341  0.2121 -0.0273 -0.1796
   47MOL   C25823350   1.116   7.450   4.368  0.0174  0.1981  0.2375
   47MOL   C25923351   1.008   7.387   4.454  0.3363  0.0783  0.1260
   47MOL   C26023352   0.881   7.466   4.472  0.3588 -0.2814 -0.5598
   47MOL   H26123353   1.796   7.426   4.182  1.9249  0.0759  0.9273
   47MOL   H26223354   1.712   7.400   4.322  0.0278 -0.4469 -0.4141
   47MOL   H26323355   1.641   7.680   4.297  2.7411 -0.4638  2.3889
   47MOL   H26423356   1.373   7.617   4.258 -0.1506 -1.2215 -2.3030
   47MOL   H26523357   1.453   7.528   4.365 -2.2506 -1.0874 -0.4257
   47MOL   H26623358   1.401   7.328   4.188 -0.8191 -1.0181 -0.8653
   47MOL   H26723359   1.272   7.429   4.138 -0.1765 -0.7960  0.6798
   47MOL   H26823360   1.211   7.264   4.321  1.9798 -0.2578 -2.0348
   47MOL   H26923361   1.309   7.362   4.428 -0.6465 -0.9864  0.4360
   47MOL   H27023362   1.147   7.550   4.400 -2.3716  1.1435 -0.2856
   47MOL   H27123363   1.073   7.472   4.270 -0.2893  1.6106  0.6719
   47MOL   H27223364   0.994   7.286   4.415 -0.2806  0.6044 -1.0310
   47MOL   H27323365   1.039   7.365   4.556 -0.5042 -0.6198  0.2404
   47MOL   H27423366   0.903   7.571   4.491 -0.0319  0.2497 -2.9118
   47MOL   H27523367   0.830   7.466   4.375 -1.4829  2.9851  0.3303
   47MOL   H27623368   0.818   7.420   4.549 -0.0507 -0.6283 -1.0963
   47MOL   C27723369   1.698   7.682   4.094 -0.5557 -0.2103  0.2600
   47MOL   C27823370   1.834   7.768   4.099 -0.3336 -0.6351  0.6393
   47MOL   O27923371   1.851   0.034   3.962 -0.6801 -0.5218  0.1625
   47MOL   C28023372   1.926   7.726   3.881  0.5934  0.2497 -0.2764
   47MOL   C28123373   1.891   7.769   3.739  0.3119  0.3474  0.4445
   47MOL   C28223374   1.939   0.132   3.705  0.9508  0.6473 -0.5006
   47MOL   C28323375   1.909   0.168   3.561  0.4585  0.7246  0.1003
   47MOL   C28423376   1.942   0.315   3.531  0.1832  0.0632  0.0929
   47MOL   C28523377   1.869   0.428   3.611  0.4458  0.9781  0.2198
   47MOL   H28623378   1.708   7.601   4.022  1.6210 -0.9794  1.3789
   47MOL   H28723379   1.610   7.742   4.070  1.1452  2.0617 -0.4228
   47MOL   H28823380   1.915   7.702   4.129 -0.0079 -0.6008 -0.1833
   47MOL   H28923381   1.902   7.620   3.891  0.4742  0.3433  0.4301
   47MOL   H29023382   2.035   7.729   3.887  0.4663 -0.6759  4.0327
   47MOL   H29123383   1.787   7.740   3.720  0.5104  0.1527 -0.4048
   47MOL   H29223384   1.951   7.694   3.687  2.7318  2.4521  0.1432
   47MOL   H29323385   1.885   0.212   3.756 -0.4957 -0.8737  0.4217
   47MOL   H29423386   2.044   0.139   3.732  0.8908  0.3323 -0.1809
   47MOL   H29523387   1.972   0.105   3.499  0.9259  1.9858 -0.7309
   47MOL   H29623388   1.807   0.138   3.538  0.6746 -0.4796  0.6926
   47MOL   H29723389   2.050   0.328   3.543  0.4075 -1.5840  0.0048
   47MOL   H29823390   1.931   0.339   3.425  1.6503  1.3271  0.2153
   47MOL   H29923391   1.762   0.431   3.590  1.0588  0.7441 -3.0944
   47MOL   H30023392   1.883   0.412   3.718 -0.7550 -1.1209  0.0939
   47MOL   H30123393   1.913   0.525   3.587 -0.9230  1.3153 -0.9495
   47MOL   C30223394   1.820   0.115   4.183  0.2452  0.1999 -0.2083
   47MOL   C30323395   1.916   0.227   4.157 -1.2209 -0.4742  0.4456
   47MOL   O30423396   2.031   0.219   4.239  0.2382  0.4803  0.2260
   47MOL   C30523397   2.139   0.161   4.174  0.3336  0.6026 -0.4767
   47MOL   C30623398   2.262   0.179   4.269  0.4845  0.5637 -0.0356
   47MOL   C30723399   2.254   0.093   4.396  0.2019  0.4811 -0.3783
   47MOL   C30823400   2.389   0.056   4.456  0.2388  0.1535  0.0451
   47MOL   C30923401   2.372   7.717   4.551  0.4599  0.5624 -0.4503
   47MOL   C31023402   2.503   7.725   4.641  1.0816  0.2983 -0.8447
   47MOL   H31123403   1.718   0.148   4.167  0.5741  0.7826 -1.1390
   47MOL   H31223404   1.810   0.093   4.289 -0.2042 -1.1683 -0.5217
   47MOL   H31323405   1.948   0.233   4.053  2.3792  2.2090  1.5973
   47MOL   H31423406   2.158   0.217   4.082 -0.6348  1.0325 -0.4161
   47MOL   H31523407   2.118   0.055   4.156 -1.5277  0.2560  3.2821
   47MOL   H31623408   2.282   0.280   4.305 -1.0710  0.1945  1.9315
   47MOL   H31723409   2.347   0.144   4.209 -0.7632 -1.4778 -0.6573
   47MOL   H31823410   2.207   0.142   4.481  2.0265  0.2413  0.8009
   47MOL   H31923411   2.201   0.003   4.366 -3.0746  2.1441  0.1993
   47MOL   H32023412   2.469   0.030   4.386  0.5387 -0.2680  0.5359
   47MOL   H32123413   2.430   0.147   4.499 -1.2700  1.5397 -1.3404
   47MOL   H32223414   2.285   7.726   4.616  0.6872 -0.7866  0.0737
   47MOL   H32323415   2.368   7.623   4.496  0.4856  0.1432  0.2517
   47MOL   H32423416   2.505   0.034   4.707 -1.7047  1.6530 -2.4319
   47MOL   H32523417   2.497   7.645   4.715 -0.6669 -0.6612 -1.9989
   47MOL   H32623418   2.595   7.708   4.586 -0.5448 -3.0915 -2.7099
   47MOL   C32723419   1.862   0.375   4.189 -0.0784 -0.9437 -0.0908
   47MOL   C32823420   1.773   0.438   4.081  0.8218  0.3161  0.5069
   47MOL   O32923421   1.657   0.361   4.037  0.3851 -0.0903  0.0392
   47MOL   C33023422   1.655   0.324   3.895  0.0181  0.0117 -0.1540
   47MOL   C33123423   1.528   0.237   3.866  0.0856 -0.4735  0.2404
   47MOL   C33223424   1.394   0.313   3.843  0.3049 -0.6564  0.3726
   47MOL   C33323425   1.296   0.243   3.745  0.0864  0.1094  0.7956
   47MOL   C33423426   1.166   0.327   3.734 -0.1439 -0.2378  0.3931
   47MOL   C33523427   1.066   0.331   3.846 -0.3772  0.2067 -0.7411
   47MOL   H33623428   1.946   0.443   4.200  0.9954 -2.3459  0.5267
   47MOL   H33723429   1.810   0.366   4.285  0.8495 -0.8663  0.4221
   47MOL   H33823430   1.826   0.461   3.988  0.9556 -1.9042  0.0213
   47MOL   H33923431   1.740   0.255   3.891  1.3703  1.6380 -0.2565
   47MOL   H34023432   1.686   0.401   3.824 -0.1878 -0.2549 -0.5370
   47MOL   H34123433   1.516   0.162   3.944 -2.3054 -0.7656 -0.3671
   47MOL   H34223434   1.544   0.187   3.771  2.3148  0.2424  0.2201
   47MOL   H34323435   1.338   0.328   3.935 -1.2858 -0.3093 -0.6220
   47MOL   H34423436   1.424   0.410   3.805  1.6264 -2.5144 -3.6059
   47MOL   H34523437   1.352   0.248   3.651 -2.9797  0.5360 -1.0652
   47MOL   H34623438   1.264   0.141   3.766 -0.0850 -0.0314 -0.1420
   47MOL   H34723439   1.198   0.430   3.718 -0.7108 -0.2120 -0.6489
   47MOL   H34823440   1.120   0.300   3.639 -0.0382 -0.4576  0.4056
   47MOL   H34923441   1.112   0.355   3.943 -0.2636 -0.7741 -0.5473
   47MOL   H35023442   0.972   0.384   3.835  0.8873  2.5830 -0.4615
   47MOL   H35123443   1.043   0.227   3.870 -2.3750  1.0669  1.3343
   47MOL   C35223444   1.705   0.570   4.133  0.0975 -0.0371  0.1741
   47MOL   C35323445   1.798   0.691   4.108  0.2972 -0.0417  0.3924
   47MOL   O35423446   1.765   0.793   4.200  0.0970  0.0631  0.0290
   47MOL   C35523447   1.835   0.785   4.324  0.1949 -0.2305 -0.1457
   47MOL   C35623448   1.793   0.898   4.410 -0.5228  0.0621  0.4250
   47MOL   C35723449   1.865   0.903   4.544 -0.0674  0.3866  0.0866
   47MOL   C35823450   1.801   0.992   4.651 -1.1169 -0.3960  0.0885
   47MOL   C35923451   1.786   1.148   4.622  0.4681  0.1925  0.0284
   47MOL   C36023452   1.734   1.230   4.744  0.0587  0.5645  0.4307
   47MOL   H36123453   1.604   0.586   4.095 -0.7917  0.6419  2.6978
   47MOL   H36223454   1.674   0.565   4.238  0.8504  0.0300  0.4030
   47MOL   H36323455   1.906   0.674   4.102  0.1759  0.0062 -2.9960
   47MOL   H36423456   1.942   0.779   4.303  0.1783 -1.4446  0.0775
   47MOL   H36523457   1.818   0.691   4.377  2.2513  0.0717  1.1000
   47MOL   H36623458   1.688   0.887   4.438 -0.2072 -3.0465  0.5890
   47MOL   H36723459   1.798   0.992   4.356  1.7863 -1.1099 -1.4892
   47MOL   H36823460   1.854   0.808   4.595 -0.6033  1.3178  1.7707
   47MOL   H36923461   1.969   0.928   4.524  0.1850 -2.0216 -1.7925
   47MOL   H37023462   1.699   0.955   4.665 -0.8585 -1.4881 -0.9130
   47MOL   H37123463   1.851   0.977   4.747 -1.3017 -3.4390 -0.2476
   47MOL   H37223464   1.874   1.195   4.579  0.0797  0.5339 -0.4025
   47MOL   H37323465   1.712   1.157   4.543  1.3539  0.4765 -0.7706
   47MOL   H37423466   1.655   1.181   4.800 -0.8583  1.8216  0.2392
   47MOL   H37523467   1.816   1.249   4.814 -0.4158 -2.7211  1.9643
   47MOL   H37623468   1.667   1.312   4.718 -0.4622  0.7307  2.2060
   47MOL   C37723469   1.772   0.744   3.963  0.1265  0.1564 -0.3254
   47MOL   C37823470   1.882   0.840   3.912  0.2264  0.2657 -0.0822
   47MOL   O37923471   2.014   0.781   3.909 -0.1873 -0.0074 -0.9950
   47MOL   C38023472   2.034   0.661   3.824  0.4015  0.2066 -0.2049
   47MOL   C38123473   2.157   0.587   3.877  0.1428 -0.0894 -0.9430
   47MOL   C38223474   2.167   0.439   3.823  0.0351 -0.1651  0.1697
   47MOL   C38323475   2.302   0.369   3.865 -0.7425  0.0141 -0.2801
   47MOL   C38423476   2.322   0.230   3.806 -0.2990  0.4483 -0.2812
   47MOL   C38523477   2.447   0.159   3.864  0.1104 -0.0381  0.6337
   47MOL   H38623478   1.756   0.659   3.897  1.2576 -1.7147  1.7289
   47MOL   H38723479   1.681   0.802   3.948  0.9989  1.8176  0.6201
   47MOL   H38823480   1.856   0.843   3.806 -3.7931  0.3880  0.8280
   47MOL   H38923481   2.057   0.698   3.725 -1.2918 -1.1513 -1.1415
   47MOL   H39023482   1.946   0.596   3.827  0.2637  0.3551 -1.0281
   47MOL   H39123483   2.134   0.571   3.982  0.9231 -1.5601 -0.9927
   47MOL   H39223484   2.245   0.651   3.884  0.8932 -1.4019  2.1528
   47MOL   H39323485   2.084   0.380   3.861  0.9356 -0.0447  2.4039
   47MOL   H39423486   2.162   0.430   3.715 -1.7859  0.7356  0.1749
   47MOL   H39523487   2.378   0.442   3.835 -1.0450 -0.4748 -2.2896
   47MOL   H39623488   2.313   0.360   3.973  2.6838 -3.3593 -0.8287
   47MOL   H39723489   2.232   0.172   3.825 -0.2119  0.1925 -0.6253
   47MOL   H39823490   2.337   0.245   3.699 -0.0869  0.2894 -0.2746
   47MOL   H39923491   2.452   0.057   3.828 -0.8527  0.4950 -1.0787
   47MOL   H40023492   2.541   0.204   3.832 -0.4733  0.2064 -0.7771
   47MOL   H40123493   2.431   0.143   3.971 -0.3277  0.6651  0.6756
   47MOL   C40223494   1.887   0.977   3.984  0.2987  0.9529  0.5974
   47MOL   C40323495   1.958   1.087   3.911  0.0914  0.6265 -0.7793
   47MOL   O40423496   1.946   1.208   3.982  0.5387  0.3088  0.2467
   47MOL   C40523497   2.026   1.231   4.094  0.6307  0.4262  0.1276
   47MOL   C40623498   1.981   1.356   4.171  0.3662  1.0211  0.5338
   47MOL   C40723499   1.841   1.344   4.229  0.3275  0.2955  0.4320
   47MOL   C40823500   1.792   1.469   4.290  0.0109 -0.1791  0.3682
   47MOL   C40923501   1.670   1.451   4.379 -0.5092 -0.1096 -0.7174
   47MOL   C41023502   1.629   1.581   4.443  0.0863  0.0803 -0.1983
   47MOL   H41123503   1.930   0.964   4.083 -0.9900  0.9504  1.1652
   47MOL   H41223504   1.783   1.007   3.999 -0.9181 -2.7943  0.2183
   47MOL   H41323505   2.058   1.048   3.898 -0.5946 -1.1688 -0.8437
   47MOL   H41423506   2.128   1.248   4.060 -0.1444  1.5341 -1.7571
   47MOL   H41523507   2.025   1.155   4.172  1.7190 -0.4403 -0.7014
   47MOL   H41623508   1.988   1.440   4.101 -0.5001  2.2126  1.8516
   47MOL   H41723509   2.050   1.399   4.244  0.5948  0.0646  0.8776
   47MOL   H41823510   1.775   1.320   4.146  2.8402 -0.6100 -1.3467
   47MOL   H41923511   1.837   1.262   4.301 -0.2366 -0.2440 -0.2123
   47MOL   H42023512   1.871   1.498   4.360 -0.9262  1.7736  0.6439
   47MOL   H42123513   1.785   1.548   4.215 -1.6967 -0.8266 -0.1638
   47MOL   H42223514   1.588   1.422   4.314 -2.5073  1.0745  1.2332
   47MOL   H42323515   1.696   1.381   4.458  0.9202 -0.4164 -1.4306
   47MOL   H42423516   1.610   1.657   4.367  1.3192  0.9992  0.3912
   47MOL   H42523517   1.541   1.574   4.508  0.2834  3.7804  0.5746
   47MOL   H42623518   1.714   1.615   4.503 -0.8611 -0.0254  1.2383
   47MOL   C42723519   1.908   1.120   3.773 -0.4957 -0.2298 -0.3022
   47MOL   C42823520   1.992   1.221   3.695 -0.6490  0.7645  0.6137
   47MOL   O42923521   2.100   1.137   3.640  0.3150  0.5936 -0.3876
   47MOL   C43023522   2.228   1.177   3.672  0.3351 -0.1836 -0.1343
   47MOL   C43123523   2.313   1.071   3.623 -0.3470 -0.2811  0.2136
   47MOL   C43223524   2.290   0.935   3.689  0.3955  0.1852 -0.3381
   47MOL   C43323525   2.393   0.832   3.664  0.1909 -0.5077 -0.6931
   47MOL   C43423526   2.519   0.851   3.750 -0.8682 -0.6857 -0.1713
   47MOL   C43523527   2.633   0.753   3.713 -0.4648 -0.6360 -0.5530
   47MOL   H43623528   1.918   1.029   3.714  3.7995 -0.2765  0.3614
   47MOL   H43723529   1.800   1.138   3.771 -0.3953  0.3450 -1.0722
   47MOL   H43823530   2.041   1.295   3.759 -0.6206  0.2400  1.1980
   47MOL   H43923531   2.243   1.202   3.777  0.8142 -2.0637  0.2592
   47MOL   H44023532   2.245   1.269   3.616 -0.0384  0.0720  0.1611
   47MOL   H44123533   2.416   1.102   3.639  0.5247 -2.2995 -1.3112
   47MOL   H44223534   2.294   1.064   3.516  0.6784 -1.9700  0.1331
   47MOL   H44323535   2.263   0.952   3.793  0.4930  1.1379 -0.4601
   47MOL   H44423536   2.197   0.896   3.649  0.1548 -0.1821  0.5840
   47MOL   H44523537   2.360   0.729   3.658  0.6143 -0.6522 -0.5578
   47MOL   H44623538   2.429   0.837   3.561 -0.8949  1.9856 -0.9825
   47MOL   H44723539   2.559   0.953   3.744  0.5877 -1.2323  0.1242
   47MOL   H44823540   2.505   0.836   3.857  3.7621 -1.9094  0.4006
   47MOL   H44923541   2.608   0.662   3.658 -2.6981 -0.8471  0.7751
   47MOL   H45023542   2.712   0.809   3.662 -0.7850 -0.7163 -1.1501
   47MOL   H45123543   2.683   0.710   3.800 -1.1897 -1.9233 -0.7666
   47MOL   C45223544   1.921   1.286   3.571 -0.6446  0.1780 -0.0126
   47MOL   C45323545   1.832   1.408   3.616  0.3733  0.2745 -0.4241
   47MOL   O45423546   1.760   1.453   3.499  0.4247 -0.5759  0.3959
   47MOL   C45523547   1.628   1.499   3.531 -0.0760  0.4736 -0.3848
   47MOL   C45623548   1.564   1.562   3.411  0.2778  1.3012 -0.0370
   47MOL   C45723549   1.640   1.689   3.359  0.3275  0.9007 -0.2638
   47MOL   C45823550   1.643   1.812   3.451  0.1502  0.0187  0.8708
   47MOL   C45923551   1.693   1.940   3.382  0.2322 -0.7978  0.2588
   47MOL   C46023552   1.641   2.065   3.462 -0.5582 -0.2485 -0.1615
   47MOL   H46123553   1.993   1.308   3.492  0.5671 -0.5291  0.8924
   47MOL   H46223554   1.846   1.218   3.529 -0.2613 -0.0680 -0.3018
   47MOL   H46323555   1.764   1.371   3.693 -1.7270  1.5072 -1.6253
   47MOL   H46423556   1.633   1.564   3.618 -0.1193 -0.0311 -0.0045
   47MOL   H46523557   1.564   1.415   3.559 -0.7046  0.9669 -0.3292
   47MOL   H46623558   1.461   1.594   3.426 -0.7037  0.3682 -4.2164
   47MOL   H46723559   1.561   1.495   3.325 -2.0832  0.2688  0.7974
   47MOL   H46823560   1.742   1.653   3.349 -0.1418 -0.1107 -1.5346
   47MOL   H46923561   1.605   1.715   3.259  0.3357  1.8160 -0.0261
   47MOL   H47023562   1.549   1.829   3.504  0.2929 -0.1394  1.1770
   47MOL   H47123563   1.719   1.796   3.527  0.6701 -0.8546  0.1746
   47MOL   H47223564   1.802   1.946   3.377  0.1714  0.2792  0.1264
   47MOL   H47323565   1.656   1.945   3.280 -0.2872 -1.3506  0.4194
   47MOL   H47423566   1.535   2.072   3.441 -0.3151  0.7648 -1.0536
   47MOL   H47523567   1.654   2.056   3.570  0.6216  0.3326 -0.2438
   47MOL   H47623568   1.701   2.152   3.437  1.5188 -1.1582  1.4232
   47MOL   C47723569   1.908   1.532   3.657 -0.2203  0.0657  0.0572
   47MOL   C47823570   2.031   1.554   3.562  0.9944  0.1954 -0.0478
   47MOL   O47923571   2.087   1.678   3.602  0.3913  0.3799 -0.2918
   47MOL   C48023572   2.111   1.780   3.496 -0.5760 -0.0893  0.5667
   47MOL   C48123573   2.201   1.895   3.549  0.1364  0.9602  0.7179
   47MOL   C48223574   2.266   1.974   3.436  0.5508 -0.6385 -0.1887
   47MOL   C48323575   2.168   2.034   3.332 -0.0534  0.2036 -0.5581
   47MOL   C48423576   2.231   2.106   3.221 -0.1001 -0.0150 -0.0517
   47MOL   C48523577   2.273   2.014   3.110 -0.3711 -0.0691 -0.0586
   47MOL   H48623578   1.855   1.627   3.649 -0.9830 -0.2298  1.4489
   47MOL   H48723579   1.957   1.514   3.752  0.9283  0.4043 -0.4658
   47MOL   H48823580   2.118   1.489   3.566  0.4658 -0.5690 -0.8752
   47MOL   H48923581   2.018   1.822   3.458 -1.0125 -0.2000  1.4963
   47MOL   H49023582   2.152   1.727   3.410 -1.0150 -1.0358  0.9323
   47MOL   H49123583   2.287   1.851   3.601  1.1710  0.3999 -1.4331
   47MOL   H49223584   2.158   1.953   3.631 -0.4884  1.5726 -0.0407
   47MOL   H49323585   2.319   2.061   3.475 -0.9206 -0.0079  0.4599
   47MOL   H49423586   2.334   1.906   3.386  1.2639 -0.4230  0.4842
   47MOL   H49523587   2.107   1.960   3.282  1.0428 -0.6430 -0.6627
   47MOL   H49623588   2.095   2.092   3.390  1.1463  2.5962 -1.3477
   47MOL   H49723589   2.158   2.174   3.176 -1.8196 -0.0484  2.5974
   47MOL   H49823590   2.312   2.170   3.255 -0.7627  0.7753  0.0550
   47MOL   H49923591   2.349   1.951   3.156  0.0794  0.0084 -0.6900
   47MOL   H50023592   2.192   1.946   3.087 -0.7858  0.9553 -1.6908
   47MOL   H50123593   2.303   2.073   3.023 -2.4629  1.9434  0.5172
   47MOL   H50223594   1.992   1.553   3.460  1.9007 -1.5235 -0.3889
   48MOL     C123595   1.809   3.594   0.221  0.5625 -0.5504  0.2073
   48MOL     C223596   1.954   3.631   0.245 -0.2963 -0.0068  0.3519
   48MOL     O323597   2.013   3.673   0.125 -0.2169  0.3765  0.5463
   48MOL     C423598   1.961   3.798   0.079 -0.2856 -0.2247 -0.2211
   48MOL     C523599   1.989   3.831   7.710  0.2989 -0.4291  0.5764
   48MOL     C623600   2.129   3.890   7.676 -0.8379  0.2506  0.3881
   48MOL     C723601   2.147   3.937   7.528  0.1324 -0.5768  0.7216
   48MOL     C823602   2.151   3.823   7.426  0.2054  0.1636  0.4027
   48MOL     C923603   2.175   3.852   7.277  0.9378 -0.0768 -0.1787
   48MOL    H1023604   1.768   3.531   0.300 -0.5630 -0.4850 -0.3159
   48MOL    H1123605   1.735   3.671   0.201 -1.0457 -1.8593  1.0192
   48MOL    H1223606   1.947   3.711   0.319 -1.6671  1.2695 -1.1233
   48MOL    H1323607   1.992   3.877   0.147 -1.2746 -0.2375  0.2660
   48MOL    H1423608   1.852   3.806   0.083 -0.1503  2.0852 -0.4159
   48MOL    H1523609   1.910   3.901   7.683  1.2715 -0.5669 -2.9215
   48MOL    H1623610   1.978   3.741   7.650  0.5851 -0.8713  1.1955
   48MOL    H1723611   2.142   3.981   7.734 -0.5680  0.0611  0.6272
   48MOL    H1823612   2.206   3.818   7.701 -0.6967 -0.4837 -2.0821
   48MOL    H1923613   2.064   4.007   7.513 -0.2722 -0.9104  1.3462
   48MOL    H2023614   2.237   3.998   7.524 -1.0574  1.2482  0.8002
   48MOL    H2123615   2.059   3.766   7.437  0.5248 -0.8270 -1.7559
   48MOL    H2223616   2.230   3.754   7.456 -0.7368 -0.9495  0.3888
   48MOL    H2323617   2.093   3.916   7.247  0.1076 -0.6691  0.8012
   48MOL    H2423618   2.265   3.902   7.241  1.4412 -0.3386  0.6827
   48MOL    H2523619   2.173   3.766   7.211  0.8662 -0.1528 -0.0770
   48MOL    H2623620   1.799   3.523   0.139 -1.2671 -0.5750  0.4321
   48MOL    C2723621   2.045   3.523   0.307  0.4992  0.7475 -0.4052
   48MOL    C2823622   2.119   3.573   0.429 -0.5476 -0.4463 -0.3045
   48MOL    O2923623   2.017   3.596   0.534 -0.3053 -0.2636 -0.2537
   48MOL    C3023624   2.024   3.720   0.599  0.6138  0.0607 -0.7967
   48MOL    C3123625   1.892   3.737   0.677 -0.8972 -0.0660 -0.0533
   48MOL    C3223626   1.776   3.767   0.577 -1.0980 -0.4413  0.0353
   48MOL    C3323627   1.634   3.753   0.637 -0.8536  0.1420  0.2000
   48MOL    C3423628   1.583   3.602   0.636 -0.0555 -0.4368 -0.4587
   48MOL    C3523629   1.442   3.584   0.677  0.0929 -0.6072  0.6244
   48MOL    H3623630   1.997   3.438   0.354  0.2565  0.5742 -0.9630
   48MOL    H3723631   2.120   3.487   0.236  1.6486 -0.4225  1.3747
   48MOL    H3823632   2.166   3.671   0.412  2.3917 -1.9318 -1.1226
   48MOL    H3923633   2.041   3.802   0.530 -1.1033  1.1561  0.0414
   48MOL    H4023634   2.106   3.716   0.671 -2.1951 -1.5114  2.4954
   48MOL    H4123635   1.899   3.822   0.745  1.5108 -0.8630  0.7394
   48MOL    H4223636   1.857   3.652   0.736  1.1260 -0.4184  0.6739
   48MOL    H4323637   1.788   3.869   0.541  2.1850 -1.2230 -1.2571
   48MOL    H4423638   1.783   3.701   0.490 -1.0131  1.9627 -1.8217
   48MOL    H4523639   1.625   3.788   0.740 -1.1690  2.5623 -0.6260
   48MOL    H4623640   1.565   3.807   0.572 -1.0862 -0.8199 -0.3658
   48MOL    H4723641   1.610   3.546   0.547 -1.4090 -0.1660 -1.0536
   48MOL    H4823642   1.640   3.556   0.717 -1.3228 -1.4130 -0.0982
   48MOL    H4923643   1.431   3.629   0.776 -2.9540 -1.2523  0.6345
   48MOL    H5023644   1.376   3.622   0.598 -1.2856 -1.4012  1.3772
   48MOL    H5123645   1.412   3.480   0.685  0.6714 -0.7560  0.9067
   48MOL    C5223646   2.229   3.484   0.493 -0.0244  0.6074 -0.4666
   48MOL    C5323647   2.347   3.447   0.396  0.0346  0.0363 -0.8012
   48MOL    O5423648   2.471   3.457   0.464  0.3523  0.1719  0.7755
   48MOL    C5523649   2.561   3.550   0.418 -0.2603 -0.5379  0.6401
   48MOL    C5623650   2.693   3.531   0.487  0.5026  0.6276  0.0045
   48MOL    C5723651   2.754   3.392   0.449  0.0168 -1.1191 -0.8604
   48MOL    C5823652   2.855   3.342   0.554  0.8477  0.1163 -0.0032
   48MOL    C5923653   2.901   3.193   0.528  0.3114 -0.1429 -0.2388
   48MOL    C6023654   2.997   3.173   0.410 -0.4265 -0.6186 -0.4931
   48MOL    H6123655   2.189   3.390   0.532  0.6461  0.5389  0.0797
   48MOL    H6223656   2.264   3.546   0.575  1.6450  0.2863 -0.9096
   48MOL    H6323657   2.340   3.527   0.322  1.5745  0.7557 -0.1750
   48MOL    H6423658   2.531   3.652   0.442  0.0095 -0.1982 -0.4305
   48MOL    H6523659   2.574   3.543   0.310  1.0036 -0.8762  0.7958
   48MOL    H6623660   2.682   3.541   0.595  0.2120  1.7785 -0.1241
   48MOL    H6723661   2.762   3.612   0.462  2.4723 -0.7502  0.8527
   48MOL    H6823662   2.672   3.322   0.465 -1.4981  0.7964 -0.1231
   48MOL    H6923663   2.805   3.388   0.352  1.4100 -1.6334 -0.1178
   48MOL    H7023664   2.945   3.403   0.561  0.8596 -0.1362  2.5030
   48MOL    H7123665   2.811   3.354   0.653 -1.4749  2.5889 -1.2885
   48MOL    H7223666   2.931   3.148   0.623 -0.5341  2.0108  1.0870
   48MOL    H7323667   2.810   3.141   0.498  0.4323 -0.9993  0.8261
   48MOL    H7423668   2.972   3.221   0.315  1.1485 -1.6344 -1.4395
   48MOL    H7523669   3.095   3.219   0.425 -0.2799 -1.3457  0.8634
   48MOL    H7623670   3.019   3.070   0.382 -1.0572 -0.0817 -3.0822
   48MOL    C7723671   2.327   3.308   0.331  0.1930 -0.5434  0.5863
   48MOL    C7823672   2.398   3.300   0.197 -0.5746 -0.2621  0.2145
   48MOL    O7923673   2.309   3.367   0.109 -0.2788  0.1870 -0.4396
   48MOL    C8023674   2.370   3.464   0.024  0.4556  0.4622  0.1245
   48MOL    C8123675   2.262   3.519   7.709  0.0202 -0.1866  0.6619
   48MOL    C8223676   2.192   3.418   7.617 -0.2469 -0.1085  0.4458
   48MOL    C8323677   2.113   3.487   7.495  0.4723 -0.4600  0.0835
   48MOL    C8423678   2.005   3.401   7.425 -0.8306 -0.1013 -0.1316
   48MOL    C8523679   1.877   3.396   7.500  0.0616 -0.2642 -0.0799
   48MOL    H8623680   2.224   3.278   0.314  0.7084 -0.8803 -2.1407
   48MOL    H8723681   2.364   3.233   0.401  1.2896  0.3706  1.0016
   48MOL    H8823682   2.488   3.361   0.198 -0.9145  0.2453  1.7910
   48MOL    H8923683   2.462   3.431   7.753 -0.1444 -2.3084  0.7805
   48MOL    H9023684   2.415   3.544   0.084  0.0029  0.8313 -0.0232
   48MOL    H9123685   2.318   3.584   7.642  3.0864 -2.2587  1.0905
   48MOL    H9223686   2.187   3.578   7.762  0.5486 -1.0932  2.4806
   48MOL    H9323687   2.262   3.343   7.579 -2.0295 -1.9527  0.7158
   48MOL    H9423688   2.119   3.358   7.671 -0.4704 -0.1329  0.1183
   48MOL    H9523689   2.067   3.577   7.536 -0.2542  0.6927 -3.1858
   48MOL    H9623690   2.175   3.531   7.418  0.2275  0.2828  0.3005
   48MOL    H9723691   1.971   3.442   7.330  1.5859 -0.5178 -1.2158
   48MOL    H9823692   2.038   3.303   7.388 -1.0272  0.1087 -0.8744
   48MOL    H9923693   1.797   3.329   7.469 -0.2215 -0.7987  1.7551
   48MOL   H10023694   1.898   3.355   7.599  0.5746 -0.6079 -0.3301
   48MOL   H10123695   1.833   3.496   7.510 -1.9039 -0.8311 -2.4290
   48MOL   C10223696   2.422   3.158   0.151 -0.6363  0.5763  0.0752
   48MOL   C10323697   2.487   3.146   0.010 -0.5525 -0.1135  0.4821
   48MOL   O10423698   2.620   3.189   0.013 -0.5961 -0.3510  0.4409
   48MOL   C10523699   2.666   3.252   7.671 -0.1154 -0.5958  0.0896
   48MOL   C10623700   2.796   3.326   7.701  0.2889  0.2451 -0.2437
   48MOL   C10723701   2.906   3.246   7.767  0.3726 -0.5192  0.0738
   48MOL   C10823702   3.030   3.332   0.011 -0.2481 -0.1348 -0.7354
   48MOL   C10923703   3.159   3.245   0.030  0.5811  0.2203 -0.1445
   48MOL   C11023704   3.288   3.329   0.028 -0.0848  0.4442 -0.4032
   48MOL   H11123705   2.481   3.119   0.234 -2.4387  2.3351  2.2576
   48MOL   H11223706   2.331   3.099   0.161 -0.3045  0.4412  2.6807
   48MOL   H11323707   2.426   3.199   7.716  0.7456 -0.3883 -0.8579
   48MOL   H11423708   2.594   3.324   7.632 -0.1671 -0.9212 -0.4108
   48MOL   H11523709   2.680   3.176   7.594  0.0082 -0.5184  0.0359
   48MOL   H11623710   2.764   3.403   7.771  1.2742 -0.4134  0.9524
   48MOL   H11723711   2.822   3.387   7.614 -2.5096 -0.2373 -1.4581
   48MOL   H11823712   2.869   3.198   0.080 -0.5180 -2.2765 -1.2008
   48MOL   H11923713   2.919   3.156   7.706  0.3630 -1.4850  1.4656
   48MOL   H12023714   3.046   3.393   7.699  0.9992 -1.6045 -1.5592
   48MOL   H12123715   3.021   3.398   0.097  2.9215  1.5102 -1.5603
   48MOL   H12223716   3.143   3.182   0.118 -1.9661 -0.0547 -0.7547
   48MOL   H12323717   3.170   3.176   7.724 -1.3848 -1.2849  0.7974
   48MOL   H12423718   3.284   3.420   0.088 -3.8267 -0.3223  0.5974
   48MOL   H12523719   3.369   3.265   0.062 -0.2332  1.3260  1.6738
   48MOL   H12623720   3.302   3.365   7.703  0.8879 -0.6122 -0.6487
   48MOL   C12723721   2.496   3.004   7.739  0.9377  0.3779  0.1214
   48MOL   C12823722   2.355   2.939   7.712 -0.8726  0.0828 -0.8012
   48MOL   O12923723   2.392   2.802   7.689 -0.1919  0.0656  0.4809
   48MOL   C13023724   2.391   2.719   0.022  0.3062  0.3808 -0.0430
   48MOL   C13123725   2.401   2.569   7.748  0.4578  0.3973 -0.3725
   48MOL   C13223726   2.406   2.475   0.085  0.0400 -0.6439  0.3286
   48MOL   C13323727   2.419   2.325   0.037 -0.2279  0.5854  0.2056
   48MOL   C13423728   2.416   2.221   0.146 -0.5688  0.5570  0.3560
   48MOL   C13523729   2.556   2.190   0.198  0.6959 -0.3313  0.1726
   48MOL   H13623730   2.556   2.991   7.649  0.7035  2.9915 -0.4701
   48MOL   H13723731   2.548   2.961   0.046  0.2419 -0.4966  0.1111
   48MOL   H13823732   2.285   2.946   0.018 -1.7122 -1.0064 -1.3887
   48MOL   H13923733   2.292   2.727   0.067 -0.0475 -0.4528 -0.6876
   48MOL   H14023734   2.463   2.754   0.097  2.6116 -1.4572 -1.3455
   48MOL   H14123735   2.489   2.567   7.684  0.5791  1.8976 -0.2881
   48MOL   H14223736   2.317   2.540   7.685  0.1013  2.7695 -1.0306
   48MOL   H14323737   2.491   2.498   0.150 -0.8246  2.7361  0.3447
   48MOL   H14423738   2.314   2.487   0.143  1.5428  2.6910  2.1889
   48MOL   H14523739   2.338   2.300   7.745 -0.7110 -0.4309  1.1252
   48MOL   H14623740   2.492   2.317   7.734 -1.4339  0.4578 -0.9039
   48MOL   H14723741   2.349   2.250   0.226 -0.6842  3.0399 -0.6154
   48MOL   H14823742   2.355   2.143   0.101 -0.3810 -0.3487  1.6415
   48MOL   H14923743   2.553   2.112   0.274  0.3165  0.3231  0.8396
   48MOL   H15023744   2.628   2.167   0.119  0.7821 -1.9924  0.7084
   48MOL   H15123745   2.587   2.285   0.241  0.5588 -0.1563 -0.1140
   48MOL   C15223746   2.302   2.983   7.572 -0.9756 -0.2586  0.3387
   48MOL   C15323747   2.156   2.948   7.548 -0.1285 -0.6288 -0.0308
   48MOL   O15423748   2.071   3.026   7.630 -0.2547  0.2512 -0.0450
   48MOL   C15523749   1.978   2.949   7.704  0.6132 -0.0769  0.5406
   48MOL   C15623750   1.880   3.043   7.764  0.7398  0.1446  0.0306
   48MOL   C15723751   1.932   3.127   0.107  0.5928  0.3889 -0.4427
   48MOL   C15823752   1.839   3.244   0.135  0.8184 -0.0438  0.0480
   48MOL   C15923753   1.689   3.193   0.161 -0.3429 -0.2047 -0.4722
   48MOL   C16023754   1.616   3.286   0.258 -0.0999  0.2888 -0.0905
   48MOL   H16123755   2.318   3.088   7.547 -0.5473 -0.7234 -1.4238
   48MOL   H16223756   2.366   2.930   7.501 -1.7178  0.0182 -0.5387
   48MOL   H16323757   2.152   2.842   7.573  0.8690 -0.1814  2.1932
   48MOL   H16423758   2.030   2.891   0.003  2.1000  1.5670  0.8269
   48MOL   H16523759   1.929   2.876   7.641 -1.5534  0.2840  1.7658
   48MOL   H16623760   1.795   2.984   0.022  0.8779 -0.9502 -1.4304
   48MOL   H16723761   1.849   3.111   7.685 -1.2012 -0.8456 -0.1038
   48MOL   H16823762   1.953   3.066   0.195  2.4756  0.8429 -0.5383
   48MOL   H16923763   2.029   3.167   0.077  0.6690  0.6868  0.1931
   48MOL   H17023764   1.874   3.289   0.228  0.4629 -2.5390  1.4251
   48MOL   H17123765   1.852   3.323   0.061 -0.0255 -0.3732 -0.4535
   48MOL   H17223766   1.648   3.197   0.060 -2.0292  0.1043  0.2012
   48MOL   H17323767   1.691   3.094   0.207  0.2801  0.2478  0.5039
   48MOL   H17423768   1.614   3.391   0.231  0.8561  0.2769 -0.2180
   48MOL   H17523769   1.511   3.257   0.249 -0.4259  1.5801 -0.5116
   48MOL   H17623770   1.625   3.268   0.366 -0.9244 -2.2809 -0.4071
   48MOL   C17723771   2.098   2.975   7.406 -0.6274 -0.1143 -0.1837
   48MOL   C17823772   2.173   2.912   7.289  0.2598  0.4719  0.4935
   48MOL   O17923773   2.179   2.775   7.326 -0.2411  0.8923  0.3079
   48MOL   C18023774   2.277   2.696   7.268  0.3518  0.1964  0.5178
   48MOL   C18123775   2.322   2.599   7.376 -0.0535 -0.0046  0.1939
   48MOL   C18223776   2.413   2.483   7.339  0.0494 -0.4398 -0.1881
   48MOL   C18323777   2.413   2.363   7.437  0.3594  0.5621 -0.2282
   48MOL   C18423778   2.435   2.222   7.375 -0.4210  0.5395  0.0716
   48MOL   C18523779   2.480   2.119   7.476 -0.0659  0.4219 -0.2271
   48MOL   H18623780   1.995   2.938   7.408 -0.9716  0.8119 -0.3934
   48MOL   H18723781   2.096   3.082   7.384  1.0260 -0.1511 -0.5503
   48MOL   H18823782   2.272   2.956   7.294  0.5077 -0.0440  0.0613
   48MOL   H18923783   2.363   2.755   7.233 -0.1585 -0.1846 -1.4535
   48MOL   H19023784   2.246   2.648   7.175 -0.2415 -1.8835  1.7780
   48MOL   H19123785   2.237   2.567   7.436 -0.5128  0.0101 -0.4383
   48MOL   H19223786   2.374   2.659   7.450 -1.4985  1.7559 -0.1860
   48MOL   H19323787   2.372   2.450   7.243  0.3332 -1.6565  0.1094
   48MOL   H19423788   2.517   2.509   7.322  0.1958 -0.5248  0.5758
   48MOL   H19523789   2.494   2.380   7.507  1.1729 -0.3060 -0.9399
   48MOL   H19623790   2.314   2.360   7.481 -0.0319  0.6043 -1.0870
   48MOL   H19723791   2.348   2.169   7.334  0.3375  1.1285 -2.4013
   48MOL   H19823792   2.513   2.225   7.298  0.4128  0.4668  0.9058
   48MOL   H19923793   2.411   2.099   7.558 -0.2559  0.0378 -0.4811
   48MOL   H20023794   2.507   2.021   7.436 -1.9217 -0.0016 -0.4481
   48MOL   H20123795   2.574   2.159   7.514  0.5836  0.2302 -1.6035
   48MOL   C20223796   2.100   2.927   7.156 -0.3113  0.0212 -0.3364
   48MOL   C20323797   2.102   3.068   7.098 -0.5336  0.1511 -0.1642
   48MOL   O20423798   1.994   3.080   7.019 -0.0082  0.4611  0.5193
   48MOL   C20523799   1.942   3.213   7.004  0.1249  0.1484 -0.3062
   48MOL   C20623800   1.858   3.229   6.886  0.3622  0.0904 -0.1267
   48MOL   C20723801   1.940   3.202   6.760  0.0602 -0.1983 -0.2425
   48MOL   C20823802   1.880   3.243   6.623  0.2130  0.0936  0.1934
   48MOL   C20923803   1.922   3.151   6.514  0.2166 -0.2713  0.4106
   48MOL   C21023804   1.850   3.192   6.386  0.1527  0.2718  0.2673
   48MOL   H21123805   2.143   2.852   7.089 -0.9890  0.2481 -1.0211
   48MOL   H21223806   1.997   2.895   7.171  1.1194 -3.5957  2.5463
   48MOL   H21323807   2.104   3.151   7.168 -0.4615  1.6291 -1.8730
   48MOL   H21423808   2.012   3.295   7.013  0.5462 -0.3132  0.7754
   48MOL   H21523809   1.883   3.226   7.095 -2.1567  0.1837 -1.7516
   48MOL   H21623810   1.825   3.333   6.880  0.9548  0.3294  0.6331
   48MOL   H21723811   1.774   3.160   6.889  0.6393 -0.3711 -2.2699
   48MOL   H21823812   2.036   3.254   6.767  0.3296 -0.8584  1.1399
   48MOL   H21923813   1.955   3.094   6.763  0.6046 -0.1692 -1.7271
   48MOL   H22023814   1.772   3.249   6.629  0.2475  0.6499  0.2764
   48MOL   H22123815   1.906   3.346   6.597  0.7624 -0.1926 -0.4181
   48MOL   H22223816   2.029   3.154   6.496  0.2040 -0.9643  0.2052
   48MOL   H22323817   1.892   3.051   6.548  1.0684 -1.6072 -2.6595
   48MOL   H22423818   1.905   3.164   6.296  0.5111 -0.7852  0.8125
   48MOL   H22523819   1.747   3.160   6.376  0.1694 -0.2791  1.7658
   48MOL   H22623820   1.825   3.298   6.374 -1.2568  0.0756  1.3632
   48MOL   C22723821   2.217   3.085   6.998 -0.2308  0.0002 -0.3244
   48MOL   C22823822   2.359   3.071   7.065  0.1609 -0.5861  0.2601
   48MOL   O22923823   2.457   3.082   6.970  0.2670 -0.2994 -0.2911
   48MOL   C23023824   2.495   2.974   6.888  0.3214  0.8470 -0.4528
   48MOL   C23123825   2.582   3.032   6.783 -0.3086 -0.0661  0.0339
   48MOL   C23223826   2.713   3.088   6.846  0.7433  0.3444 -0.3251
   48MOL   C23323827   2.804   3.168   6.747  0.1152  0.2825  0.3412
   48MOL   C23423828   2.866   3.081   6.634  0.3740 -0.9869 -0.5524
   48MOL   C23523829   2.949   3.166   6.542 -0.4898  0.2751 -0.1988
   48MOL   H23623830   2.207   3.021   6.910 -0.4279  0.8699 -0.9432
   48MOL   H23723831   2.206   3.184   6.952 -3.0734  0.9399  2.2429
   48MOL   H23823832   2.368   2.974   7.113 -3.0617 -1.0767 -0.0042
   48MOL   H23923833   2.402   2.932   6.851  1.2785 -1.1763 -0.6598
   48MOL   H24023834   2.541   2.898   6.952 -1.8522  0.9411  1.2898
   48MOL   H24123835   2.528   3.121   6.752  3.2704  1.8699 -0.9029
   48MOL   H24223836   2.592   2.972   6.692 -0.6029 -0.6781  0.4030
   48MOL   H24323837   2.697   3.151   6.933 -2.7580 -1.0251  0.1183
   48MOL   H24423838   2.769   3.006   6.891 -0.5545 -1.0568 -1.1928
   48MOL   H24523839   2.734   3.245   6.715 -1.4697 -0.7150  1.3435
   48MOL   H24623840   2.882   3.212   6.809 -0.1295  2.7105 -1.0393
   48MOL   H24723841   2.924   3.000   6.680 -1.1922 -2.4645 -1.1195
   48MOL   H24823842   2.785   3.035   6.578 -1.6733  1.1444  0.5945
   48MOL   H24923843   2.900   3.262   6.524 -1.2913 -0.1384 -0.2579
   48MOL   H25023844   3.045   3.178   6.591  0.0668 -1.2645 -0.8758
   48MOL   H25123845   2.984   3.112   6.455  0.1958 -1.2529  0.9983
   48MOL   C25223846   2.387   3.198   7.150  0.1025 -0.1902  0.3063
   48MOL   C25323847   2.529   3.204   7.212 -0.4810  0.8064  0.0791
   48MOL   O25423848   2.528   3.102   7.309  0.5576  0.1657  0.8454
   48MOL   C25523849   2.639   3.013   7.332  0.1265  0.2859 -0.6850
   48MOL   C25623850   2.664   2.932   7.206 -0.4317 -0.3597  0.1470
   48MOL   C25723851   2.775   2.834   7.219  0.5601  0.0783 -0.1502
   48MOL   C25823852   2.734   2.712   7.313 -0.2334  0.1383  0.2432
   48MOL   C25923853   2.858   2.614   7.319 -0.5165  0.2614  0.5731
   48MOL   C26023854   2.823   2.466   7.349 -0.2267  0.4001  0.2929
   48MOL   H26123855   2.369   3.285   7.088  0.8929 -1.1815 -1.3543
   48MOL   H26223856   2.306   3.213   7.222  0.3440  2.4266  0.0780
   48MOL   H26323857   2.601   3.186   7.133  0.8251  1.8934  1.0039
   48MOL   H26423858   2.605   2.939   7.405  2.2428 -1.0601 -1.0244
   48MOL   H26523859   2.732   3.051   7.375 -0.2104 -1.4332  1.6455
   48MOL   H26623860   2.697   2.981   7.114  1.1660 -2.7273 -0.5931
   48MOL   H26723861   2.575   2.875   7.181 -0.7987  0.5257 -0.6244
   48MOL   H26823862   2.805   2.792   7.123  0.2901  0.5193 -0.4289
   48MOL   H26923863   2.869   2.881   7.250  0.0919  1.6961 -1.0940
   48MOL   H27023864   2.700   2.747   7.411 -0.4045  4.4750 -1.2480
   48MOL   H27123865   2.649   2.668   7.262  0.9097 -1.1330 -0.5723
   48MOL   H27223866   2.903   2.608   7.220 -0.9121 -2.3515  0.5060
   48MOL   H27323867   2.923   2.656   7.395 -0.4613 -0.4483  0.9196
   48MOL   H27423868   2.776   2.465   7.447  1.4663  0.0308  1.1150
   48MOL   H27523869   2.744   2.438   7.278  0.4187 -2.0485  0.4826
   48MOL   H27623870   2.914   2.407   7.346  0.4277  1.4551 -1.1648
   48MOL   C27723871   2.562   3.342   7.284  0.5470 -0.0527  0.4126
   48MOL   C27823872   2.527   3.474   7.205  0.5399  0.4357  0.1425
   48MOL   O27923873   2.575   3.588   7.277  0.0179  0.2167  0.0375
   48MOL   C28023874   2.513   3.611   7.404  0.3750  0.3536 -0.4408
   48MOL   C28123875   2.512   3.760   7.433  0.2985  0.0536  0.3633
   48MOL   C28223876   2.657   3.821   7.456 -0.0791 -0.0076  0.1116
   48MOL   C28323877   2.659   3.974   7.478  0.1296  0.2819 -0.2640
   48MOL   C28423878   2.588   4.056   7.372  0.3721  0.4525  0.2121
   48MOL   C28523879   2.587   4.207   7.395 -0.1904 -0.6052 -0.6711
   48MOL   H28623880   2.516   3.333   7.382 -0.0495  4.3930  0.6439
   48MOL   H28723881   2.664   3.331   7.322 -0.2045 -1.3090  2.1017
   48MOL   H28823882   2.419   3.476   7.192  0.0117 -1.5605  3.5628
   48MOL   H28923883   2.544   3.550   7.489 -1.4955  1.5202  1.1142
   48MOL   H29023884   2.413   3.568   7.395  0.3094  0.9644 -2.8089
   48MOL   H29123885   2.446   3.778   7.518 -0.1994 -1.2120  0.2542
   48MOL   H29223886   2.466   3.801   7.343 -2.3121  0.1862  1.7133
   48MOL   H29323887   2.697   3.776   7.546 -0.4219 -0.0895  0.2258
   48MOL   H29423888   2.727   3.792   7.378 -2.4359 -0.1808 -2.0237
   48MOL   H29523889   2.613   4.001   7.573 -0.1982 -0.2904 -0.2644
   48MOL   H29623890   2.756   4.021   7.495  0.3139 -0.4534  0.7379
   48MOL   H29723891   2.620   4.030   7.271 -0.2445 -3.4918  0.9410
   48MOL   H29823892   2.483   4.027   7.378  0.4613  0.0556 -0.0859
   48MOL   H29923893   2.517   4.233   7.474 -0.1599  1.7198 -1.3564
   48MOL   H30023894   2.687   4.232   7.431 -0.8770  0.8554  0.2929
   48MOL   H30123895   2.565   4.259   7.301 -0.5874 -0.4459 -0.4921
   48MOL   C30223896   2.580   3.486   7.058  0.5347  0.2715 -0.9101
   48MOL   C30323897   2.520   3.606   6.976  0.1092  0.3249  0.1927
   48MOL   O30423898   2.386   3.572   6.945  0.1915  0.6851  0.1905
   48MOL   C30523899   2.286   3.649   7.011  0.6297 -0.4327 -0.6656
   48MOL   C30623900   2.154   3.613   6.953  0.5417 -0.1408 -0.1954
   48MOL   C30723901   2.153   3.655   6.803 -0.1963  0.1892 -0.4265
   48MOL   C30823902   2.048   3.584   6.713  0.1026 -0.4798 -0.2191
   48MOL   C30923903   1.905   3.637   6.750  0.3274  0.3867 -0.1847
   48MOL   C31023904   1.807   3.610   6.642 -0.1557 -0.0728  0.2335
   48MOL   H31123905   2.689   3.488   7.053  0.6215 -0.2321  0.6425
   48MOL   H31223906   2.562   3.394   7.003 -0.3174 -1.3944  2.1016
   48MOL   H31323907   2.528   3.695   7.039  2.6400 -1.0071  1.8708
   48MOL   H31423908   2.309   3.755   7.010  0.4100 -0.3985 -1.8881
   48MOL   H31523909   2.300   3.625   7.117 -1.2465 -0.8133 -0.4870
   48MOL   H31623910   2.062   3.648   7.000  0.4051 -0.0939 -0.4981
   48MOL   H31723911   2.141   3.505   6.960 -1.0518  0.0839  0.4431
   48MOL   H31823912   2.145   3.763   6.788  0.2035  0.1940 -0.6028
   48MOL   H31923913   2.250   3.635   6.759 -0.2735  1.4774 -1.1938
   48MOL   H32023914   2.079   3.622   6.616  1.3793  2.5074  1.2967
   48MOL   H32123915   2.063   3.476   6.719  0.0084 -0.4359  0.9242
   48MOL   H32223916   1.874   3.570   6.831  0.0899 -0.1054 -0.6803
   48MOL   H32323917   1.911   3.743   6.777 -0.4248  0.3309  0.2240
   48MOL   H32423918   1.732   3.689   6.644  0.0644  0.2253 -2.1757
   48MOL   H32523919   1.858   3.606   6.546 -1.5896 -0.0246 -0.5259
   48MOL   H32623920   1.763   3.513   6.665  0.5627 -0.4603  0.0198
   48MOL   C32723921   2.593   3.619   6.845 -0.1505 -0.6320  0.0199
   48MOL   C32823922   2.548   3.739   6.746 -0.2209  0.8779 -0.5026
   48MOL   O32923923   2.555   3.853   6.827  0.3557 -0.1939  0.2436
   48MOL   C33023924   2.505   3.973   6.772 -0.3752 -0.6242 -0.4266
   48MOL   C33123925   2.470   4.071   6.884 -0.5640  0.3686 -0.1185
   48MOL   C33223926   2.409   4.198   6.838 -0.1027  0.1357  0.1774
   48MOL   C33323927   2.407   4.300   6.955  0.5485 -0.2096 -0.6643
   48MOL   C33423928   2.359   4.441   6.909  0.3682 -0.2634  0.2911
   48MOL   C33523929   2.468   4.530   6.836 -0.0553  0.2760  0.6766
   48MOL   H33623930   2.596   3.516   6.809  0.5372 -1.1252  1.4551
   48MOL   H33723931   2.696   3.633   6.879 -0.0597  1.0218 -0.8593
   48MOL   H33823932   2.440   3.729   6.732 -0.6894  1.4486  2.4121
   48MOL   H33923933   2.411   3.950   6.721 -0.2248  0.6496 -1.3179
   48MOL   H34023934   2.573   4.021   6.701 -1.4667 -1.0617 -1.8001
   48MOL   H34123935   2.563   4.100   6.932  0.8031 -1.7539 -1.4130
   48MOL   H34223936   2.391   4.027   6.944  0.2235  0.0844  0.7200
   48MOL   H34323937   2.471   4.250   6.766 -0.9681 -0.0577 -0.7155
   48MOL   H34423938   2.315   4.177   6.786  0.8557  1.2427 -2.0498
   48MOL   H34523939   2.343   4.260   7.033  2.9939 -0.1162  1.4702
   48MOL   H34623940   2.502   4.306   7.008  0.7278 -2.3979 -0.7250
   48MOL   H34723941   2.265   4.440   6.854  0.5797  2.3683 -0.1705
   48MOL   H34823942   2.348   4.504   6.997  0.8491 -1.4049  1.1919
   48MOL   H34923943   2.521   4.471   6.761  1.3163  1.0509  1.0214
   48MOL   H35023944   2.427   4.621   6.792  0.1805  0.1293  0.1452
   48MOL   H35123945   2.545   4.555   6.908  0.4061  4.1812 -1.0448
   48MOL   C35223946   2.630   3.746   6.618  0.2911 -0.1142  0.4969
   48MOL   C35323947   2.620   3.614   6.530  0.7622  0.1299  0.2672
   48MOL   O35423948   2.674   3.646   6.404 -0.1487  0.2199  0.5197
   48MOL   C35523949   2.813   3.636   6.394 -0.0680  0.1340  0.2155
   48MOL   C35623950   2.852   3.673   6.249  0.2594  0.5484  0.6447
   48MOL   C35723951   2.808   3.573   6.155 -0.4474 -0.9212 -0.8601
   48MOL   C35823952   2.823   3.630   6.012  0.5849 -0.2511  0.3009
   48MOL   C35923953   2.823   3.520   5.905 -0.4533 -0.7539  1.2031
   48MOL   C36023954   2.694   3.445   5.890 -0.3298 -0.0778 -0.5792
   48MOL   H36123955   2.596   3.824   6.550 -2.6931 -2.3994 -0.7167
   48MOL   H36223956   2.732   3.773   6.647  0.0408 -0.3077  1.5716
   48MOL   H36323957   2.689   3.546   6.581  2.4695  1.5013 -0.1891
   48MOL   H36423958   2.850   3.537   6.420  0.3123  0.7136  1.9999
   48MOL   H36523959   2.855   3.705   6.468 -0.4488 -0.6689  1.1902
   48MOL   H36623960   2.956   3.701   6.232  0.3077 -1.2099 -2.2800
   48MOL   H36723961   2.804   3.771   6.244  1.0335  0.9072  0.3423
   48MOL   H36823962   2.874   3.488   6.172 -0.1062 -0.4739  0.0670
   48MOL   H36923963   2.707   3.539   6.180  0.4929 -2.0847  1.4886
   48MOL   H37023964   2.751   3.707   5.986 -2.5888 -3.1453  0.0689
   48MOL   H37123965   2.920   3.679   5.999  0.4116 -0.3687 -1.5931
   48MOL   H37223966   2.848   3.571   5.812  0.9339 -0.8553  1.5154
   48MOL   H37323967   2.900   3.444   5.918  1.0004  0.7466  1.4560
   48MOL   H37423968   2.600   3.501   5.893 -0.3452 -0.1573  1.0265
   48MOL   H37523969   2.689   3.387   5.798 -0.0753  0.6853 -1.0766
   48MOL   H37623970   2.683   3.384   5.980  1.2367 -2.0811 -1.7101
   48MOL   C37723971   2.475   3.565   6.517 -0.9501 -0.2812  0.1013
   48MOL   C37823972   2.463   3.435   6.431  0.1536  0.3534 -0.1254
   48MOL   O37923973   2.328   3.418   6.389  0.2176 -0.4441  0.5440
   48MOL   C38023974   2.291   3.490   6.278  0.0341 -0.0769 -0.2643
   48MOL   C38123975   2.144   3.526   6.293 -0.4228 -0.1663  0.5144
   48MOL   C38223976   2.086   3.597   6.168 -0.1781  0.1838 -0.0275
   48MOL   C38323977   2.038   3.501   6.059 -0.3110  0.0807  0.0511
   48MOL   C38423978   1.896   3.462   6.088 -0.1732  0.1752  0.5350
   48MOL   C38523979   1.837   3.380   5.971 -0.4913  0.0264  0.4773
   48MOL   H38623980   2.430   3.547   6.614  0.3749  1.3403  1.0298
   48MOL   H38723981   2.415   3.641   6.467 -1.1572 -2.5573 -3.2703
   48MOL   H38823982   2.523   3.447   6.340 -0.3077 -1.0662 -0.6288
   48MOL   H38923983   2.318   3.431   6.190  1.4160 -0.7512  0.6041
   48MOL   H39023984   2.347   3.584   6.272 -0.0226 -0.0357 -0.1513
   48MOL   H39123985   2.144   3.597   6.376 -1.9794 -1.1919  1.4138
   48MOL   H39223986   2.079   3.440   6.311 -0.4961 -0.3443 -0.6048
   48MOL   H39323987   2.006   3.662   6.201  0.5858  0.8668  0.5038
   48MOL   H39423988   2.165   3.658   6.124  0.3120 -0.2469  0.2338
   48MOL   H39523989   2.055   3.550   5.963  0.8221 -2.0742 -0.8837
   48MOL   H39623990   2.091   3.406   6.051 -0.1367  0.1295  0.6416
   48MOL   H39723991   1.899   3.409   6.183  1.9661 -0.9573 -0.1290
   48MOL   H39823992   1.833   3.550   6.101 -1.0371 -0.1797 -1.0240
   48MOL   H39923993   1.802   3.442   5.888 -1.0684  1.8863  2.0770
   48MOL   H40023994   1.905   3.310   5.923 -0.8626  0.0967 -0.1676
   48MOL   H40123995   1.756   3.317   6.008 -1.2947 -0.2270 -1.6356
   48MOL   C40223996   2.490   3.292   6.493  0.7845  0.2690  0.1270
   48MOL   C40323997   2.479   3.177   6.388  0.1022  0.5976 -0.3923
   48MOL   O40423998   2.438   3.056   6.458 -0.7419 -0.1692  0.0268
   48MOL   C40523999   2.300   3.054   6.492 -0.2393  0.1587  0.7551
   48MOL   C40624000   2.266   2.919   6.557  0.2992 -0.6861 -0.2584
   48MOL   C40724001   2.335   2.797   6.484  0.3965 -0.4967 -0.1177
   48MOL   C40824002   2.287   2.653   6.520  0.4018 -0.0132  0.3126
   48MOL   C40924003   2.376   2.545   6.466  0.4552 -0.0172 -0.1930
   48MOL   C41024004   2.337   2.408   6.514  0.2193 -0.5994 -0.5772
   48MOL   H41124005   2.423   3.283   6.578  2.2091  2.0682  1.4997
   48MOL   H41224006   2.588   3.285   6.540  0.2155  0.5278  1.3715
   48MOL   H41324007   2.392   3.192   6.324 -1.1086 -0.6492  0.9316
   48MOL   H41424008   2.245   3.053   6.398  0.0887  0.0948  0.5619
   48MOL   H41524009   2.278   3.145   6.549 -0.8867 -0.9277  2.2612
   48MOL   H41624010   2.161   2.890   6.551  0.5838 -1.7477 -0.1416
   48MOL   H41724011   2.282   2.915   6.665 -4.3784 -0.7545  0.5563
   48MOL   H41824012   2.340   2.821   6.377 -0.9037  1.5814  0.2542
   48MOL   H41924013   2.439   2.800   6.516  0.6191  1.3562 -0.9435
   48MOL   H42024014   2.287   2.642   6.629  0.7664  1.2084  0.4427
   48MOL   H42124015   2.181   2.635   6.508 -0.3672  2.4177  2.8804
   48MOL   H42224016   2.381   2.553   6.357 -0.4662  0.5591 -0.1976
   48MOL   H42324017   2.476   2.561   6.507 -0.0515 -1.2474  1.5183
   48MOL   H42424018   2.418   2.337   6.498  0.6372 -0.2989  0.2148
   48MOL   H42524019   2.304   2.406   6.618 -0.5371 -0.7199 -0.8161
   48MOL   H42624020   2.245   2.378   6.464  1.3229 -0.1775 -2.9186
   48MOL   C42724021   2.604   3.158   6.301  0.5649  0.6496 -0.0153
   48MOL   C42824022   2.580   3.071   6.180  0.0580  1.1011  0.1770
   48MOL   O42924023   2.511   3.132   6.074 -0.1247 -0.8693 -0.1128
   48MOL   C43024024   2.422   3.056   6.001  0.3758 -0.4169 -0.6889
   48MOL   C43124025   2.334   3.159   5.925  0.6289  0.7788  0.1334
   48MOL   C43224026   2.399   3.235   5.810 -0.3018  0.2234 -0.0565
   48MOL   C43324027   2.293   3.327   5.739  0.1352  0.6636  0.0781
   48MOL   C43424028   2.349   3.381   5.609 -0.5857 -0.1636  0.1198
   48MOL   C43524029   2.318   3.303   5.486  0.4730 -0.2031 -0.3046
   48MOL   H43624030   2.637   3.256   6.266  0.1348  0.8266  0.0647
   48MOL   H43724031   2.677   3.106   6.362 -0.1543  1.2945  1.4437
   48MOL   H43824032   2.513   2.993   6.218  1.8021  0.1046  1.3150
   48MOL   H43924033   2.355   2.999   6.066  0.3036  0.9419  0.4338
   48MOL   H44024034   2.478   2.990   5.934  1.0402 -1.1125  0.5252
   48MOL   H44124035   2.275   3.224   5.990  1.8338  0.4818  1.5568
   48MOL   H44224036   2.261   3.097   5.872  0.6725  1.0840 -0.2808
   48MOL   H44324037   2.468   3.310   5.852  0.5873 -0.3019 -0.5678
   48MOL   H44424038   2.449   3.169   5.740 -1.2527 -0.3246 -0.2245
   48MOL   H44524039   2.207   3.268   5.707 -0.3546  0.8015  1.1030
   48MOL   H44624040   2.244   3.398   5.806 -2.1538 -1.6993  0.9885
   48MOL   H44724041   2.304   3.479   5.589  0.1946  0.8845  3.2397
   48MOL   H44824042   2.450   3.414   5.630  0.8057 -3.5835 -0.8922
   48MOL   H44924043   2.353   3.202   5.506  1.7651  0.1735 -0.5992
   48MOL   H45024044   2.212   3.298   5.465  0.2548  1.2641  0.3625
   48MOL   H45124045   2.364   3.339   5.394 -1.9764 -0.3763 -1.6297
   48MOL   C45224046   2.700   2.997   6.127 -0.5268 -0.1089  0.1904
   48MOL   C45324047   2.783   2.903   6.222  0.6097  0.0157  0.1386
   48MOL   O45424048   2.908   2.844   6.165  0.7812  0.5587  0.2370
   48MOL   C45524049   3.013   2.931   6.120 -0.0108  0.5435 -0.5786
   48MOL   C45624050   3.134   2.836   6.086 -1.0361  0.1305 -0.5495
   48MOL   C45724051   3.119   2.771   5.947  0.1735  0.2875  1.0427
   48MOL   C45824052   3.237   2.682   5.924  0.0800 -0.0221 -0.5595
   48MOL   C45924053   3.242   2.614   5.785 -0.5816  0.5522 -0.1844
   48MOL   C46024054   3.370   2.527   5.771 -0.8784  0.4534  0.0291
   48MOL   H46124055   2.668   2.946   6.036 -1.2962  1.1414 -0.2504
   48MOL   H46224056   2.766   3.078   6.097 -0.2838 -1.0642 -1.9429
   48MOL   H46324057   2.822   2.978   6.291  1.1543  0.1055 -0.2577
   48MOL   H46424058   3.036   3.005   6.195  0.1366  2.1443 -2.1678
   48MOL   H46524059   2.983   2.994   6.036  0.8464  0.3087 -1.0696
   48MOL   H46624060   3.151   2.760   6.162  1.0860  1.9517  0.8468
   48MOL   H46724061   3.222   2.901   6.083 -2.5327  2.3248  1.0264
   48MOL   H46824062   3.030   2.708   5.938 -0.2926  1.1834 -0.8053
   48MOL   H46924063   3.094   2.851   5.877  0.9840 -0.4020 -0.0346
   48MOL   H47024064   3.321   2.751   5.921 -0.8838  1.2036  0.0014
   48MOL   H47124065   3.245   2.611   6.007  0.9581  1.2420  0.4615
   48MOL   H47224066   3.163   2.540   5.772  0.5205 -0.8481  0.8966
   48MOL   H47324067   3.225   2.680   5.700 -1.4147 -0.2242 -0.6273
   48MOL   H47424068   3.461   2.584   5.754 -1.4265  0.5640 -2.8544
   48MOL   H47524069   3.380   2.451   5.849  3.8431  0.3552 -0.5218
   48MOL   H47624070   3.369   2.464   5.681 -0.9280  1.1510 -0.4639
   48MOL   C47724071   2.698   2.789   6.281 -0.3796 -0.0168 -0.0642
   48MOL   C47824072   2.657   2.672   6.178 -0.1378 -0.5199 -0.3755
   48MOL   O47924073   2.534   2.708   6.110  0.0736  0.6502  0.4351
   48MOL   C48024074   2.488   2.593   6.035 -0.1670 -0.2274  0.5027
   48MOL   C48124075   2.374   2.636   5.944 -0.0526  0.3361  0.4956
   48MOL   C48224076   2.405   2.704   5.804  0.9502 -0.1537 -0.2337
   48MOL   C48324077   2.281   2.769   5.739 -0.1351 -0.0277  0.3064
   48MOL   C48424078   2.317   2.861   5.622 -0.5625 -0.1580  0.7169
   48MOL   C48524079   2.207   2.944   5.568  0.3301  0.2297 -0.0415
   48MOL   H48624080   2.753   2.756   6.369  0.0087  1.5795  0.3193
   48MOL   H48724081   2.607   2.835   6.321  0.6446  1.5294  0.5545
   48MOL   H48824082   2.741   2.663   6.109 -0.9684  0.8682 -1.5970
   48MOL   H48924083   2.451   2.521   6.108  1.1953  1.0373  2.4894
   48MOL   H49024084   2.567   2.537   5.984 -0.8970  0.7455 -1.7340
   48MOL   H49124085   2.310   2.698   6.006 -0.8305 -0.6511  0.6805
   48MOL   H49224086   2.301   2.555   5.943 -0.3028  0.5536 -2.0663
   48MOL   H49324087   2.489   2.771   5.816  0.0058  0.6869  1.8287
   48MOL   H49424088   2.438   2.623   5.738 -0.7028 -0.9029 -0.1683
   48MOL   H49524089   2.203   2.694   5.725  0.0219  0.0961 -1.3661
   48MOL   H49624090   2.242   2.835   5.816  2.9125 -0.0263  1.9410
   48MOL   H49724091   2.387   2.932   5.668 -1.8265  0.6427  1.4151
   48MOL   H49824092   2.380   2.820   5.543  0.4107  1.1333  0.8001
   48MOL   H49924093   2.246   3.000   5.482  2.4918 -0.9252  0.1503
   48MOL   H50024094   2.119   2.887   5.539  0.3552 -0.4886  1.2934
   48MOL   H50124095   2.184   3.015   5.648 -2.4375  0.5084 -1.0224
   48MOL   H50224096   2.650   2.578   6.232 -0.2728 -1.4739 -2.0163
   49MOL     C124097   5.529   4.657   4.761 -0.2452  0.7705 -0.0128
   49MOL     C224098   5.489   4.589   4.888 -0.5056 -0.4331  0.0389
   49MOL     O324099   5.599   4.611   4.977  0.2509 -0.1417  0.2601
   49MOL     C424100   5.615   4.739   5.034 -0.0503 -0.6178 -0.3623
   49MOL     C524101   5.759   4.770   5.088 -0.0686  0.1485  0.3792
   49MOL     C624102   5.785   4.902   5.164  0.4631 -0.8972  0.0475
   49MOL     C724103   5.921   4.901   5.230 -0.8387  0.5793  0.1770
   49MOL     C824104   5.925   4.829   5.365  0.0828  0.0837  0.0792
   49MOL     C924105   6.064   4.818   5.427  0.2303  0.2723 -0.0987
   49MOL    H1024106   5.442   4.642   4.698  0.2007 -0.8860 -0.2486
   49MOL    H1124107   5.559   4.760   4.780  1.4910  0.1160  1.0051
   49MOL    H1224108   5.397   4.630   4.929 -2.3051 -1.5741 -2.7024
   49MOL    H1324109   5.548   4.759   5.119  1.2157 -2.5565  1.1336
   49MOL    H1424110   5.582   4.821   4.970 -0.0152  0.0602  0.4781
   49MOL    H1524111   5.830   4.773   5.006  1.3276 -0.2198  1.5450
   49MOL    H1624112   5.795   4.694   5.157 -0.0916  0.3265  0.5888
   49MOL    H1724113   5.774   4.991   5.102 -1.7311 -1.1915 -0.0182
   49MOL    H1824114   5.704   4.920   5.235 -1.2558  1.0071 -2.3158
   49MOL    H1924115   5.999   4.870   5.160 -1.3401  1.4681 -0.7933
   49MOL    H2024116   5.921   5.006   5.258 -0.8245  0.5656  0.2273
   49MOL    H2124117   5.893   4.725   5.356 -0.0386  0.1192  0.1091
   49MOL    H2224118   5.846   4.857   5.434 -0.3102  2.7975 -1.4377
   49MOL    H2324119   6.119   4.912   5.420  0.3068  0.1026 -1.8140
   49MOL    H2424120   6.071   4.769   5.524  0.3564 -1.0578 -0.7759
   49MOL    H2524121   6.119   4.751   5.361  1.5358  1.5135 -0.3087
   49MOL    H2624122   5.615   4.602   4.723 -1.2436 -1.1599  0.4546
   49MOL    C2724123   5.476   4.439   4.872 -0.1590  0.3987 -0.2506
   49MOL    C2824124   5.372   4.386   4.769  0.1241 -0.3653 -0.5478
   49MOL    O2924125   5.389   4.247   4.770  0.4909  0.1809 -0.0561
   49MOL    C3024126   5.432   4.196   4.637 -0.1389  0.2241 -0.4317
   49MOL    C3124127   5.471   4.054   4.659 -0.1881 -0.5659  0.1458
   49MOL    C3224128   5.609   4.029   4.730 -0.1190  0.1099 -0.1856
   49MOL    C3324129   5.628   3.883   4.758  0.2687  0.7407  0.0753
   49MOL    C3424130   5.743   3.851   4.848 -0.0737 -0.0542  0.6714
   49MOL    C3524131   5.750   3.708   4.889  0.4340 -0.0726 -0.0969
   49MOL    H3624132   5.570   4.396   4.838 -0.6109 -0.0627 -0.9295
   49MOL    H3724133   5.455   4.385   4.964 -1.8797  0.7146 -0.4273
   49MOL    H3824134   5.390   4.427   4.670 -1.2775  1.6321 -0.0130
   49MOL    H3924135   5.519   4.255   4.609 -1.0612  1.4503 -0.7817
   49MOL    H4024136   5.347   4.217   4.572 -0.2578  1.3116  0.0598
   49MOL    H4124137   5.487   4.005   4.563 -1.1918  0.4328 -0.5397
   49MOL    H4224138   5.390   3.998   4.707 -0.7909 -0.5754 -0.8678
   49MOL    H4324139   5.696   4.065   4.676  0.0385 -2.1632 -1.4872
   49MOL    H4424140   5.613   4.081   4.826  2.0774 -1.4139  0.5818
   49MOL    H4524141   5.534   3.855   4.804  1.1580  0.2225  1.6243
   49MOL    H4624142   5.654   3.826   4.668  1.0399  2.5343 -0.8748
   49MOL    H4724143   5.835   3.884   4.799 -1.8602  1.6555 -1.6399
   49MOL    H4824144   5.737   3.914   4.937 -4.5330  0.7180 -0.0566
   49MOL    H4924145   5.660   3.663   4.931 -0.7992  2.4587  0.0669
   49MOL    H5024146   5.778   3.647   4.803 -0.0907  0.7866 -0.8831
   49MOL    H5124147   5.837   3.689   4.952  2.4283  2.3539 -2.0161
   49MOL    C5224148   5.220   4.405   4.816  0.0077 -0.2309  0.5172
   49MOL    C5324149   5.115   4.361   4.711 -0.3537  0.1547  0.0257
   49MOL    O5424150   4.983   4.382   4.761  0.1957 -0.6353 -0.4071
   49MOL    C5524151   4.926   4.282   4.841  0.0540  0.1250  0.1032
   49MOL    C5624152   4.785   4.327   4.862 -0.1522 -0.4910 -0.5858
   49MOL    C5724153   4.714   4.243   4.975 -0.2984 -0.1268 -0.8787
   49MOL    C5824154   4.568   4.262   4.993 -0.5894  0.4040 -0.2700
   49MOL    C5924155   4.501   4.200   5.122 -0.0690 -0.0081 -0.4652
   49MOL    C6024156   4.362   4.261   5.140  0.0173 -0.0459 -1.0921
   49MOL    H6124157   5.195   4.510   4.834  0.3307 -0.2956  1.3647
   49MOL    H6224158   5.211   4.358   4.914  2.9707  1.4376  1.6821
   49MOL    H6324159   5.125   4.254   4.691  1.0935  0.5406 -1.4561
   49MOL    H6424160   4.978   4.283   4.937  0.7143  1.7319 -0.2474
   49MOL    H6524161   4.922   4.184   4.793  1.6665 -0.5982  1.3863
   49MOL    H6624162   4.740   4.321   4.763  0.7286 -0.4861 -0.9904
   49MOL    H6724163   4.775   4.430   4.897 -0.5156 -0.4271 -0.8630
   49MOL    H6824164   4.721   4.137   4.950 -0.3300  0.1466 -2.0601
   49MOL    H6924165   4.764   4.262   5.070 -2.1919  0.8932 -0.0542
   49MOL    H7024166   4.543   4.368   5.002  0.8077  0.7090  0.1309
   49MOL    H7124167   4.519   4.217   4.907 -0.3368 -1.3320  0.4593
   49MOL    H7224168   4.513   4.092   5.118 -0.0643 -0.0362  0.2828
   49MOL    H7324169   4.569   4.227   5.203  0.3406  1.7421 -1.3609
   49MOL    H7424170   4.328   4.220   5.234 -1.6902  0.0979 -1.6415
   49MOL    H7524171   4.354   4.369   5.141  1.4313  0.0723 -0.8667
   49MOL    H7624172   4.299   4.219   5.062 -1.9587  0.6211  0.1252
   49MOL    C7724173   5.121   4.440   4.580 -0.3378  0.2383  0.5904
   49MOL    C7824174   5.040   4.400   4.458  0.0467 -0.2511  0.2827
   49MOL    O7924175   5.084   4.482   4.352  0.5256 -0.0162 -0.6789
   49MOL    C8024176   5.202   4.445   4.281  0.1894  0.6493 -0.2393
   49MOL    C8124177   5.202   4.531   4.159  0.5346  0.5847 -0.0861
   49MOL    C8224178   5.345   4.568   4.121 -0.5992 -0.1293 -0.0463
   49MOL    C8324179   5.353   4.684   4.030 -0.5820 -0.1054  0.7949
   49MOL    C8424180   5.492   4.724   3.972 -0.3746 -0.8490  0.9900
   49MOL    C8524181   5.486   4.817   3.858  0.3830 -0.2785 -0.0727
   49MOL    H8624182   5.219   4.407   4.544 -0.1948 -0.0818  1.2637
   49MOL    H8724183   5.123   4.547   4.600  0.1960  0.3665 -0.1289
   49MOL    H8824184   5.070   4.298   4.434  2.4419  0.0314  1.9315
   49MOL    H8924185   5.179   4.344   4.249 -2.0365 -0.1198  3.4843
   49MOL    H9024186   5.291   4.426   4.340  1.3151  0.9898 -1.8008
   49MOL    H9124187   5.149   4.625   4.177 -1.4350 -0.9542  2.6245
   49MOL    H9224188   5.153   4.482   4.074  0.6033  2.9513 -1.5422
   49MOL    H9324189   5.397   4.601   4.211 -2.4628  1.4861  0.5044
   49MOL    H9424190   5.387   4.477   4.079  0.2185  0.7918 -1.2410
   49MOL    H9524191   5.284   4.665   3.948 -1.5116 -2.9319  2.1707
   49MOL    H9624192   5.322   4.769   4.092 -1.4170  0.3292 -0.1942
   49MOL    H9724193   5.554   4.763   4.052  2.5120 -2.2882 -0.4876
   49MOL    H9824194   5.542   4.636   3.932  2.2967  1.2691 -0.4746
   49MOL    H9924195   5.450   4.775   3.764  0.0418 -0.5753  0.1882
   49MOL   H10024196   5.446   4.916   3.880  2.0020  0.2499  0.5804
   49MOL   H10124197   5.587   4.834   3.821 -0.3160  0.1746 -1.8090
   49MOL   C10224198   4.888   4.419   4.473 -0.0327  0.0188  0.1796
   49MOL   C10324199   4.810   4.344   4.358 -0.8169  0.3442 -0.2581
   49MOL   O10424200   4.801   4.203   4.397  0.1466 -0.7975  0.0675
   49MOL   C10524201   4.874   4.120   4.318  0.5867 -0.1109 -0.0750
   49MOL   C10624202   4.902   3.986   4.375  0.1761 -0.3190  0.3047
   49MOL   C10724203   4.988   3.994   4.505  0.0867 -0.0842  0.0689
   49MOL   C10824204   5.044   3.855   4.539  0.1576 -0.1567  0.8772
   49MOL   C10924205   5.162   3.859   4.643 -0.6759 -0.4064  0.2219
   49MOL   C11024206   5.214   3.719   4.671  0.0076 -0.0585  0.0101
   49MOL   H11124207   4.829   4.388   4.560  0.9317 -2.2949  0.0428
   49MOL   H11224208   4.869   4.524   4.449 -0.7797 -0.1202  0.1584
   49MOL   H11324209   4.850   4.352   4.257 -2.8926 -0.1865 -1.1480
   49MOL   H11424210   4.967   4.164   4.282 -0.0821  1.6552  0.3162
   49MOL   H11524211   4.800   4.101   4.240 -0.0730  0.2681  0.4539
   49MOL   H11624212   4.943   3.920   4.298  2.8832  0.0237  1.3874
   49MOL   H11724213   4.805   3.944   4.401 -0.0213  1.0157  1.7483
   49MOL   H11824214   5.066   4.070   4.502  1.2023 -1.1983  0.2585
   49MOL   H11924215   4.916   4.031   4.578  2.2151  0.4396  1.9811
   49MOL   H12024216   4.967   3.795   4.588  1.3259 -2.7505 -0.3628
   49MOL   H12124217   5.074   3.792   4.456 -4.3813 -1.9681  0.4466
   49MOL   H12224218   5.232   3.929   4.597 -0.3515 -0.8542  0.0322
   49MOL   H12324219   5.122   3.904   4.734  1.5179  0.6620  0.6877
   49MOL   H12424220   5.139   3.648   4.705 -0.1779  0.3964  0.5618
   49MOL   H12524221   5.258   3.682   4.578 -0.0631 -0.6118  0.1952
   49MOL   H12624222   5.304   3.727   4.732  1.0092  0.0590 -1.4397
   49MOL   C12724223   4.672   4.397   4.342  0.4843  0.4099 -0.2520
   49MOL   C12824224   4.594   4.346   4.219 -0.2037 -0.0218  0.2946
   49MOL   O12924225   4.487   4.432   4.205  0.6364  0.5949  0.2895
   49MOL   C13024226   4.508   4.556   4.143  0.1955  0.1373  0.1591
   49MOL   C13124227   4.375   4.633   4.146 -0.3686  0.1645 -0.3683
   49MOL   C13224228   4.262   4.568   4.076 -0.6197  0.4054  0.0215
   49MOL   C13324229   4.131   4.658   4.078 -0.3185  0.4130 -0.5091
   49MOL   C13424230   4.065   4.665   4.218  0.1236 -0.7615  0.2258
   49MOL   C13524231   3.914   4.674   4.205  0.1841  0.2581 -0.0765
   49MOL   H13624232   4.605   4.386   4.428 -1.1238 -1.0696 -1.6673
   49MOL   H13724233   4.690   4.501   4.316 -2.2521  0.0049 -4.1212
   49MOL   H13824234   4.661   4.347   4.132 -0.6253 -0.9082 -0.0516
   49MOL   H13924235   4.522   4.535   4.037 -2.7534 -3.1665  0.3033
   49MOL   H14024236   4.590   4.614   4.185  0.1563 -1.2403  2.2173
   49MOL   H14124237   4.389   4.727   4.092 -0.5865  1.0068  1.0278
   49MOL   H14224238   4.345   4.651   4.249  1.4777 -1.4813  0.4829
   49MOL   H14324239   4.282   4.555   3.970 -1.5194 -3.3101  0.2341
   49MOL   H14424240   4.250   4.467   4.116  0.3007 -0.0169 -0.7679
   49MOL   H14524241   4.160   4.760   4.050 -0.8533  0.6970 -0.0438
   49MOL   H14624242   4.059   4.627   4.003  0.2888  0.4294 -1.0973
   49MOL   H14724243   4.085   4.566   4.260 -0.5519 -1.1866 -0.4560
   49MOL   H14824244   4.106   4.745   4.280 -0.9242  1.5816 -2.0537
   49MOL   H14924245   3.871   4.594   4.144  0.2011  2.3382 -2.8952
   49MOL   H15024246   3.879   4.669   4.308 -0.1574 -1.7284 -0.2602
   49MOL   H15124247   3.894   4.774   4.169  1.6053  0.0977 -1.3362
   49MOL   C15224248   4.532   4.203   4.246 -0.2008 -0.0869  0.4680
   49MOL   C15324249   4.499   4.121   4.122 -0.0178  0.6119  0.1247
   49MOL   O15424250   4.426   4.002   4.165  0.4249  0.5313 -0.5888
   49MOL   C15524251   4.511   3.899   4.218  0.1003 -0.7731  0.5725
   49MOL   C15624252   4.422   3.793   4.272 -0.4076  0.8027 -1.1125
   49MOL   C15724253   4.498   3.664   4.310  0.3221 -0.3128  0.2930
   49MOL   C15824254   4.413   3.574   4.399  0.0126 -0.1558  0.1724
   49MOL   C15924255   4.481   3.442   4.430 -0.0653 -0.1148 -0.1923
   49MOL   C16024256   4.393   3.351   4.515  0.1749 -0.1327  0.4319
   49MOL   H16124257   4.587   4.141   4.317 -0.1842  0.6628  1.1213
   49MOL   H16224258   4.444   4.219   4.307 -1.3559  2.4236 -1.7514
   49MOL   H16324259   4.595   4.085   4.085 -0.0613  0.7792 -0.1507
   49MOL   H16424260   4.591   3.930   4.286  1.0076 -1.4678 -0.1838
   49MOL   H16524261   4.560   3.855   4.132  0.8187 -1.4470  1.3234
   49MOL   H16624262   4.333   3.772   4.212  0.2596  0.8065 -2.1208
   49MOL   H16724263   4.382   3.831   4.366  0.5978 -1.2276  0.1836
   49MOL   H16824264   4.516   3.609   4.217 -1.9736  0.7814 -0.8483
   49MOL   H16924265   4.598   3.684   4.347  0.0821  0.6423  0.4292
   49MOL   H17024266   4.389   3.623   4.494  1.5360 -1.6247  1.3524
   49MOL   H17124267   4.319   3.565   4.345  0.7077  0.6522 -1.1794
   49MOL   H17224268   4.510   3.379   4.346  2.2354 -1.1283  1.3167
   49MOL   H17324269   4.569   3.460   4.491 -0.7501  1.2632  0.4153
   49MOL   H17424270   4.449   3.259   4.533 -0.8620 -1.1711 -1.4746
   49MOL   H17524271   4.364   3.399   4.608  2.3123  2.0731  0.0027
   49MOL   H17624272   4.299   3.341   4.461  0.6845  0.2995 -0.5618
   49MOL   C17724273   4.418   4.205   4.020  0.1907 -0.1603 -0.1660
   49MOL   C17824274   4.375   4.140   3.890 -0.0503 -0.6111  0.1139
   49MOL   O17924275   4.328   4.242   3.800  0.5863  0.4209  0.6325
   49MOL   C18024276   4.194   4.263   3.806  0.2820  0.7254 -0.5685
   49MOL   C18124277   4.162   4.332   3.672  1.2614 -0.0086  0.3583
   49MOL   C18224278   4.025   4.413   3.683 -0.5899  0.1764 -1.2385
   49MOL   C18324279   3.906   4.334   3.722 -0.3843  0.0957  1.0245
   49MOL   C18424280   3.793   4.439   3.714 -0.3913 -0.0794 -0.7973
   49MOL   C18524281   3.658   4.384   3.773  0.6751  0.8014  0.2651
   49MOL   H18624282   4.325   4.248   4.057 -0.3555 -0.1631 -1.5273
   49MOL   H18724283   4.465   4.298   3.989  0.0658  0.1928  0.6784
   49MOL   H18824284   4.297   4.068   3.916 -2.1444  1.5705  0.0242
   49MOL   H18924285   4.185   4.336   3.886  1.4610  0.5034 -0.2316
   49MOL   H19024286   4.123   4.182   3.820  0.0057  0.8877 -1.0155
   49MOL   H19124287   4.156   4.251   3.599  0.1200 -1.4410  1.9979
   49MOL   H19224288   4.236   4.405   3.641  1.5963 -0.3530  0.3463
   49MOL   H19324289   4.036   4.498   3.751 -2.4513 -0.3733 -0.2275
   49MOL   H19424290   4.007   4.457   3.585  0.4643  0.7416 -1.1870
   49MOL   H19524291   3.886   4.251   3.655 -1.8032  0.8889  0.4441
   49MOL   H19624292   3.922   4.299   3.824 -1.7597  0.0723  1.2401
   49MOL   H19724293   3.813   4.537   3.758 -0.1216 -0.1062 -0.8552
   49MOL   H19824294   3.772   4.468   3.611  2.0336 -0.1628 -1.3568
   49MOL   H19924295   3.630   4.289   3.728 -0.9676  0.8522  1.1281
   49MOL   H20024296   3.654   4.358   3.879 -2.8026 -0.3517 -0.0778
   49MOL   H20124297   3.579   4.454   3.745 -0.2002  0.2204  1.2312
   49MOL   C20224298   4.488   4.074   3.818  0.1732  0.6774  0.1675
   49MOL   C20324299   4.439   3.980   3.703 -0.7186  0.5516  0.5205
   49MOL   O20424300   4.386   3.861   3.757  0.3005  0.2797  0.2594
   49MOL   C20524301   4.251   3.841   3.707  0.2983  0.0246  0.1582
   49MOL   C20624302   4.200   3.714   3.767  0.8360  0.1211  0.2737
   49MOL   C20724303   4.199   3.708   3.924 -0.1849  0.2851 -0.2087
   49MOL   C20824304   4.159   3.578   3.977 -0.0528  0.2944 -0.6429
   49MOL   C20924305   4.267   3.473   3.991 -0.6353 -1.0129 -0.1841
   49MOL   C21024306   4.195   3.348   4.041  0.2016  0.5845  0.2186
   49MOL   H21124307   4.554   4.157   3.794 -0.5221  1.9635  2.5194
   49MOL   H21224308   4.550   4.012   3.883  0.9977  1.8283  0.4872
   49MOL   H21324309   4.377   4.047   3.643  0.5060 -0.7088 -2.2350
   49MOL   H21424310   4.241   3.826   3.600  0.3269 -0.2043  0.1868
   49MOL   H21524311   4.184   3.922   3.734 -0.7925 -0.7109 -0.2799
   49MOL   H21624312   4.258   3.638   3.715 -0.0801  0.6361 -1.5828
   49MOL   H21724313   4.098   3.707   3.727  1.1587 -1.0965 -0.3698
   49MOL   H21824314   4.289   3.749   3.969 -0.4439  2.1125 -1.2887
   49MOL   H21924315   4.121   3.772   3.965 -0.3694  1.3101 -2.0930
   49MOL   H22024316   4.107   3.592   4.073  0.1580 -0.5920 -0.3893
   49MOL   H22124317   4.089   3.542   3.902 -1.7808  1.7566  0.2116
   49MOL   H22224318   4.317   3.458   3.896  1.8218 -3.6461  1.4746
   49MOL   H22324319   4.344   3.497   4.064 -2.1708  1.5430  0.6548
   49MOL   H22424320   4.271   3.270   4.045 -1.8756 -1.5798 -1.0197
   49MOL   H22524321   4.143   3.344   4.137  0.0822 -1.0608  0.0981
   49MOL   H22624322   4.125   3.320   3.962  0.8615 -1.0101  0.1955
   49MOL   C22724323   4.563   3.951   3.617  0.3085 -0.0468  0.3842
   49MOL   C22824324   4.532   3.866   3.495 -0.2498 -1.3502  0.5781
   49MOL   O22924325   4.477   3.956   3.389 -0.2176 -0.1245  0.5697
   49MOL   C23024326   4.340   3.944   3.352 -0.6584 -0.1964 -0.2247
   49MOL   C23124327   4.321   4.007   3.210  0.0829 -0.2179  0.1783
   49MOL   C23224328   4.300   4.159   3.204  0.1959  0.6632 -0.2405
   49MOL   C23324329   4.281   4.215   3.065 -0.2732 -0.3075 -0.0195
   49MOL   C23424330   4.239   4.368   3.055 -0.3269  0.0749  0.2849
   49MOL   C23524331   4.093   4.390   3.087 -0.7144  0.0806  0.8770
   49MOL   H23624332   4.615   4.041   3.583  0.3100  0.3309  1.3809
   49MOL   H23724333   4.627   3.897   3.687 -1.5435 -1.2660  1.1621
   49MOL   H23824334   4.460   3.786   3.511  0.6118 -2.5665 -1.3997
   49MOL   H23924335   4.267   3.987   3.420 -1.7899 -2.3077 -0.0412
   49MOL   H24024336   4.317   3.837   3.348  0.1491 -0.4113  0.8273
   49MOL   H24124337   4.244   3.948   3.160  0.4238 -0.7371  0.2681
   49MOL   H24224338   4.407   3.979   3.149 -0.6925 -1.6652 -0.2727
   49MOL   H24324339   4.217   4.192   3.267  0.8363  1.7967  0.0182
   49MOL   H24424340   4.379   4.209   3.260 -1.7413  1.3130  2.0418
   49MOL   H24524341   4.372   4.210   3.005 -0.1797  0.9144 -0.0016
   49MOL   H24624342   4.203   4.157   3.017  0.0071 -1.1066  0.4819
   49MOL   H24724343   4.310   4.434   3.106  0.1117 -0.1572 -0.0143
   49MOL   H24824344   4.262   4.398   2.952 -4.0944 -1.2759 -1.0364
   49MOL   H24924345   4.060   4.377   3.190  0.3006 -2.8807  0.8758
   49MOL   H25024346   4.054   4.490   3.071  1.3937  0.5605 -1.5124
   49MOL   H25124347   4.016   4.334   3.034  0.2853  0.7761 -1.3488
   49MOL   C25224348   4.658   3.797   3.441 -0.2704  0.1586 -0.2747
   49MOL   C25324349   4.638   3.702   3.323  0.2075 -0.5628 -0.7367
   49MOL   O25424350   4.569   3.588   3.372 -0.5248 -0.1705 -0.3405
   49MOL   C25524351   4.458   3.551   3.294  0.9852  0.0500  0.4187
   49MOL   C25624352   4.377   3.426   3.352 -0.3599 -0.3433 -0.6707
   49MOL   C25724353   4.336   3.452   3.493 -0.4951  0.4451 -0.3291
   49MOL   C25824354   4.220   3.365   3.540 -0.1178  0.1120 -0.2428
   49MOL   C25924355   4.250   3.220   3.573  0.3051  0.2544 -0.0203
   49MOL   C26024356   4.350   3.193   3.691 -0.0796  0.3171 -0.0188
   49MOL   H26124357   4.732   3.876   3.423 -0.1370  0.6956  2.4304
   49MOL   H26224358   4.714   3.741   3.516 -2.1199 -0.2814  0.7956
   49MOL   H26324359   4.580   3.749   3.243  1.9592  1.6965 -0.7524
   49MOL   H26424360   4.492   3.520   3.195  0.9082 -2.3615  1.1163
   49MOL   H26524361   4.393   3.638   3.279  0.9112 -0.1211 -0.2949
   49MOL   H26624362   4.445   3.342   3.363 -0.0644 -0.0279 -0.0350
   49MOL   H26724363   4.291   3.404   3.290 -1.6613  0.0615  0.9593
   49MOL   H26824364   4.411   3.449   3.572 -0.0269  1.7894 -0.7237
   49MOL   H26924365   4.293   3.551   3.508  0.0311  0.5135  0.7844
   49MOL   H27024366   4.182   3.408   3.634  0.6346  0.4161 -0.0755
   49MOL   H27124367   4.142   3.360   3.464  0.8939 -0.8468 -1.2321
   49MOL   H27224368   4.156   3.175   3.605  1.3063 -0.9205  1.3779
   49MOL   H27324369   4.283   3.163   3.487  0.4144 -0.1700  0.3010
   49MOL   H27424370   4.310   3.210   3.791  0.5968  1.3121  0.0935
   49MOL   H27524371   4.380   3.088   3.698  2.0650  0.8852 -0.3144
   49MOL   H27624372   4.436   3.256   3.669  1.0236 -1.8382 -2.1525
   49MOL   C27724373   4.763   3.654   3.239 -0.0513  0.4262 -0.1735
   49MOL   C27824374   4.864   3.755   3.196 -0.9591 -0.5068  0.5123
   49MOL   O27924375   4.972   3.701   3.112  0.4989  0.2871 -0.2615
   49MOL   C28024376   5.076   3.630   3.177  0.4664 -0.3987 -0.3323
   49MOL   C28124377   5.040   3.488   3.234  0.1139  0.4242 -0.0634
   49MOL   C28224378   5.146   3.382   3.231  0.2431  0.1421  0.5638
   49MOL   C28324379   5.097   3.257   3.304  0.1851 -0.3054 -0.5480
   49MOL   C28424380   5.211   3.163   3.342  0.6507 -0.9548 -0.1942
   49MOL   C28524381   5.155   3.041   3.415 -0.1846 -0.0404 -0.2206
   49MOL   H28624382   4.816   3.591   3.310  0.9830  0.0209 -1.2903
   49MOL   H28724383   4.738   3.589   3.155 -0.1054 -0.2951  0.3912
   49MOL   H28824384   4.914   3.803   3.280 -1.3662  1.8545 -0.5442
   49MOL   H28924385   5.114   3.689   3.261  1.3815 -0.7493 -0.4989
   49MOL   H29024386   5.149   3.604   3.100  1.3199  1.0805 -0.0546
   49MOL   H29124387   4.944   3.445   3.205  0.5671 -0.0216 -0.8939
   49MOL   H29224388   5.005   3.509   3.336  0.2291 -0.6701  0.2092
   49MOL   H29324389   5.155   3.357   3.125 -1.1124 -1.4773  0.8160
   49MOL   H29424390   5.243   3.428   3.253 -1.0491  2.6432  1.3278
   49MOL   H29524391   5.030   3.283   3.386 -1.5509 -0.9880 -1.7257
   49MOL   H29624392   5.028   3.209   3.234 -0.6803  0.4382 -0.2093
   49MOL   H29724393   5.267   3.131   3.254  0.8218  1.1834 -0.8837
   49MOL   H29824394   5.276   3.224   3.406  0.7712  0.4446 -1.6332
   49MOL   H29924395   5.238   2.971   3.427 -0.4287 -0.1596  0.8186
   49MOL   H30024396   5.104   3.068   3.507 -0.2695 -0.5435 -0.1199
   49MOL   H30124397   5.078   2.990   3.357  0.3234 -0.5039 -0.4916
   49MOL   C30224398   4.805   3.885   3.128  0.3295  0.6042  0.1428
   49MOL   C30324399   4.887   4.008   3.174 -0.0580  0.1720 -0.0154
   49MOL   O30424400   4.829   4.125   3.110  0.0632  0.2675  0.0412
   49MOL   C30524401   4.716   4.180   3.179 -0.0082 -0.3044 -0.0511
   49MOL   C30624402   4.650   4.286   3.103  0.1153  0.6436 -0.3689
   49MOL   C30724403   4.746   4.386   3.038 -0.4005 -0.0335 -0.2755
   49MOL   C30824404   4.672   4.501   2.962 -0.0662 -0.1174 -0.5252
   49MOL   C30924405   4.594   4.610   3.049 -0.5141  0.3554 -0.2107
   49MOL   C31024406   4.559   4.737   2.967  0.0185 -0.2009  0.4420
   49MOL   H31124407   4.806   3.875   3.019 -2.2867  0.6106  0.0742
   49MOL   H31224408   4.697   3.899   3.135 -0.1683 -1.7792 -1.8084
   49MOL   H31324409   4.887   4.018   3.282  0.3484 -1.3588  0.1265
   49MOL   H31424410   4.733   4.208   3.284  1.6670  0.3510 -0.4787
   49MOL   H31524411   4.641   4.102   3.186 -0.7302  0.4885  1.1798
   49MOL   H31624412   4.568   4.339   3.150 -1.5395 -3.2000  1.3314
   49MOL   H31724413   4.603   4.236   3.019 -0.5964  0.4325  0.1528
   49MOL   H31824414   4.813   4.430   3.112 -1.7302  0.7414  0.4844
   49MOL   H31924415   4.808   4.333   2.966 -1.1978 -0.3226 -0.7564
   49MOL   H32024416   4.753   4.555   2.912 -0.4691 -2.0364 -3.4037
   49MOL   H32124417   4.618   4.462   2.875 -2.5368  1.2924  0.3098
   49MOL   H32224418   4.511   4.572   3.108 -0.5619  0.4789 -0.1983
   49MOL   H32324419   4.659   4.637   3.132 -1.2805 -1.9881  1.2004
   49MOL   H32424420   4.478   4.712   2.899  0.4973  1.3658 -0.7149
   49MOL   H32524421   4.533   4.819   3.034 -0.8707 -0.5640  0.5405
   49MOL   H32624422   4.640   4.763   2.899 -1.7703  1.7033 -1.0121
   49MOL   C32724423   5.034   4.011   3.128  0.0944 -0.8969 -0.1564
   49MOL   C32824424   5.131   4.079   3.227 -0.3828 -0.3086 -0.0877
   49MOL   O32924425   5.136   3.990   3.331  0.1475  0.3647 -0.3636
   49MOL   C33024426   5.159   4.034   3.460 -0.1335 -0.5077 -0.7142
   49MOL   C33124427   5.174   3.921   3.562  0.7113  0.5333 -0.2460
   49MOL   C33224428   5.079   3.805   3.564  0.3524 -0.6142  0.3582
   49MOL   C33324429   5.115   3.696   3.664  0.4012  0.6329 -0.3138
   49MOL   C33424430   5.028   3.573   3.653 -0.2626 -0.3429  0.1971
   49MOL   C33524431   5.041   3.469   3.766  0.5507  0.1600 -0.0791
   49MOL   H33624432   5.032   4.057   3.029  0.3397 -0.0793  0.2088
   49MOL   H33724433   5.081   3.915   3.106  1.4632 -0.3946  0.5305
   49MOL   H33824434   5.102   4.181   3.253 -0.2338 -0.2094 -0.3058
   49MOL   H33924435   5.069   4.092   3.481  0.6496  0.5111 -0.1371
   49MOL   H34024436   5.246   4.099   3.469 -0.3850 -0.5103  2.4705
   49MOL   H34124437   5.170   3.975   3.657 -0.5204 -2.5835  1.5563
   49MOL   H34224438   5.277   3.886   3.557  0.1147 -1.4796  0.9547
   49MOL   H34324439   4.976   3.832   3.587 -0.4455 -2.1017 -1.3073
   49MOL   H34424440   5.071   3.758   3.466  2.3700  0.5383 -0.3881
   49MOL   H34524441   5.211   3.655   3.631 -0.5164 -1.7228 -0.1414
   49MOL   H34624442   5.109   3.732   3.767  0.9519 -1.1831  0.3818
   49MOL   H34724443   4.923   3.601   3.650 -0.3274 -0.4924  0.9807
   49MOL   H34824444   5.042   3.528   3.554  2.0004  1.3154 -0.2825
   49MOL   H34924445   5.145   3.447   3.790  0.2578 -0.9918  0.2012
   49MOL   H35024446   4.990   3.503   3.856 -1.3786  2.9123 -2.1489
   49MOL   H35124447   4.995   3.375   3.734  2.1545 -0.7876  0.2849
   49MOL   C35224448   5.277   4.096   3.169  0.1222 -0.7689  0.2223
   49MOL   C35324449   5.282   4.181   3.041 -0.0680 -0.1579 -0.0921
   49MOL   O35424450   5.412   4.223   3.044  0.0051  0.2508  0.4059
   49MOL   C35524451   5.499   4.158   2.949 -0.3577 -0.4016 -0.0452
   49MOL   C35624452   5.647   4.203   2.962  0.5026  0.6565 -0.3392
   49MOL   C35724453   5.728   4.108   3.052  0.5422  0.7286 -0.0934
   49MOL   C35824454   5.862   4.165   3.104 -1.0591  0.4759  0.1980
   49MOL   C35924455   5.952   4.206   2.989  0.1984 -0.2430 -0.6880
   49MOL   C36024456   5.990   4.091   2.891 -0.4751 -0.0184  0.3691
   49MOL   H36124457   5.345   4.141   3.241  1.9835 -0.3792 -1.7123
   49MOL   H36224458   5.322   4.000   3.147  2.7406  0.6355 -0.8442
   49MOL   H36324459   5.258   4.113   2.960  0.0161 -0.9371  0.5293
   49MOL   H36424460   5.465   4.207   2.858  1.3772 -0.8784 -0.9592
   49MOL   H36524461   5.486   4.051   2.938  1.7244 -0.6448 -0.1850
   49MOL   H36624462   5.654   4.305   3.002  0.9210  0.1215  0.9926
   49MOL   H36724463   5.690   4.193   2.863  0.4117 -2.2958 -0.1224
   49MOL   H36824464   5.662   4.080   3.134 -0.5996  1.1748 -0.8582
   49MOL   H36924465   5.735   4.013   2.999 -0.0039 -0.3195  1.6816
   49MOL   H37024466   5.849   4.258   3.161 -3.2843 -1.1206  2.4012
   49MOL   H37124467   5.913   4.094   3.168  0.7895 -0.1182 -1.8746
   49MOL   H37224468   5.904   4.286   2.932  0.0986  2.3203  2.8286
   49MOL   H37324469   6.045   4.254   3.018  0.2408 -0.2562 -0.8008
   49MOL   H37424470   6.058   4.128   2.815 -0.4348 -1.4399 -0.2893
   49MOL   H37524471   6.052   4.020   2.945  1.1294  1.6504  0.7739
   49MOL   H37624472   5.902   4.040   2.852  0.5439  0.0629 -2.0582
   49MOL   C37724473   5.195   4.309   3.039  0.1485  0.3876  0.1206
   49MOL   C37824474   5.211   4.408   2.921 -0.2959 -0.0558  0.1306
   49MOL   O37924475   5.113   4.512   2.938 -0.2843 -0.0123 -0.1409
   49MOL   C38024476   5.144   4.612   3.026 -0.3657 -0.2206  0.0792
   49MOL   C38124477   5.015   4.693   3.062  0.5683 -0.6521 -0.1016
   49MOL   C38224478   5.041   4.829   3.131 -0.2639  0.3890  0.2657
   49MOL   C38324479   4.924   4.882   3.208 -0.0654 -0.1789  0.1368
   49MOL   C38424480   4.966   4.992   3.307  0.0914  0.2156  0.3315
   49MOL   C38524481   4.851   5.030   3.404 -0.7432  0.3303 -0.3157
   49MOL   H38624482   5.093   4.270   3.042 -0.0831  1.0324  0.7175
   49MOL   H38724483   5.212   4.355   3.136 -1.7406 -0.9604  1.1177
   49MOL   H38824484   5.310   4.453   2.928 -0.5041  0.4074  0.1151
   49MOL   H38924485   5.224   4.674   2.986  0.4084  0.2513  2.3110
   49MOL   H39024486   5.193   4.571   3.114  1.2016  0.9201 -0.2287
   49MOL   H39124487   4.953   4.631   3.126  0.8135  0.5159  1.2720
   49MOL   H39224488   4.961   4.710   2.969 -0.6037 -1.9964  0.3267
   49MOL   H39324489   5.119   4.812   3.205 -2.2166  0.5948  2.4309
   49MOL   H39424490   5.084   4.912   3.075 -0.3473  0.5391  0.4233
   49MOL   H39524491   4.850   4.931   3.144 -0.5151 -2.1183 -0.8554
   49MOL   H39624492   4.871   4.798   3.254 -1.5436  1.1111  0.8275
   49MOL   H39724493   5.057   4.962   3.358  0.1450 -0.3542 -0.0935
   49MOL   H39824494   4.997   5.072   3.239 -3.7945 -0.5704 -2.5287
   49MOL   H39924495   4.823   4.939   3.457 -1.0293  0.0736 -0.8942
   49MOL   H40024496   4.883   5.099   3.481  1.4918 -1.4360  0.3983
   49MOL   H40124497   4.773   5.081   3.347  0.8847  0.7988 -2.1668
   49MOL   C40224498   5.188   4.343   2.778  0.0219 -0.0521 -0.7497
   49MOL   C40324499   5.259   4.424   2.665  0.3888  0.2036  0.0938
   49MOL   O40424500   5.225   4.367   2.535  0.7528  0.1111 -0.5785
   49MOL   C40524501   5.095   4.396   2.482 -0.1592 -0.8309  0.6083
   49MOL   C40624502   5.103   4.306   2.355 -0.4013 -0.2790  0.7933
   49MOL   C40724503   5.096   4.154   2.381 -0.2136  0.2036  0.5039
   49MOL   C40824504   5.100   4.073   2.250  0.9379 -0.1034  0.2249
   49MOL   C40924505   5.065   3.918   2.253 -0.6057  0.0193  0.2360
   49MOL   C41024506   5.175   3.843   2.320  0.0805  0.0636 -0.4764
   49MOL   H41124507   5.081   4.334   2.761  0.1098  1.1023 -1.9254
   49MOL   H41224508   5.228   4.243   2.762 -0.4592 -0.2218 -0.9190
   49MOL   H41324509   5.211   4.522   2.672  0.5664  0.3116 -0.1950
   49MOL   H41424510   5.086   4.499   2.447  0.3739 -1.0067 -0.0556
   49MOL   H41524511   5.007   4.366   2.540 -1.2185  2.1521  0.6383
   49MOL   H41624512   5.194   4.333   2.301 -0.4873 -0.4499  0.5612
   49MOL   H41724513   5.021   4.327   2.286  0.7943  3.6442  0.4416
   49MOL   H41824514   5.176   4.116   2.445  1.6904 -0.3351 -2.1053
   49MOL   H41924515   4.995   4.147   2.422  0.2289 -0.0136  1.5765
   49MOL   H42024516   5.026   4.119   2.185  0.2081 -2.2320 -0.4528
   49MOL   H42124517   5.196   4.078   2.198  0.4463  0.2903 -0.6635
   49MOL   H42224518   4.966   3.901   2.295 -0.3961  1.4003  1.3500
   49MOL   H42324519   5.070   3.881   2.150  0.4349 -0.9954  0.6284
   49MOL   H42424520   5.191   3.870   2.425 -0.1231  0.0951 -0.4542
   49MOL   H42524521   5.146   3.738   2.319 -0.6508  0.2484  0.6993
   49MOL   H42624522   5.272   3.856   2.271  0.5064  1.4558  0.6879
   49MOL   C42724523   5.413   4.428   2.666  0.1131 -0.1000  0.3531
   49MOL   C42824524   5.481   4.557   2.624 -0.8536 -0.0289 -0.0831
   49MOL   O42924525   5.611   4.557   2.665  0.4061 -0.0340  0.3172
   49MOL   C43024526   5.642   4.675   2.746 -0.1548 -0.3048  0.0296
   49MOL   C43124527   5.774   4.652   2.827  0.1797 -0.7895  0.0849
   49MOL   C43224528   5.905   4.651   2.732  0.1717 -0.6710  0.7089
   49MOL   C43324529   6.027   4.624   2.815  0.4250 -0.1697 -0.2420
   49MOL   C43424530   6.068   4.727   2.916 -0.5250  0.0548  0.3710
   49MOL   C43524531   6.084   4.868   2.867  0.5773  0.6310 -0.1746
   49MOL   H43624532   5.437   4.418   2.772 -1.5419 -0.0650  0.7425
   49MOL   H43724533   5.461   4.344   2.615  0.9454 -0.5118  1.7948
   49MOL   H43824534   5.421   4.640   2.661  0.1252  1.4381 -1.7527
   49MOL   H43924535   5.562   4.691   2.819 -0.0800 -0.1069  0.0695
   49MOL   H44024536   5.653   4.760   2.678 -1.3296  0.4367  0.7390
   49MOL   H44124537   5.771   4.562   2.887 -0.6677 -0.1479  1.0343
   49MOL   H44224538   5.786   4.728   2.904 -0.6348 -0.8502  0.2733
   49MOL   H44324539   5.888   4.570   2.662  0.3578  0.6944 -0.9600
   49MOL   H44424540   5.925   4.737   2.668  1.6207 -2.3209 -1.1175
   49MOL   H44524541   6.018   4.527   2.864 -0.7992 -0.4753 -1.0429
   49MOL   H44624542   6.108   4.613   2.744  1.1591 -2.0888  0.8479
   49MOL   H44724543   5.993   4.713   2.993 -2.3028 -2.1613 -1.6837
   49MOL   H44824544   6.161   4.686   2.956 -0.2776 -1.1252 -1.3511
   49MOL   H44924545   6.141   4.925   2.941 -1.1453  1.9891  0.1489
   49MOL   H45024546   6.139   4.870   2.773  0.3152  0.1968 -0.3409
   49MOL   H45124547   5.982   4.906   2.860 -0.2354 -0.9686  2.3311
   49MOL   C45224548   5.477   4.574   2.468  0.1753 -0.2220  0.5853
   49MOL   C45324549   5.472   4.717   2.407  0.2976  0.0757  0.4223
   49MOL   O45424550   5.575   4.810   2.452 -0.0611  0.3119  0.2417
   49MOL   C45524551   5.704   4.772   2.392  0.5589  1.1440 -0.0437
   49MOL   C45624552   5.812   4.874   2.424  0.6620 -0.4444 -0.4438
   49MOL   C45724553   5.949   4.844   2.380  0.0070 -0.1007  0.1443
   49MOL   C45824554   6.053   4.952   2.398  0.5191 -0.0353  0.1907
   49MOL   C45924555   6.200   4.898   2.366  0.6540  0.1674  0.0335
   49MOL   C46024556   6.223   4.874   2.215  0.4642  0.7051 -0.2580
   49MOL   H46124557   5.552   4.508   2.425 -1.8334 -2.0852 -0.1075
   49MOL   H46224558   5.384   4.532   2.432  0.7410 -0.6565 -0.3757
   49MOL   H46324559   5.481   4.721   2.299  0.4942  0.1883  0.4426
   49MOL   H46424560   5.700   4.758   2.284  1.5256 -0.0557  0.0746
   49MOL   H46524561   5.739   4.675   2.425  0.4080  1.9031  2.4369
   49MOL   H46624562   5.813   4.900   2.530 -1.3827 -0.7679 -0.3247
   49MOL   H46724563   5.786   4.965   2.369  1.5739  0.2898  0.3298
   49MOL   H46824564   5.995   4.759   2.430  0.4947  0.1411  0.1073
   49MOL   H46924565   5.941   4.812   2.276 -1.8988 -0.9307  0.5275
   49MOL   H47024566   6.011   5.040   2.350 -0.7019 -0.1147  1.0925
   49MOL   H47124567   6.048   4.985   2.502  1.2877  2.6088 -0.5732
   49MOL   H47224568   6.278   4.969   2.394  1.4304 -0.8806  0.5577
   49MOL   H47324569   6.223   4.813   2.430 -0.8660 -1.2164 -1.2071
   49MOL   H47424570   6.161   4.793   2.176 -1.3738  1.2916  1.3342
   49MOL   H47524571   6.193   4.961   2.158 -1.8652 -1.4008 -2.4061
   49MOL   H47624572   6.326   4.843   2.198  0.0472 -1.1630  0.4793
   49MOL   C47724573   5.341   4.792   2.440  0.0328 -0.4785 -0.3407
   49MOL   C47824574   5.315   4.921   2.361 -0.1691  0.3794 -0.6830
   49MOL   O47924575   5.199   4.996   2.406  0.0379  1.2118  0.1212
   49MOL   C48024576   5.185   5.127   2.345 -0.2498 -0.1569  0.3770
   49MOL   C48124577   5.048   5.190   2.375 -0.2285  0.3412 -0.2900
   49MOL   C48224578   4.928   5.122   2.314 -0.0613  0.0312 -0.4426
   49MOL   C48324579   4.804   5.198   2.349 -0.3315  0.0336  0.0689
   49MOL   C48424580   4.686   5.142   2.263 -0.0556 -0.7758 -0.6044
   49MOL   C48524581   4.552   5.203   2.305 -0.1079  0.1903 -0.4579
   49MOL   H48624582   5.260   4.719   2.432  0.7667 -1.5723  1.8085
   49MOL   H48724583   5.344   4.824   2.544  0.3710 -0.9206 -0.2200
   49MOL   H48824584   5.406   4.980   2.370 -0.6731  1.1742 -0.7008
   49MOL   H48924585   5.199   5.116   2.238 -0.3135 -0.1909  0.3733
   49MOL   H49024586   5.266   5.183   2.393 -1.3071  1.6267  0.1409
   49MOL   H49124587   5.041   5.283   2.320 -0.2420  1.2317  1.1937
   49MOL   H49224588   5.033   5.208   2.482  0.7542  0.7948 -0.2216
   49MOL   H49324589   4.937   5.121   2.205 -1.0125  4.3867 -0.6708
   49MOL   H49424590   4.931   5.021   2.354 -1.7650 -0.0096 -0.3703
   49MOL   H49524591   4.784   5.193   2.456  0.6394  0.1036  0.2513
   49MOL   H49624592   4.813   5.306   2.340 -4.5576  0.5596  0.9699
   49MOL   H49724593   4.708   5.157   2.158  0.0120  2.8726 -0.1371
   49MOL   H49824594   4.679   5.034   2.276 -0.9215 -0.5319  1.2272
   49MOL   H49924595   4.525   5.167   2.404  3.7408  0.1956  0.6898
   49MOL   H50024596   4.561   5.311   2.319  1.7414  0.3983 -2.8983
   49MOL   H50124597   4.472   5.187   2.233 -2.1320  1.6819  1.4058
   49MOL   H50224598   5.294   4.875   2.264 -0.6403 -2.1216  0.5561
   50MOL     C124599   0.256   0.345   3.920  0.0183  0.5039 -0.1539
   50MOL     C224600   0.309   0.465   4.008 -0.2209  1.1775  0.3648
   50MOL     O324601   0.235   0.475   4.130  0.2604 -0.2192 -0.8921
   50MOL     C424602   0.321   0.447   4.245 -0.1617  0.4148 -0.0923
   50MOL     C524603   0.236   0.425   4.372  0.0207 -0.2152  0.7517
   50MOL     C624604   0.119   0.324   4.363  0.0827 -0.6762 -0.2155
   50MOL     C724605   0.045   0.292   4.494 -0.3827 -0.6470 -0.0859
   50MOL     C824606   7.703   0.204   4.482 -0.1351  0.7851  0.0477
   50MOL     C924607   7.636   0.178   4.612 -0.4543 -0.1750 -0.0587
   50MOL    H1024608   0.151   0.363   3.898 -0.0166 -1.7923 -2.2012
   50MOL    H1124609   0.304   0.346   3.822  0.0607 -0.5512 -0.1533
   50MOL    H1224610   0.411   0.428   4.021  0.2263  2.5119  0.6855
   50MOL    H1324611   0.395   0.525   4.263  0.1494 -0.2272  1.4753
   50MOL    H1424612   0.373   0.353   4.227  1.7627  1.1452  1.4487
   50MOL    H1524613   0.196   0.520   4.407 -2.1471 -1.0464  0.6371
   50MOL    H1624614   0.301   0.399   4.455 -0.3857 -0.5990  0.9510
   50MOL    H1724615   0.046   0.353   4.287  0.8688  0.9376 -0.3628
   50MOL    H1824616   0.160   0.234   4.318 -0.8033 -1.8628  1.2773
   50MOL    H1924617   0.116   0.229   4.548 -0.1362  0.7632  1.2687
   50MOL    H2024618   0.018   0.383   4.547 -1.2085  0.0593 -1.6828
   50MOL    H2124619   7.728   0.106   4.441 -2.0634 -0.3745  1.5468
   50MOL    H2224620   7.629   0.249   4.416 -0.2044  1.2284  0.4283
   50MOL    H2324621   7.679   0.095   4.668  1.4377  2.8211  3.1161
   50MOL    H2424622   7.625   0.262   4.680  1.6092 -0.3242  0.4870
   50MOL    H2524623   7.538   0.140   4.583  0.9922 -3.7748 -0.4321
   50MOL    H2624624   0.271   0.248   3.969  1.5451  1.6392  1.6719
   50MOL    C2724625   0.316   0.602   3.937 -0.4554  0.5742  0.3453
   50MOL    C2824626   0.428   0.688   3.996  0.8580  0.2087 -0.0040
   50MOL    O2924627   0.553   0.638   3.952  0.2847 -0.1094  0.1147
   50MOL    C3024628   0.664   0.684   4.026  0.1800 -0.0926 -0.0067
   50MOL    C3124629   0.787   0.664   3.944  0.2451 -0.2235  0.4234
   50MOL    C3224630   0.914   0.642   4.029  0.9737  1.1329 -0.7587
   50MOL    C3324631   1.051   0.675   3.963  0.2660 -0.7292 -0.5694
   50MOL    C3424632   1.173   0.632   4.053  0.1285  0.4439 -0.2116
   50MOL    C3524633   1.305   0.673   3.982  0.2678 -0.3455  0.0873
   50MOL    H3624634   0.333   0.589   3.830 -4.2522  1.7641 -0.4951
   50MOL    H3724635   0.222   0.657   3.936  0.0675  1.4849  0.9812
   50MOL    H3824636   0.431   0.669   4.103  0.5313 -1.6740 -0.3135
   50MOL    H3924637   0.662   0.613   4.109  0.1506  0.8690  0.8147
   50MOL    H4024638   0.662   0.785   4.066  1.2661  0.5023 -1.4028
   50MOL    H4124639   0.808   0.740   3.869  0.6930  1.1059  1.8527
   50MOL    H4224640   0.773   0.574   3.884 -1.9766  1.0099 -0.9549
   50MOL    H4324641   0.903   0.705   4.117  1.8619 -1.2819  1.1415
   50MOL    H4424642   0.922   0.538   4.062  0.2563  1.3040 -0.0412
   50MOL    H4524643   1.062   0.639   3.861  1.7735  1.3499 -1.1746
   50MOL    H4624644   1.048   0.784   3.961 -2.0167 -0.7138  1.2104
   50MOL    H4724645   1.171   0.685   4.148 -1.5844 -1.2315  0.7126
   50MOL    H4824646   1.174   0.525   4.073 -0.8063  0.2267 -1.2780
   50MOL    H4924647   1.299   0.665   3.873 -0.5439 -0.8677  0.1616
   50MOL    H5024648   1.341   0.772   4.009 -4.7045  1.9433 -1.0970
   50MOL    H5124649   1.383   0.603   4.013  0.1901 -1.3953 -1.9950
   50MOL    C5224650   0.405   0.841   3.966 -0.8248 -0.2259 -0.7874
   50MOL    C5324651   0.400   0.937   4.091  0.0272  0.2756  0.5737
   50MOL    O5424652   0.522   0.933   4.162  0.0293 -0.1788  0.0655
   50MOL    C5524653   0.521   0.974   4.300  0.5954  0.0294  0.4465
   50MOL    C5624654   0.669   0.948   4.349 -0.1075  0.0606  0.1128
   50MOL    C5724655   0.701   0.803   4.385 -0.4616 -0.2614 -0.4548
   50MOL    C5824656   0.843   0.767   4.435  0.1297 -0.0523  0.1599
   50MOL    C5924657   0.860   0.609   4.448  0.1630 -0.2712 -0.2766
   50MOL    C6024658   1.005   0.558   4.443  0.6297  0.2630  0.0083
   50MOL    H6124659   0.319   0.859   3.902 -1.1848  2.2681  0.3417
   50MOL    H6224660   0.494   0.872   3.911 -1.1140  1.1188 -0.5313
   50MOL    H6324661   0.311   0.906   4.146 -0.5661 -1.4012 -1.2857
   50MOL    H6424662   0.453   0.906   4.353 -0.1696 -0.5074 -1.1927
   50MOL    H6524663   0.491   1.078   4.305 -0.4128 -0.2894  1.2559
   50MOL    H6624664   0.693   1.010   4.435 -2.4657  1.3714 -0.1355
   50MOL    H6724665   0.737   0.985   4.273  2.3080  0.1201  2.2351
   50MOL    H6824666   0.636   0.769   4.465 -0.2006 -0.5487 -0.3651
   50MOL    H6924667   0.658   0.739   4.307  0.5116  0.7168 -1.8239
   50MOL    H7024668   0.906   0.801   4.352  0.7486  2.1478  1.4800
   50MOL    H7124669   0.871   0.816   4.529  1.4312 -0.3206 -0.0715
   50MOL    H7224670   0.814   0.570   4.539 -2.0490  0.0293 -1.2267
   50MOL    H7324671   0.812   0.563   4.361 -0.0012  0.9079 -0.8190
   50MOL    H7424672   1.012   0.449   4.448  0.7279  0.2557 -0.2476
   50MOL    H7524673   1.052   0.575   4.346 -0.3818  2.7836 -0.0699
   50MOL    H7624674   1.065   0.605   4.521  0.1385  0.2748  0.3814
   50MOL    C7724675   0.370   1.087   4.047 -0.2107  0.3038 -0.0609
   50MOL    C7824676   0.278   1.165   4.144 -0.4357 -0.6371  0.9487
   50MOL    O7924677   0.143   1.129   4.141  0.7398  0.2899  0.5071
   50MOL    C8024678   0.103   1.047   4.251  0.4718 -0.2724  0.1014
   50MOL    C8124679   7.738   1.089   4.288  0.0766 -0.5227  0.5907
   50MOL    C8224680   7.640   1.102   4.171  0.6614  0.2554 -0.0506
   50MOL    C8324681   7.493   1.130   4.197  0.7635 -0.3742 -0.4904
   50MOL    C8424682   7.420   1.181   4.070 -0.2272 -0.1621 -0.5507
   50MOL    C8524683   7.388   1.070   3.969  0.2050  0.3457  0.9398
   50MOL    H8624684   0.302   1.083   3.962  0.0066  0.3317 -0.2344
   50MOL    H8724685   0.455   1.144   4.011 -1.5491  1.1063 -2.0234
   50MOL    H8824686   0.311   1.177   4.247 -0.2669  0.8356  0.7288
   50MOL    H8924687   0.171   1.049   4.336  0.3718 -1.6627  0.2094
   50MOL    H9024688   0.111   0.948   4.207 -0.1408  0.0059 -0.6534
   50MOL    H9124689   7.736   1.180   4.349 -0.2920 -1.5106  2.0594
   50MOL    H9224690   7.699   1.015   4.357  0.9476 -1.0575  0.5251
   50MOL    H9324691   7.679   1.182   4.108 -0.3665  0.6980 -0.1365
   50MOL    H9424692   7.632   1.006   4.121 -1.1941  0.6487 -0.5516
   50MOL    H9524693   7.450   1.052   4.259 -2.7198  1.6051 -0.3054
   50MOL    H9624694   7.479   1.210   4.270 -0.0714 -2.1081  1.2666
   50MOL    H9724695   7.327   1.230   4.100 -0.5121 -1.2050  0.2921
   50MOL    H9824696   7.476   1.260   4.020  0.2234 -0.7884 -1.0473
   50MOL    H9924697   7.475   1.009   3.945  0.1800  1.1903 -1.4590
   50MOL   H10024698   7.306   1.009   4.008 -0.2941 -0.7193 -1.6589
   50MOL   H10124699   7.354   1.115   3.875  3.0729  0.7751  0.0833
   50MOL   C10224700   0.283   1.312   4.098  0.4671  0.3499 -0.3773
   50MOL   C10324701   0.230   1.425   4.199 -0.0870  0.1031  0.3179
   50MOL   O10424702   0.312   1.423   4.313  0.1619 -0.0444  0.2810
   50MOL   C10524703   0.245   1.382   4.434  0.5682 -0.0258 -0.2560
   50MOL   C10624704   0.341   1.383   4.552  0.3702 -0.3889  0.7300
   50MOL   C10724705   0.275   1.361   4.693 -0.3272 -0.1711 -0.4074
   50MOL   C10824706   0.383   1.373   4.803  0.8190  0.5484  0.4536
   50MOL   C10924707   0.465   1.256   4.824  0.3950 -0.2111  0.2594
   50MOL   C11024708   0.553   1.270   4.951  0.2988  0.1975 -1.1179
   50MOL   H11124709   0.385   1.328   4.064  0.2450  0.2557 -1.1040
   50MOL   H11224710   0.214   1.315   4.013  2.2381  0.3467 -1.8485
   50MOL   H11324711   0.127   1.399   4.225 -0.3043 -1.2365 -1.7958
   50MOL   H11424712   0.195   1.286   4.419 -0.0129 -0.2233  2.5865
   50MOL   H11524713   0.166   1.450   4.466  1.0791  0.4170  0.0678
   50MOL   H11624714   0.375   1.486   4.548 -0.4269 -0.1206  0.8116
   50MOL   H11724715   0.417   1.306   4.536  0.3216 -0.1545 -0.6520
   50MOL   H11824716   0.201   1.438   4.714  0.1708  0.3124 -0.4316
   50MOL   H11924717   0.233   1.260   4.697  0.5894 -0.5178  0.5149
   50MOL   H12024718   0.432   1.468   4.782 -1.5187  1.4600 -1.0699
   50MOL   H12124719   0.327   1.382   4.896 -1.3634 -1.6954 -0.5837
   50MOL   H12224720   0.394   1.176   4.842  2.3160 -1.2710  3.5392
   50MOL   H12324721   0.521   1.239   4.732 -1.4572 -0.4053 -0.8514
   50MOL   H12424722   0.597   1.174   4.978 -1.9321 -0.1210  1.7409
   50MOL   H12524723   0.617   1.355   4.929 -1.0503  1.1466 -1.4686
   50MOL   H12624724   0.497   1.297   5.041 -0.8056  0.9651 -2.0250
   50MOL   C12724725   0.247   1.560   4.133  0.0701  0.3544 -0.2913
   50MOL   C12824726   0.179   1.680   4.206  0.7767 -0.2302  0.4371
   50MOL   O12924727   0.156   1.781   4.107 -0.0267  0.1836  0.1943
   50MOL   C13024728   0.024   1.789   4.053 -0.4537 -0.0339  0.0020
   50MOL   C13124729   7.771   1.924   3.982 -0.1704 -0.0538  0.4717
   50MOL   C13224730   7.773   2.044   4.081 -0.4508 -0.2327  0.0941
   50MOL   C13324731   7.761   2.174   4.003 -0.0612 -0.4086 -0.2410
   50MOL   C13424732   7.617   2.229   3.969  0.0539 -0.4366  0.1043
   50MOL   C13524733   7.541   2.288   4.089  0.2401  0.2251  0.7726
   50MOL   H13624734   0.350   1.589   4.113 -0.1118  1.6427  0.5806
   50MOL   H13724735   0.206   1.561   4.032  0.9587 -0.2883 -0.6675
   50MOL   H13824736   0.087   1.649   4.256  0.4443  1.4863  0.9116
   50MOL   H13924737   7.722   1.770   4.126 -0.3339 -2.4744 -0.4654
   50MOL   H14024738   0.018   1.720   3.970 -1.4296 -0.9352  0.8086
   50MOL   H14124739   7.675   1.921   3.930 -1.6027 -0.2232  2.9891
   50MOL   H14224740   0.066   1.942   3.904  0.0001  1.8408  1.0322
   50MOL   H14324741   7.699   2.037   4.161  1.9140 -0.9825  2.2900
   50MOL   H14424742   0.097   2.049   4.122 -0.7140  0.8612  0.6309
   50MOL   H14524743   0.026   2.255   4.063 -1.3229 -1.2374  1.8463
   50MOL   H14624744   0.056   2.161   3.922  1.1081 -0.3843  0.7796
   50MOL   H14724745   7.612   2.299   3.885 -0.6597 -1.3200 -0.6055
   50MOL   H14824746   7.556   2.144   3.939 -1.0124  0.7632 -1.1903
   50MOL   H14924747   7.569   2.236   4.180 -1.0973 -0.0200  1.0553
   50MOL   H15024748   7.557   2.395   4.103 -0.0084  0.2572  0.8226
   50MOL   H15124749   7.433   2.278   4.074  0.2490 -0.3701  1.1049
   50MOL   C15224750   0.280   1.747   4.299  0.8340  0.9171 -0.4794
   50MOL   C15324751   0.206   1.848   4.395 -0.5399 -0.1398  0.3714
   50MOL   O15424752   0.103   1.786   4.466 -0.7934  0.3002 -0.0662
   50MOL   C15524753   7.754   1.838   4.442 -0.2846  0.3304  0.0293
   50MOL   C15624754   7.650   1.771   4.535  1.5874 -0.7733  0.3135
   50MOL   C15724755   7.641   1.617   4.500  0.0731  0.1609 -0.2802
   50MOL   C15824756   7.542   1.536   4.590 -0.1541  0.1758  0.1276
   50MOL   C15924757   7.499   1.389   4.550 -0.6136 -0.6364 -0.1360
   50MOL   C16024758   7.388   1.337   4.644 -0.2497  0.0892 -0.2691
   50MOL   H16124759   0.325   1.661   4.349 -3.1130 -2.8229 -2.9973
   50MOL   H16224760   0.361   1.793   4.242 -0.1618  0.4614 -2.2958
   50MOL   H16324761   0.160   1.912   4.320  3.5462  0.1347 -2.0254
   50MOL   H16424762   7.722   1.823   4.339 -1.0811 -1.0209  0.4582
   50MOL   H16524763   7.752   1.943   4.470  1.0895  0.3464  0.0952
   50MOL   H16624764   7.555   1.822   4.515  3.6148  2.9200 -0.4214
   50MOL   H16724765   7.683   1.781   4.638  0.4366  0.6360  0.5761
   50MOL   H16824766   7.610   1.599   4.397  2.9533  0.4415 -1.2551
   50MOL   H16924767   7.740   1.572   4.506  0.5279  1.0805 -0.6535
   50MOL   H17024768   7.577   1.524   4.693  1.2269 -0.4257 -0.4005
   50MOL   H17124769   7.462   1.607   4.612  0.8610  1.1987  0.5220
   50MOL   H17224770   7.473   1.396   4.444 -0.2301 -1.2063 -0.2664
   50MOL   H17324771   7.579   1.316   4.557 -0.1013  0.0681  1.7604
   50MOL   H17424772   7.421   1.334   4.748 -1.5138 -0.5440  0.1286
   50MOL   H17524773   7.297   1.397   4.639 -0.3462 -0.0940 -0.7468
   50MOL   H17624774   7.362   1.235   4.614 -1.9551  0.0698  1.1653
   50MOL   C17724775   0.303   1.929   4.490  0.1793 -0.0131 -0.2936
   50MOL   C17824776   0.270   2.077   4.496 -0.2986  0.0932  0.0755
   50MOL   O17924777   0.332   2.144   4.607  0.7241  0.1123 -0.3702
   50MOL   C18024778   0.473   2.127   4.626 -0.1158  0.0728 -0.0460
   50MOL   C18124779   0.532   2.249   4.699  0.2163 -0.3104  0.1365
   50MOL   C18224780   0.483   2.248   4.844  0.0917  0.7930 -0.3782
   50MOL   C18324781   0.549   2.347   4.937  0.3991  0.0097 -0.0511
   50MOL   C18424782   0.472   2.359   5.076 -0.7340  0.4898 -0.1379
   50MOL   C18524783   0.461   2.219   5.147 -0.1231 -0.1996  0.1050
   50MOL   H18624784   0.273   1.895   4.589 -0.6559  1.6710  0.0451
   50MOL   H18724785   0.409   1.919   4.468  0.4411  1.0572  0.4629
   50MOL   H18824786   0.164   2.083   4.521 -0.5261 -0.0803 -0.8520
   50MOL   H18924787   0.529   2.114   4.533  0.8313 -0.9054  0.6501
   50MOL   H19024788   0.498   2.033   4.676  0.6264  0.8524  1.0602
   50MOL   H19124789   0.495   2.341   4.654  2.0615  0.1561 -0.4666
   50MOL   H19224790   0.640   2.247   4.685  0.5497  1.0641  2.3621
   50MOL   H19324791   0.375   2.263   4.848  0.1515  0.9851  0.5810
   50MOL   H19424792   0.491   2.147   4.885 -2.0163  0.6285 -0.3021
   50MOL   H19524793   0.655   2.318   4.938 -0.0883 -2.0185 -1.9432
   50MOL   H19624794   0.560   2.445   4.892  3.5175 -0.3694 -0.2745
   50MOL   H19724795   0.534   2.432   5.126  0.2532 -1.2731  1.2830
   50MOL   H19824796   0.368   2.388   5.059 -0.6752  2.2875  2.3533
   50MOL   H19924797   0.391   2.228   5.230 -0.0682 -0.8499  0.2270
   50MOL   H20024798   0.409   2.143   5.088 -1.0814  0.7973 -0.3456
   50MOL   H20124799   0.559   2.184   5.179 -0.3517  0.0761  1.1276
   50MOL   C20224800   0.301   2.139   4.360  0.1848  0.2040 -0.5151
   50MOL   C20324801   0.291   2.295   4.355  0.0577 -0.3145 -0.2596
   50MOL   O20424802   0.156   2.341   4.368 -1.0095  0.0289 -0.1717
   50MOL   C20524803   0.113   2.375   4.491  0.0809 -0.3697 -0.2430
   50MOL   C20624804   7.735   2.375   4.501 -0.1624  0.4287 -0.1455
   50MOL   C20724805   7.677   2.231   4.492  0.6786  0.2718  0.0862
   50MOL   C20824806   7.517   2.223   4.500 -0.7756 -0.5929 -0.0415
   50MOL   C20924807   7.454   2.085   4.493 -0.0374  0.3974  0.5618
   50MOL   C21024808   7.445   2.013   4.360  0.0939 -0.0012 -0.1731
   50MOL   H21124809   0.407   2.117   4.343  0.2517  0.6518 -0.6952
   50MOL   H21224810   0.256   2.092   4.273  0.5582  0.1552 -0.6850
   50MOL   H21324811   0.356   2.344   4.428 -0.5481  0.7349 -0.4244
   50MOL   H21424812   0.148   2.475   4.518 -2.4096  0.3715  0.4379
   50MOL   H21524813   0.152   2.303   4.562 -1.9873 -2.2134 -0.9274
   50MOL   H21624814   7.703   2.442   4.422 -0.1837  0.3530 -0.2016
   50MOL   H21724815   7.696   2.408   4.598  0.4422 -1.9096  0.9295
   50MOL   H21824816   7.715   2.187   4.400 -0.0025  0.2827 -0.2056
   50MOL   H21924817   7.720   2.167   4.569  0.1501 -0.7707 -0.4853
   50MOL   H22024818   7.486   2.279   4.588  1.7221  0.7930  0.0025
   50MOL   H22124819   7.492   2.279   4.410  0.6238  0.8879  0.4611
   50MOL   H22224820   7.514   2.028   4.564  2.7169  1.3054 -0.9707
   50MOL   H22324821   7.352   2.096   4.531 -0.1724 -2.4611  1.1791
   50MOL   H22424822   7.378   2.063   4.290  0.3010  2.9073  1.6310
   50MOL   H22524823   7.544   1.996   4.318  1.3640 -1.7884  3.3143
   50MOL   H22624824   7.401   1.915   4.374  1.8329 -0.7182  0.3754
   50MOL   C22724825   0.341   2.340   4.222 -0.2287 -0.5271 -0.1039
   50MOL   C22824826   0.472   2.413   4.225  0.7205  0.5781  0.1787
   50MOL   O22924827   0.567   2.308   4.272 -0.2766 -0.5937  0.4854
   50MOL   C23024828   0.700   2.330   4.280  0.3538 -0.2491 -0.6455
   50MOL   C23124829   0.742   2.455   4.365 -0.0731 -0.0837 -0.0051
   50MOL   C23224830   0.893   2.481   4.366 -0.5818  0.3618  0.3343
   50MOL   C23324831   0.921   2.602   4.448 -0.0125  0.1728 -0.4309
   50MOL   C23424832   1.064   2.651   4.418 -0.8954  0.2511 -0.4494
   50MOL   C23524833   1.086   2.795   4.454 -0.6450 -0.6488  0.0289
   50MOL   H23624834   0.347   2.258   4.150  1.8357 -1.7823  1.4658
   50MOL   H23724835   0.276   2.417   4.181  1.8246  2.5919  2.3631
   50MOL   H23824836   0.451   2.485   4.304 -2.2680 -0.4018  0.3421
   50MOL   H23924837   0.744   2.339   4.180 -1.6417  1.8665 -1.4031
   50MOL   H24024838   0.733   2.238   4.326  0.9668  0.8743  1.2242
   50MOL   H24124839   0.707   2.439   4.467  1.0037 -1.5890  0.1439
   50MOL   H24224840   0.695   2.547   4.331  1.9273  0.8683 -0.3134
   50MOL   H24324841   0.942   2.390   4.400 -1.7640 -0.9608 -1.4078
   50MOL   H24424842   0.910   2.489   4.259 -1.1026 -1.7292  0.0685
   50MOL   H24524843   0.846   2.677   4.425  0.2806 -0.2733 -2.9973
   50MOL   H24624844   0.914   2.579   4.554  3.6492  0.9791  0.0540
   50MOL   H24724845   1.126   2.588   4.483  0.4714  3.3836  1.4487
   50MOL   H24824846   1.087   2.656   4.312  0.7769  1.9268 -0.0475
   50MOL   H24924847   1.063   2.806   4.560  0.4632 -1.1224  0.3290
   50MOL   H25024848   1.187   2.831   4.434 -1.0001  0.1215 -0.3716
   50MOL   H25124849   1.016   2.851   4.393  2.1899  3.1323  0.0435
   50MOL   C25224850   0.508   2.487   4.087 -0.5428  0.3496  0.8586
   50MOL   C25324851   0.551   2.634   4.108  0.6206  0.1861 -1.0831
   50MOL   O25424852   0.437   2.694   4.174  0.5502 -0.2242  0.2247
   50MOL   C25524853   0.463   2.790   4.269 -0.6622 -0.2028 -0.0358
   50MOL   C25624854   0.327   2.845   4.296  0.0513  0.0872 -0.2228
   50MOL   C25724855   0.263   2.915   4.174  0.8604  0.9448  0.1551
   50MOL   C25824856   0.121   2.955   4.185 -1.1653  0.0525 -0.3767
   50MOL   C25924857   0.035   2.939   4.053 -0.3805  0.8520 -0.0012
   50MOL   C26024858   0.100   2.982   3.921  0.9210 -0.0811 -0.5830
   50MOL   H26124859   0.582   2.432   4.030 -0.5274  0.7582  0.4880
   50MOL   H26224860   0.420   2.494   4.023  0.6680 -1.5292 -1.0549
   50MOL   H26324861   0.641   2.651   4.168 -0.9803 -0.7634  1.6835
   50MOL   H26424862   0.538   2.858   4.228  0.6462 -0.5386  1.7196
   50MOL   H26524863   0.511   2.752   4.360 -0.3490  0.1526 -0.0489
   50MOL   H26624864   0.327   2.909   4.384 -2.4101  0.0600 -0.1456
   50MOL   H26724865   0.275   2.754   4.327  0.6430 -0.9442 -2.1929
   50MOL   H26824866   0.318   3.003   4.139  1.1364 -0.3335 -2.8473
   50MOL   H26924867   0.277   2.853   4.084  2.7590  1.9108 -0.2597
   50MOL   H27024868   0.069   2.899   4.262  0.2978  1.2176  1.5261
   50MOL   H27124869   0.114   3.055   4.227 -2.1492 -0.1527 -0.0551
   50MOL   H27224870   0.001   2.835   4.056  1.6101  0.1731 -0.5105
   50MOL   H27324871   7.718   2.990   4.073 -0.5348  0.5456  0.0586
   50MOL   H27424872   0.019   2.992   3.849  0.0105 -2.8920 -0.0503
   50MOL   H27524873   0.156   3.074   3.934 -0.1419  0.7818 -1.9724
   50MOL   H27624874   0.171   2.904   3.894  2.2348  0.9690 -0.2296
   50MOL   C27724875   0.584   2.700   3.976 -0.3896  0.2559 -0.4033
   50MOL   C27824876   0.693   2.640   3.879  0.0343  0.2860 -0.0719
   50MOL   O27924877   0.705   2.731   3.765 -0.0923  0.6370 -0.4015
   50MOL   C28024878   0.607   2.707   3.664  0.3972  0.6089 -0.4052
   50MOL   C28124879   0.647   2.788   3.540 -0.4660 -0.6175 -0.1695
   50MOL   C28224880   0.787   2.762   3.490 -0.1193  0.2291 -0.2351
   50MOL   C28324881   0.840   2.865   3.381  0.1678 -0.6292  0.1043
   50MOL   C28424882   0.983   2.831   3.336 -0.1624  0.4401  0.0476
   50MOL   C28524883   1.046   2.915   3.230  0.1104 -0.3147  0.0757
   50MOL   H28624884   0.492   2.699   3.917  0.4971  0.1212 -1.8202
   50MOL   H28724885   0.610   2.805   3.986 -0.3650  0.2894 -0.7896
   50MOL   H28824886   0.670   2.540   3.844  0.1034  0.4563 -0.6068
   50MOL   H28924887   0.508   2.734   3.701  0.5307  0.2418  0.2274
   50MOL   H29024888   0.608   2.600   3.644 -1.5879  0.2903  0.9741
   50MOL   H29124889   0.643   2.897   3.546 -1.2489 -0.7004  1.1736
   50MOL   H29224890   0.575   2.764   3.462  3.2030 -4.1035 -2.6056
   50MOL   H29324891   0.857   2.768   3.574  1.6538 -0.2297 -1.6455
   50MOL   H29424892   0.799   2.654   3.477  0.3731  0.3045 -0.4288
   50MOL   H29524893   0.769   2.857   3.298  1.4660  0.2423 -1.1229
   50MOL   H29624894   0.839   2.964   3.425  1.4691 -0.5326 -0.0622
   50MOL   H29724895   1.041   2.819   3.428 -2.2067  2.1513  1.6257
   50MOL   H29824896   0.972   2.730   3.297  1.0658  1.2401 -2.4585
   50MOL   H29924897   1.147   2.885   3.201  0.9622  0.8988  1.7029
   50MOL   H30024898   0.983   2.920   3.141  1.2348 -1.4042 -0.7964
   50MOL   H30124899   1.046   3.014   3.276  1.0700 -0.2059 -0.1503
   50MOL   C30224900   0.833   2.644   3.937  0.1677 -0.2105 -0.9706
   50MOL   C30324901   0.928   2.542   3.859  0.4978  0.2833 -0.3110
   50MOL   O30424902   0.872   2.413   3.856  0.2830  0.0991  0.6781
   50MOL   C30524903   0.920   2.330   3.750 -0.2851  0.5269 -0.4335
   50MOL   C30624904   0.834   2.204   3.760  0.1509 -0.4290 -0.6607
   50MOL   C30724905   0.685   2.225   3.714 -0.7044 -0.9752 -0.6112
   50MOL   C30824906   0.582   2.121   3.765 -0.8089  0.0194  0.4251
   50MOL   C30924907   0.531   2.141   3.910  0.3664 -0.3032 -0.8382
   50MOL   C31024908   0.409   2.043   3.930 -0.0880 -0.1083  0.3336
   50MOL   H31124909   0.871   2.746   3.937 -4.4103  1.6576 -0.6093
   50MOL   H31224910   0.826   2.598   4.036 -1.8800 -1.0338 -1.4738
   50MOL   H31324911   0.941   2.585   3.760  0.3628  1.8511  0.3425
   50MOL   H31424912   1.026   2.308   3.751 -0.1713  1.1088  2.2520
   50MOL   H31524913   0.909   2.372   3.650  0.8619 -0.0669 -0.8082
   50MOL   H31624914   0.828   2.183   3.867 -0.8911 -1.2152 -0.8624
   50MOL   H31724915   0.883   2.115   3.723  2.2939  0.5855 -0.3198
   50MOL   H31824916   0.651   2.318   3.759 -0.8904 -1.6121  0.5810
   50MOL   H31924917   0.668   2.238   3.607 -0.9238  2.3776 -0.2502
   50MOL   H32024918   0.496   2.132   3.699 -0.6667  2.1630  0.5482
   50MOL   H32124919   0.631   2.024   3.751  0.4915  0.4658  1.7186
   50MOL   H32224920   0.607   2.132   3.988  0.6102 -1.5013 -1.1985
   50MOL   H32324921   0.494   2.243   3.918  1.7150  0.1014  0.3708
   50MOL   H32424922   0.435   1.938   3.943  0.0842  0.1510  2.1486
   50MOL   H32524923   0.354   2.064   4.022 -1.7405  0.5790 -0.7720
   50MOL   H32624924   0.342   2.051   3.844  2.2384 -1.1481 -1.6454
   50MOL   C32724925   1.071   2.529   3.908 -0.7475 -0.2210 -0.3700
   50MOL   C32824926   1.150   2.659   3.944  0.2482  1.1494  0.0003
   50MOL   O32924927   1.285   2.626   3.973  0.0619 -0.1488  0.4186
   50MOL   C33024928   1.303   2.570   4.103  0.0252  0.1259 -0.2643
   50MOL   C33124929   1.454   2.550   4.121  0.2257  0.1252  0.1413
   50MOL   C33224930   1.507   2.462   4.011  1.0772 -0.5167 -0.1065
   50MOL   C33324931   1.644   2.399   4.037 -0.2840 -0.1957 -0.0488
   50MOL   C33424932   1.698   2.324   3.915 -0.0386  0.5059 -0.4942
   50MOL   C33524933   1.619   2.194   3.880 -0.1150  0.1915 -0.3251
   50MOL   H33624934   1.136   2.481   3.835  1.8145  0.3168  1.4852
   50MOL   H33724935   1.071   2.477   4.004  0.4556  2.2425  1.0180
   50MOL   H33824936   1.090   2.698   4.026  0.0648 -0.8736  0.8840
   50MOL   H33924937   1.249   2.476   4.109 -0.4598  0.4514  0.3762
   50MOL   H34024938   1.269   2.632   4.185 -0.2123  0.3820 -0.5580
   50MOL   H34124939   1.480   2.508   4.218  0.1496 -0.6946 -0.1917
   50MOL   H34224940   1.495   2.651   4.128  0.6202 -0.0712  0.7090
   50MOL   H34324941   1.433   2.383   3.998  1.2948 -0.6159 -0.7565
   50MOL   H34424942   1.516   2.523   3.920  0.7824 -1.4198 -0.7488
   50MOL   H34524943   1.715   2.480   4.053  1.3550 -1.6928  0.2369
   50MOL   H34624944   1.659   2.336   4.124 -0.9442 -0.2016  0.0632
   50MOL   H34724945   1.703   2.398   3.835 -0.0093  1.6434  0.5600
   50MOL   H34824946   1.800   2.288   3.928 -0.1825 -0.3491 -1.5322
   50MOL   H34924947   1.640   2.144   3.975  1.0543  2.5466  0.7051
   50MOL   H35024948   1.511   2.204   3.874 -0.4495 -0.9780  2.8613
   50MOL   H35124949   1.662   2.119   3.813  1.1166  0.4116  0.1913
   50MOL   C35224950   1.158   2.757   3.825 -0.0511  0.2149 -0.1988
   50MOL   C35324951   1.221   2.898   3.852 -0.1545 -0.3039  0.3779
   50MOL   O35424952   1.154   2.953   3.964 -0.8043  0.0110  0.0359
   50MOL   C35524953   1.239   3.001   4.074  0.0973  0.3646 -0.0616
   50MOL   C35624954   1.142   3.040   4.183 -0.2394 -1.0468 -0.1447
   50MOL   C35724955   1.218   3.107   4.300  0.4023 -0.7476 -0.5924
   50MOL   C35824956   1.126   3.161   4.415 -0.3827  0.1510  0.1873
   50MOL   C35924957   1.044   3.288   4.377 -0.1318  0.4148  0.1447
   50MOL   C36024958   0.964   3.342   4.497 -0.0799  0.3571 -0.3301
   50MOL   H36124959   1.215   2.710   3.745  0.1384  0.3402 -0.1401
   50MOL   H36224960   1.055   2.779   3.799  0.2767  1.1296 -0.7563
   50MOL   H36324961   1.328   2.881   3.863 -0.0246  1.0770  1.3270
   50MOL   H36424962   1.313   3.075   4.044  2.0247 -1.2442  0.6027
   50MOL   H36524963   1.301   2.914   4.099 -0.0728  0.2454 -0.0533
   50MOL   H36624964   1.073   2.958   4.205 -2.7755  1.1345  0.2800
   50MOL   H36724965   1.075   3.112   4.138  2.8878  2.6246  0.8097
   50MOL   H36824966   1.287   3.040   4.351 -1.2449 -1.0882  1.2325
   50MOL   H36924967   1.275   3.194   4.268  1.3549 -1.2099 -0.1880
   50MOL   H37024968   1.065   3.088   4.470  0.8331  1.1059  2.8962
   50MOL   H37124969   1.192   3.204   4.490 -0.3448  0.5599 -0.0826
   50MOL   H37224970   1.104   3.376   4.357 -0.1420  0.0495 -1.5616
   50MOL   H37324971   0.978   3.273   4.292 -0.2360 -0.1048  0.3110
   50MOL   H37424972   0.899   3.419   4.456 -2.0850 -0.9229  0.3908
   50MOL   H37524973   0.905   3.274   4.558 -1.0374  0.3398 -1.2819
   50MOL   H37624974   1.025   3.402   4.565  0.1722  0.9881 -1.1100
   50MOL   C37724975   1.200   2.994   3.731 -0.2223 -0.1202 -0.6368
   50MOL   C37824976   1.297   3.115   3.708 -0.5392 -1.0297 -1.0078
   50MOL   O37924977   1.253   3.173   3.577 -0.6146  0.4757  0.3972
   50MOL   C38024978   1.157   3.277   3.583  0.3243 -0.1981  0.3710
   50MOL   C38124979   1.189   3.385   3.483  0.4067  0.8352  0.5349
   50MOL   C38224980   1.063   3.477   3.463 -0.6649  0.3602 -0.0480
   50MOL   C38324981   1.088   3.594   3.372  0.5802  0.9227 -0.9551
   50MOL   C38424982   1.158   3.720   3.428 -0.0831  0.0563 -0.0377
   50MOL   C38524983   1.170   3.830   3.321  0.3891 -0.0203 -0.4385
   50MOL   H38624984   1.201   2.936   3.638 -2.3500 -1.4305  0.1141
   50MOL   H38724985   1.098   3.031   3.742 -0.3739 -0.4512 -0.8955
   50MOL   H38824986   1.278   3.181   3.792  1.5694 -2.6594  0.8039
   50MOL   H38924987   1.160   3.328   3.679 -3.2617 -3.5401  2.4422
   50MOL   H39024988   1.066   3.219   3.567  1.0052 -0.7006 -1.7983
   50MOL   H39124989   1.228   3.348   3.388  0.1473  0.6971  0.4840
   50MOL   H39224990   1.269   3.441   3.532  1.1152 -1.1475  1.6628
   50MOL   H39324991   0.978   3.416   3.432 -0.2233  0.1976 -0.9569
   50MOL   H39424992   1.039   3.513   3.563 -1.4118  2.9870 -1.1309
   50MOL   H39524993   1.140   3.560   3.283  1.0991  0.7165 -0.5757
   50MOL   H39624994   0.987   3.625   3.342  0.5548  2.3147  0.4927
   50MOL   H39724995   1.095   3.749   3.512 -1.0305 -1.6617 -0.1361
   50MOL   H39824996   1.256   3.704   3.474  0.3540  0.6454 -0.7462
   50MOL   H39924997   1.248   3.902   3.345  0.2405 -0.5517  1.7010
   50MOL   H40024998   1.205   3.785   3.228 -0.2209 -0.3797 -0.4988
   50MOL   H40124999   1.079   3.873   3.279  0.7213 -0.1636 -1.3159
   50MOL   C40225000   1.449   3.093   3.704  0.2580 -0.2284 -0.4890
   50MOL   C40325001   1.525   3.213   3.638 -0.2373  0.2855  0.3223
   50MOL   O40425002   1.665   3.185   3.632 -0.0971 -0.0701 -0.3311
   50MOL   C40525003   1.710   3.115   3.517 -0.7505  0.3773  0.5831
   50MOL   C40625004   1.850   3.065   3.539 -0.2110  0.3307  0.6846
   50MOL   C40725005   1.907   3.023   3.408 -0.2561 -0.9300  0.5389
   50MOL   C40825006   2.035   2.938   3.437 -0.7424 -0.0738  0.3895
   50MOL   C40925007   2.132   2.931   3.314 -0.2519 -0.1706  0.4854
   50MOL   C41025008   2.261   2.851   3.340  0.5471 -0.1916  0.6949
   50MOL   H41125009   1.486   3.005   3.653  2.3722  0.9941 -1.1314
   50MOL   H41225010   1.486   3.079   3.806  2.3487  1.6671 -0.9370
   50MOL   H41325011   1.504   3.238   3.533  0.1942  0.7321  0.3358
   50MOL   H41425012   1.701   3.184   3.432 -0.4004 -1.1900 -0.7489
   50MOL   H41525013   1.645   3.033   3.488 -1.4008  0.9298  0.4457
   50MOL   H41625014   1.847   2.980   3.607  0.1357 -2.2900 -2.4488
   50MOL   H41725015   1.920   3.140   3.577  0.9726 -0.7155  0.5939
   50MOL   H41825016   1.830   2.961   3.364 -0.1271  0.8167 -2.2518
   50MOL   H41925017   1.911   3.106   3.338  0.9383 -0.6226  0.9493
   50MOL   H42025018   2.092   2.972   3.523 -0.5120  0.1585  0.1460
   50MOL   H42125019   2.010   2.834   3.454  0.3891 -0.1486  1.6869
   50MOL   H42225020   2.081   2.882   3.231 -0.9460 -0.8686  1.3277
   50MOL   H42325021   2.158   3.032   3.280 -0.7108 -0.9523 -2.3709
   50MOL   H42425022   2.338   2.865   3.264  0.1219 -0.5717  0.1922
   50MOL   H42525023   2.311   2.877   3.433  0.4361  0.9411  0.4488
   50MOL   H42625024   2.231   2.747   3.340 -1.4657  0.3645  2.4943
   50MOL   C42725025   1.505   3.343   3.724  0.0281  0.6069 -1.3323
   50MOL   C42825026   1.547   3.475   3.650 -0.6937  0.5952  0.1698
   50MOL   O42925027   1.530   3.587   3.735 -0.6519 -0.2186 -0.2507
   50MOL   C43025028   1.430   3.673   3.685  0.0710 -0.5799  0.4472
   50MOL   C43125029   1.467   3.812   3.742  0.5947 -0.8002 -0.1058
   50MOL   C43225030   1.368   3.908   3.676  0.0140 -0.6833 -0.3895
   50MOL   C43325031   1.384   4.058   3.714  0.1007 -0.3600  0.3265
   50MOL   C43425032   1.288   4.145   3.639  0.0877 -0.6844  0.5473
   50MOL   C43525033   1.326   4.292   3.626 -0.7029 -1.4499 -0.6446
   50MOL   H43625034   1.397   3.350   3.740  0.1502 -2.1598  1.2329
   50MOL   H43725035   1.552   3.341   3.823 -2.0516  0.9508 -0.3132
   50MOL   H43825036   1.495   3.483   3.555 -0.0534 -0.5221 -0.2832
   50MOL   H43925037   1.335   3.629   3.717 -0.4253  0.7891  0.8849
   50MOL   H44025038   1.431   3.685   3.576 -0.8288 -1.1193  0.3725
   50MOL   H44125039   1.572   3.827   3.718  1.1583  0.1578  2.8543
   50MOL   H44225040   1.469   3.813   3.851  0.6994  1.9051 -0.1019
   50MOL   H44325041   1.369   3.902   3.567  1.3802  1.9993 -0.5595
   50MOL   H44425042   1.267   3.871   3.694  0.2193 -0.6644  0.7925
   50MOL   H44525043   1.370   4.073   3.821  1.1049  2.4619  0.1044
   50MOL   H44625044   1.485   4.083   3.682 -0.3789  0.5021 -0.5332
   50MOL   H44725045   1.279   4.115   3.534  3.3392 -2.4805  0.7436
   50MOL   H44825046   1.185   4.126   3.670  0.0597 -1.4249  0.0140
   50MOL   H44925047   1.269   4.344   3.548 -1.7337  1.4259  1.9492
   50MOL   H45025048   1.317   4.335   3.725  2.0025  1.1898 -1.4985
   50MOL   H45125049   1.430   4.297   3.593 -0.7315  0.2058 -0.5158
   50MOL   C45225050   1.696   3.475   3.614  0.5273 -0.8960  0.4194
   50MOL   C45325051   1.760   3.605   3.571  0.5136 -0.2916  0.2416
   50MOL   O45425052   1.692   3.666   3.464  0.4039  0.0634  0.1908
   50MOL   C45525053   1.711   3.806   3.441  0.1267  0.2368 -0.0685
   50MOL   C45625054   1.695   3.851   3.297 -0.0640  0.2017 -0.1850
   50MOL   C45725055   1.557   3.822   3.231  0.6447  0.3297  0.2185
   50MOL   C45825056   1.545   3.910   3.106 -0.6589  0.2417 -0.6484
   50MOL   C45925057   1.429   3.861   3.014 -0.6132  0.6866  0.0575
   50MOL   C46025058   1.458   3.728   2.933  0.7267  0.2535 -0.2975
   50MOL   H46125059   1.762   3.436   3.692 -1.5858 -0.0032  2.7506
   50MOL   H46225060   1.700   3.396   3.539 -2.4430 -1.4266  0.7825
   50MOL   H46325061   1.757   3.666   3.661  0.0727 -0.4740  0.3500
   50MOL   H46425062   1.810   3.836   3.472 -0.2091 -0.0598  1.3345
   50MOL   H46525063   1.634   3.855   3.501  1.2247 -1.3332  2.6814
   50MOL   H46625064   1.770   3.784   3.255 -1.7522 -1.1425 -1.0794
   50MOL   H46725065   1.738   3.951   3.281 -0.0277 -0.0129 -1.5004
   50MOL   H46825066   1.542   3.717   3.206 -0.7355  0.2459  1.3250
   50MOL   H46925067   1.477   3.852   3.299 -0.8144  0.4873 -1.5254
   50MOL   H47025068   1.537   4.014   3.136 -0.3966  0.0672  0.0530
   50MOL   H47125069   1.645   3.908   3.061  0.1484  1.1950  1.0729
   50MOL   H47225070   1.338   3.844   3.072 -0.4597 -0.5390 -0.0490
   50MOL   H47325071   1.427   3.946   2.946  0.8791  1.8201  1.3856
   50MOL   H47425072   1.450   3.640   2.996 -0.0754  1.4052  1.2362
   50MOL   H47525073   1.393   3.715   2.847  0.4181  1.0383 -0.1878
   50MOL   H47625074   1.564   3.725   2.907  0.6255  0.8210 -0.8128
   50MOL   C47725075   1.915   3.588   3.539 -0.5943  0.2442  0.1466
   50MOL   C47825076   1.950   3.507   3.411  0.4409  0.3047  0.2313
   50MOL   O47925077   2.091   3.474   3.396  0.7231  0.1063 -0.4975
   50MOL   C48025078   2.114   3.393   3.281 -0.4204 -0.2030  0.1853
   50MOL   C48125079   2.247   3.323   3.301  0.2524  0.2952 -0.2239
   50MOL   C48225080   2.268   3.253   3.446  0.1499 -0.2739  0.0784
   50MOL   C48325081   2.420   3.200   3.465 -0.5626  0.1092 -0.2982
   50MOL   C48425082   2.442   3.126   3.592 -0.9727 -0.5288 -0.1129
   50MOL   C48525083   2.559   3.028   3.582 -0.1771  0.1313 -0.2181
   50MOL   H48625084   1.967   3.684   3.532 -1.1126  0.4602 -0.8631
   50MOL   H48725085   1.962   3.546   3.627 -1.8045  0.0907  0.7290
   50MOL   H48825086   1.903   3.409   3.416  0.6843  0.1875  0.2150
   50MOL   H48925087   2.107   3.455   3.192  1.6090 -0.1373  0.0575
   50MOL   H49025088   2.041   3.315   3.261 -1.8885  1.3827 -0.7722
   50MOL   H49125089   2.316   3.406   3.284 -0.8195  1.5273  1.3316
   50MOL   H49225090   2.257   3.252   3.219 -1.5680  1.6172 -1.6444
   50MOL   H49325091   2.258   3.329   3.524  0.2160  0.6670 -0.8114
   50MOL   H49425092   2.193   3.176   3.465  1.2913 -0.8768  2.2602
   50MOL   H49525093   2.440   3.131   3.384  0.9461  1.1562 -0.8409
   50MOL   H49625094   2.479   3.290   3.446 -0.2107  0.0221  0.3779
   50MOL   H49725095   2.455   3.201   3.670 -0.5914 -2.2425  1.5254
   50MOL   H49825096   2.350   3.072   3.617 -1.8810 -0.0321 -2.3138
   50MOL   H49925097   2.570   2.971   3.674  1.6546  0.2023 -0.3701
   50MOL   H50025098   2.546   2.959   3.499  1.4715  1.0104 -1.2313
   50MOL   H50125099   2.650   3.084   3.560  1.2456 -2.1237 -0.1713
   50MOL   H50225100   1.916   3.553   3.318  0.0213 -1.2111 -0.3921
   51MOL     C125101   6.709   1.270   3.311  0.6698 -0.2081  0.1653
   51MOL     C225102   6.728   1.212   3.169 -0.4441 -0.3175 -0.1118
   51MOL     O325103   6.851   1.151   3.164 -0.2572  0.3234  0.1859
   51MOL     C425104   6.850   1.018   3.172 -1.1610 -0.5492 -0.2561
   51MOL     C525105   6.995   0.977   3.187 -0.2570 -0.5918  0.5548
   51MOL     C625106   7.062   1.051   3.297 -0.3878 -0.4176  0.1965
   51MOL     C725107   7.193   0.981   3.326 -0.5912 -0.2593  0.2309
   51MOL     C825108   7.273   1.056   3.430 -0.2255  0.7243 -0.9419
   51MOL     C925109   7.397   0.970   3.480  0.8797 -0.2959 -0.1643
   51MOL    H1025110   6.793   1.331   3.345 -0.4953  0.8240  1.2600
   51MOL    H1125111   6.622   1.335   3.313 -0.2209 -1.1934 -3.2774
   51MOL    H1225112   6.646   1.145   3.142 -0.6523 -0.3121  0.4838
   51MOL    H1325113   6.813   0.967   3.084 -1.3215 -1.4796  0.3435
   51MOL    H1425114   6.800   0.984   3.263  1.5710 -1.9007  0.7790
   51MOL    H1525115   7.057   0.991   3.098  2.6605 -1.3827  2.4077
   51MOL    H1625116   6.992   0.872   3.217 -1.1341 -0.3814  1.2441
   51MOL    H1725117   7.073   1.155   3.266  0.6629  0.0429  2.0472
   51MOL    H1825118   7.006   1.058   3.390 -0.7686  2.2292 -0.2157
   51MOL    H1925119   7.164   0.887   3.373 -0.4456 -0.8301 -0.7988
   51MOL    H2025120   7.246   0.962   3.232 -2.6852  0.2303 -1.0994
   51MOL    H2125121   7.220   1.069   3.524  2.5193 -1.0363  0.9279
   51MOL    H2225122   7.309   1.153   3.398 -1.2468  1.8907  1.3115
   51MOL    H2325123   7.445   1.014   3.568  2.6601 -2.7390  0.1429
   51MOL    H2425124   7.375   0.866   3.504 -0.8821  0.1782  0.3619
   51MOL    H2525125   7.474   0.967   3.403 -1.1202 -1.4164 -2.1631
   51MOL    H2625126   6.691   1.190   3.383 -0.2489  0.0351  0.2175
   51MOL    C2725127   6.731   1.331   3.076  0.3512  0.5327 -0.2897
   51MOL    C2825128   6.729   1.277   2.930  0.1292  0.2876 -1.2960
   51MOL    O2925129   6.606   1.217   2.906 -0.2691  0.5964 -0.3355
   51MOL    C3025130   6.608   1.086   2.837  0.4928 -0.0294  0.4621
   51MOL    C3125131   6.469   1.021   2.839 -0.1769 -0.5446 -0.0130
   51MOL    C3225132   6.349   1.113   2.782 -0.9409  0.4084 -0.0386
   51MOL    C3325133   6.206   1.053   2.784  0.2084  0.6035 -0.3333
   51MOL    C3425134   6.106   1.138   2.712  0.1359 -0.6496 -0.1865
   51MOL    C3525135   5.964   1.079   2.717 -0.9232  0.4789 -0.8441
   51MOL    H3625136   6.648   1.399   3.093 -1.1910 -1.2096 -0.7315
   51MOL    H3725137   6.820   1.392   3.091  0.3004  0.4662  0.3042
   51MOL    H3825138   6.811   1.207   2.916  1.0615  0.9507  0.6191
   51MOL    H3925139   6.690   1.020   2.866  0.0358 -1.0896 -0.6204
   51MOL    H4025140   6.630   1.099   2.731 -0.1757 -1.6473  0.1093
   51MOL    H4125141   6.444   0.986   2.939 -0.6679  1.5786  0.6350
   51MOL    H4225142   6.484   0.929   2.783  1.7276  1.1784 -2.4308
   51MOL    H4325143   6.349   1.209   2.833 -1.2035 -0.3339  1.3901
   51MOL    H4425144   6.371   1.127   2.676  2.0753 -1.9513  0.1904
   51MOL    H4525145   6.214   0.954   2.738 -0.7133  0.0600  0.6516
   51MOL    H4625146   6.172   1.051   2.888 -0.4785  1.4678 -0.5340
   51MOL    H4725147   6.102   1.226   2.776 -2.7995  0.1620 -1.4191
   51MOL    H4825148   6.147   1.165   2.615 -0.3820 -1.3268 -0.5937
   51MOL    H4925149   5.943   1.068   2.823  1.1028  1.0009 -0.3635
   51MOL    H5025150   5.882   1.140   2.680 -0.7648 -0.2975 -2.5194
   51MOL    H5125151   5.965   0.974   2.687  0.8367 -0.6613  2.8717
   51MOL    C5225152   6.742   1.397   2.846  0.4688 -0.5155  0.1779
   51MOL    C5325153   6.760   1.369   2.699 -0.0220  0.9635 -0.0199
   51MOL    O5425154   6.762   1.501   2.641 -0.0121  0.1812  0.3135
   51MOL    C5525155   6.637   1.519   2.566  0.3065  0.2151  0.4347
   51MOL    C5625156   6.643   1.655   2.509 -0.1886 -0.7682  0.0896
   51MOL    C5725157   6.729   1.683   2.378 -0.1374 -0.4010  0.1580
   51MOL    C5825158   6.871   1.735   2.405  0.8840  0.3273 -0.4393
   51MOL    C5925159   6.961   1.765   2.282  0.6011  0.2728 -0.3066
   51MOL    C6025160   7.107   1.806   2.321 -0.8283 -0.3797 -0.1638
   51MOL    H6125161   6.824   1.460   2.880 -0.6081  0.6176  0.7329
   51MOL    H6225162   6.658   1.466   2.851  2.3818  1.7848  1.3809
   51MOL    H6325163   6.673   1.311   2.667  1.3251 -1.2174  0.1385
   51MOL    H6425164   6.553   1.505   2.634 -1.1571 -2.9077 -1.8379
   51MOL    H6525165   6.620   1.448   2.484  0.5618 -1.2024  1.5859
   51MOL    H6625166   6.649   1.731   2.588  1.1365 -0.6095 -0.1428
   51MOL    H6725167   6.542   1.664   2.470 -1.1927 -2.2316  2.2297
   51MOL    H6825168   6.735   1.593   2.317  1.4939  0.3788 -0.8744
   51MOL    H6925169   6.672   1.752   2.317 -1.0926 -1.5376 -0.2505
   51MOL    H7025170   6.865   1.822   2.470  1.5729 -1.6551  2.3725
   51MOL    H7125171   6.917   1.659   2.468 -1.6601  0.2438  1.3784
   51MOL    H7225172   6.965   1.680   2.215  2.1191  0.2182 -0.1658
   51MOL    H7325173   6.906   1.841   2.227 -1.7782 -2.2071 -1.4786
   51MOL    H7425174   7.144   1.721   2.379 -0.2277 -0.8310 -1.1941
   51MOL    H7525175   7.186   1.810   2.245  1.7324  2.7868  2.5244
   51MOL    H7625176   7.124   1.895   2.381  1.2027  0.1213 -1.4202
   51MOL    C7725177   6.884   1.290   2.648 -0.2963 -0.3762 -0.2754
   51MOL    C7825178   6.888   1.242   2.498  0.0308  0.4324 -0.2348
   51MOL    O7925179   6.775   1.154   2.484  0.2967  0.4372  0.1203
   51MOL    C8025180   6.740   1.129   2.347 -0.6045 -0.6122  0.3559
   51MOL    C8125181   6.589   1.104   2.359 -0.3898 -0.2463  0.4222
   51MOL    C8225182   6.564   0.954   2.374  0.4621  0.2207  0.5264
   51MOL    C8325183   6.412   0.924   2.373 -0.2787 -0.2658 -0.3433
   51MOL    C8425184   6.368   0.780   2.365 -0.5892 -0.2329  0.4131
   51MOL    C8525185   6.441   0.681   2.461 -0.1520  0.2954  0.1429
   51MOL    H8625186   6.892   1.202   2.711  0.9037  0.0425  0.1663
   51MOL    H8725187   6.971   1.356   2.656 -1.8048  1.6620 -0.3167
   51MOL    H8825188   6.855   1.333   2.448  0.7511  2.1895  2.3753
   51MOL    H8925189   6.789   1.034   2.329  0.5631  0.3777 -1.8557
   51MOL    H9025190   6.763   1.211   2.279 -1.8457  0.3135  1.0229
   51MOL    H9125191   6.541   1.142   2.269  0.0911  0.6951  0.5516
   51MOL    H9225192   6.532   1.149   2.441 -0.6622 -0.2225  0.2200
   51MOL    H9325193   6.610   0.901   2.291  0.2818 -1.1548  1.2813
   51MOL    H9425194   6.616   0.912   2.461  4.3525  0.6411 -1.4518
   51MOL    H9525195   6.362   0.982   2.451  1.9983 -1.0954  1.8161
   51MOL    H9625196   6.370   0.958   2.279 -0.2326 -3.3058 -1.5250
   51MOL    H9725197   6.262   0.769   2.384 -0.3738 -3.4677  0.0364
   51MOL    H9825198   6.390   0.739   2.266 -0.6231  1.0532 -0.1460
   51MOL    H9925199   6.404   0.579   2.466 -1.8734  0.8398 -0.9433
   51MOL   H10025200   6.546   0.664   2.437 -0.8145 -2.4537 -0.9233
   51MOL   H10125201   6.437   0.723   2.562 -0.1516  0.9488 -0.1283
   51MOL   C10225202   7.013   1.160   2.450 -0.0010  0.4824 -0.1207
   51MOL   C10325203   7.148   1.232   2.468 -0.3495 -0.7687  0.5470
   51MOL   O10425204   7.255   1.137   2.449 -0.5343  0.0793 -0.0715
   51MOL   C10525205   7.285   1.077   2.573  0.5108  0.1391  0.0271
   51MOL   C10625206   7.381   0.960   2.559 -0.1753 -0.3906  0.0122
   51MOL   C10725207   7.337   0.838   2.472 -0.0525 -0.3382 -0.2947
   51MOL   C10825208   7.222   0.751   2.519  0.0016 -0.4424  0.2134
   51MOL   C10925209   7.243   0.657   2.632  0.0465  0.1221 -0.1747
   51MOL   C11025210   7.361   0.570   2.615  0.2014  0.3311  0.0491
   51MOL   H11125211   7.017   1.070   2.512 -0.9904  0.7135  0.3015
   51MOL   H11225212   7.001   1.127   2.347 -0.7543 -1.8605  0.6617
   51MOL   H11325213   7.166   1.281   2.564 -0.1375 -1.4850  0.8776
   51MOL   H11425214   7.195   1.038   2.620  1.4647 -2.2929 -0.1088
   51MOL   H11525215   7.321   1.150   2.646  0.3787  1.4918 -1.2189
   51MOL   H11625216   7.391   0.934   2.664 -0.1328 -0.2782  0.0361
   51MOL   H11725217   7.474   1.000   2.518 -0.3669  1.3078  1.1963
   51MOL   H11825218   7.311   0.886   2.378 -0.2910 -0.0713 -0.0966
   51MOL   H11925219   7.418   0.770   2.447 -0.2293 -1.1071  1.1547
   51MOL   H12025220   7.140   0.819   2.542  2.0758  2.5492 -0.9903
   51MOL   H12125221   7.182   0.674   2.453 -0.1938  0.0318 -0.2217
   51MOL   H12225222   7.264   0.722   2.717 -2.1983 -0.2912  0.7324
   51MOL   H12325223   7.155   0.594   2.650 -0.6515  1.1228 -0.0443
   51MOL   H12425224   7.351   0.509   2.526  1.6779 -0.6929  0.5752
   51MOL   H12525225   7.457   0.619   2.606  2.4001 -2.9563  3.8335
   51MOL   H12625226   7.367   0.510   2.706 -1.7129 -1.9115 -1.2627
   51MOL   C12725227   7.169   1.333   2.350  0.1163 -0.2366 -0.4540
   51MOL   C12825228   7.304   1.415   2.353  0.0449 -0.7967 -0.3455
   51MOL   O12925229   7.271   1.518   2.444  0.9474 -0.1770  0.1807
   51MOL   C13025230   7.373   1.563   2.527 -0.5522  0.0537  0.5610
   51MOL   C13125231   7.326   1.640   2.652  0.2691  0.1007 -0.4478
   51MOL   C13225232   7.438   1.667   2.752 -0.0165 -0.1446 -0.2086
   51MOL   C13325233   7.406   1.782   2.846  0.2145 -0.0281 -0.7917
   51MOL   C13425234   7.528   1.824   2.928 -0.0076  0.1788 -0.3663
   51MOL   C13525235   7.489   1.945   3.024  0.1485 -0.1096 -0.3167
   51MOL   H13625236   7.153   1.284   2.254  0.5160 -0.9849 -0.1491
   51MOL   H13725237   7.082   1.397   2.362  0.3948 -0.1719  1.5194
   51MOL   H13825238   7.375   1.346   2.398  0.7902  1.0628  1.4139
   51MOL   H13925239   7.428   1.634   2.465 -0.8014  1.0757  1.4790
   51MOL   H14025240   7.434   1.480   2.564  0.7715 -0.0564 -1.7537
   51MOL   H14125241   7.250   1.587   2.708  0.5928 -1.8009 -1.7793
   51MOL   H14225242   7.283   1.738   2.628 -0.9701 -0.2884  0.1530
   51MOL   H14325243   7.472   1.580   2.808  2.7304  0.7509 -0.4067
   51MOL   H14425244   7.525   1.697   2.694 -0.4757 -1.4717 -1.6064
   51MOL   H14525245   7.368   1.870   2.793  0.6445  1.3617  1.1686
   51MOL   H14625246   7.329   1.750   2.915  0.5079  2.7665  0.9153
   51MOL   H14725247   7.567   1.740   2.985  1.0921  0.6366 -0.4245
   51MOL   H14825248   7.602   1.855   2.853 -0.6615 -0.1188 -1.1412
   51MOL   H14925249   7.483   2.038   2.967  2.0560  0.7585  0.8640
   51MOL   H15025250   7.390   1.928   3.067  1.1379 -0.5232  1.8633
   51MOL   H15125251   7.565   1.965   3.100  0.7763  0.7032 -1.1392
   51MOL   C15225252   7.340   1.495   2.219  0.7136 -0.0480  0.8752
   51MOL   C15325253   7.354   1.408   2.097  0.3084  0.1766  0.2948
   51MOL   O15425254   7.406   1.488   1.988 -0.6400 -0.5953 -0.5936
   51MOL   C15525255   7.317   1.534   1.885 -0.1249  0.3142 -0.5749
   51MOL   C15625256   7.395   1.572   1.760 -0.0795  0.2729 -0.0165
   51MOL   C15725257   7.299   1.575   1.635 -0.7919  0.3414  0.4379
   51MOL   C15825258   7.377   1.620   1.507  0.1868  0.0621 -0.8154
   51MOL   C15925259   7.283   1.630   1.382  0.0401 -0.0454  0.0461
   51MOL   C16025260   7.346   1.699   1.258  0.5435  0.3467 -0.2427
   51MOL   H16125261   7.262   1.569   2.199  1.7598  2.0665  4.2708
   51MOL   H16225262   7.435   1.546   2.233 -0.0189  2.3828 -2.2794
   51MOL   H16325263   7.261   1.363   2.063  0.0555  0.9483 -0.0492
   51MOL   H16425264   7.252   1.612   1.926  0.9438  0.1241  1.5778
   51MOL   H16525265   7.243   1.455   1.869 -0.0913  0.0322  0.6167
   51MOL   H16625266   7.459   1.489   1.731 -0.2235 -0.2344  1.0973
   51MOL   H16725267   7.450   1.665   1.767  2.4380 -0.9677 -2.4894
   51MOL   H16825268   7.239   1.485   1.620 -0.2232  0.1121 -0.4674
   51MOL   H16925269   7.218   1.647   1.653  0.3624  1.0990  2.9317
   51MOL   H17025270   7.423   1.717   1.523  0.1005 -0.4504  3.2140
   51MOL   H17125271   7.458   1.551   1.483  0.1216 -0.4761  0.4205
   51MOL   H17225272   7.226   1.540   1.358 -1.3977  1.4135 -2.1956
   51MOL   H17325273   7.200   1.687   1.423  0.6595  1.8967 -1.3696
   51MOL   H17425274   7.268   1.721   1.185  0.9705  2.1613 -0.1752
   51MOL   H17525275   7.387   1.795   1.286 -1.9447  0.7358  2.2744
   51MOL   H17625276   7.416   1.632   1.208 -1.7354 -1.1299 -1.5767
   51MOL   C17725277   7.465   1.303   2.132  0.3249 -0.0705  0.6207
   51MOL   C17825278   7.476   1.184   2.029  0.7118  0.2454  0.0932
   51MOL   O17925279   7.610   1.168   1.989 -0.2235  0.4159 -0.5109
   51MOL   C18025280   7.657   1.269   1.904 -0.6754 -0.8406 -0.0047
   51MOL   C18125281   0.024   1.251   1.863 -0.3611  0.0989 -0.7915
   51MOL   C18225282   0.046   1.129   1.779 -0.1244 -0.2450  0.2537
   51MOL   C18325283   0.181   1.116   1.719 -0.6053  0.9422  0.3788
   51MOL   C18425284   0.187   1.001   1.612  0.2279 -0.0044  0.2386
   51MOL   C18525285   0.319   0.979   1.545  0.6333 -0.3184 -1.1886
   51MOL   H18625286   7.564   1.349   2.143 -0.4792  2.6342 -2.6796
   51MOL   H18725287   7.433   1.260   2.227 -0.4515  3.0900  1.8641
   51MOL   H18825288   7.402   1.198   1.950  2.2427  1.2409 -1.2005
   51MOL   H18925289   7.632   1.366   1.947 -3.2064 -0.2388 -2.6614
   51MOL   H19025290   7.607   1.276   1.807  1.1553 -2.1306 -1.0679
   51MOL   H19125291   0.096   1.261   1.945 -1.9852  1.2490  0.5242
   51MOL   H19225292   0.054   1.336   1.801 -1.2711  1.2618  0.3189
   51MOL   H19325293   0.018   1.039   1.835 -2.0268 -0.5489 -1.1648
   51MOL   H19425294   7.751   1.139   1.699 -0.4996  2.1099  0.8758
   51MOL   H19525295   0.212   1.211   1.675 -0.7501  0.5199 -0.6312
   51MOL   H19625296   0.255   1.087   1.794 -0.9358  1.6050  0.9657
   51MOL   H19725297   0.155   0.908   1.657  0.0401 -0.6098 -1.1224
   51MOL   H19825298   0.118   1.026   1.531 -0.8001 -2.6605  0.2770
   51MOL   H19925299   0.333   0.878   1.506 -0.7625 -0.5654 -1.0572
   51MOL   H20025300   0.340   1.049   1.464 -0.3201  0.2383 -0.9589
   51MOL   H20125301   0.396   0.974   1.622 -0.9198  1.2499  0.5078
   51MOL   C20225302   7.437   1.053   2.102  0.0322 -0.0481  0.0764
   51MOL   C20325303   7.434   0.922   2.020  0.4856  0.5204  0.0807
   51MOL   O20425304   7.340   0.827   2.075  0.2936  0.5135 -0.0959
   51MOL   C20525305   7.201   0.849   2.042  0.3114 -0.8815  0.7149
   51MOL   C20625306   7.142   0.727   2.103 -0.0365 -0.0962  0.1388
   51MOL   C20725307   6.994   0.713   2.077  0.0170  0.9971  0.4119
   51MOL   C20825308   6.920   0.620   2.176  0.6865  0.6607  0.2575
   51MOL   C20925309   6.764   0.628   2.160 -0.2641 -0.4012  0.1437
   51MOL   C21025310   6.702   0.512   2.230 -0.0339  0.3103  0.1688
   51MOL   H21125311   7.498   1.034   2.190 -0.5230 -2.9808 -0.1192
   51MOL   H21225312   7.338   1.072   2.143 -0.7063 -2.0289 -0.7000
   51MOL   H21325313   7.402   0.942   1.917 -0.7342 -0.6886  0.2185
   51MOL   H21425314   7.173   0.849   1.937 -0.6479  0.4849  0.9490
   51MOL   H21525315   7.170   0.950   2.069  3.0031 -0.2687  1.6967
   51MOL   H21625316   7.164   0.742   2.208  2.7710  0.9942 -0.5715
   51MOL   H21725317   7.202   0.644   2.066  2.3488  2.7354 -2.6809
   51MOL   H21825318   6.936   0.805   2.087  0.1491  1.1312 -0.0157
   51MOL   H21925319   6.983   0.672   1.976  1.5760 -0.1740  0.7002
   51MOL   H22025320   6.952   0.519   2.154 -1.4086  0.2916 -1.3650
   51MOL   H22125321   6.932   0.654   2.279 -2.6707 -0.6286  1.1543
   51MOL   H22225322   6.724   0.722   2.199  1.0836  0.2814 -0.0746
   51MOL   H22325323   6.745   0.635   2.052  0.7492  2.5118  0.1044
   51MOL   H22425324   6.594   0.507   2.216 -0.3517  0.3795  2.4209
   51MOL   H22525325   6.750   0.418   2.203 -0.7106 -0.3478  1.2007
   51MOL   H22625326   6.713   0.526   2.337  1.5574  1.1591 -0.1006
   51MOL   C22725327   7.570   0.853   2.024 -0.2963 -0.1948 -1.0022
   51MOL   C22825328   7.573   0.716   1.962 -0.0834 -0.6675 -0.3229
   51MOL   O22925329   7.541   0.731   1.826  0.3811  0.3474  0.0103
   51MOL   C23025330   7.459   0.624   1.776 -0.4482  0.2120 -0.6038
   51MOL   C23125331   7.448   0.644   1.632 -0.3890  0.0255  0.1128
   51MOL   C23225332   7.583   0.611   1.564 -0.0218  0.6229  0.6358
   51MOL   C23325333   7.571   0.603   1.413  0.1821 -0.5997 -0.4789
   51MOL   C23425334   7.711   0.588   1.350 -0.5678  0.6098 -0.0184
   51MOL   C23525335   7.685   0.566   1.205  0.0597  0.1483 -0.3573
   51MOL   H23625336   7.650   0.917   1.986 -2.6892  2.7176 -1.2952
   51MOL   H23725337   7.593   0.836   2.129  3.3965  1.7428 -1.3914
   51MOL   H23825338   7.505   0.653   2.019  1.8129 -0.9437  1.7313
   51MOL   H23925339   7.364   0.617   1.829 -0.3730  2.2504 -0.1939
   51MOL   H24025340   7.510   0.533   1.808  2.0575  1.9336  0.4310
   51MOL   H24125341   7.409   0.745   1.619  0.1112  0.7141  3.4901
   51MOL   H24225342   7.381   0.564   1.602 -1.6767  1.4125 -0.7972
   51MOL   H24325343   7.661   0.686   1.581 -0.3141  0.8927  0.7840
   51MOL   H24425344   7.634   0.521   1.598  1.7504  0.9397 -1.0392
   51MOL   H24525345   7.498   0.527   1.386 -2.2225  2.5465 -3.2713
   51MOL   H24625346   7.535   0.702   1.383 -0.2600 -0.8693 -0.8237
   51MOL   H24725347   7.759   0.685   1.359  0.5777  0.0231  0.2459
   51MOL   H24825348   7.768   0.505   1.391 -0.1889  1.5380  1.3954
   51MOL   H24925349   7.776   0.544   1.149  0.4392  1.3156 -0.2072
   51MOL   H25025350   7.623   0.477   1.194  0.3612 -0.0306 -0.6259
   51MOL   H25125351   7.646   0.652   1.151  0.1184 -0.3438 -1.2048
   51MOL   C25225352   7.717   0.654   1.967  0.8837 -0.2886  0.4458
   51MOL   C25325353   0.004   0.634   2.108  0.4787 -0.1552 -0.1068
   51MOL   O25425354   0.120   0.555   2.098  0.0021  0.9121  0.0818
   51MOL   C25525355   0.239   0.629   2.050 -0.4070 -0.2657 -0.4982
   51MOL   C25625356   0.373   0.582   2.122  0.6955 -0.5548 -0.0679
   51MOL   C25725357   0.386   0.566   2.271 -0.1924 -0.5686 -0.0546
   51MOL   C25825358   0.531   0.527   2.312 -0.4505 -0.0062 -0.4562
   51MOL   C25925359   0.633   0.643   2.296  0.1291 -0.7744  0.4117
   51MOL   C26025360   0.756   0.623   2.391 -0.2195 -0.4204 -0.5265
   51MOL   H26125361   7.713   0.556   1.920  0.2777 -0.3032  0.5333
   51MOL   H26225362   0.004   0.717   1.905 -1.7501  0.7791 -1.2963
   51MOL   H26325363   0.030   0.727   2.159 -0.3536 -1.2202  2.2802
   51MOL   H26425364   0.227   0.730   2.089 -1.1772 -0.5902  0.1223
   51MOL   H26525365   0.250   0.634   1.942 -0.0324  0.7213 -0.4193
   51MOL   H26625366   0.449   0.649   2.079  1.3823 -0.7094  0.8977
   51MOL   H26725367   0.414   0.496   2.069  1.6183 -0.4642  0.4946
   51MOL   H26825368   0.354   0.655   2.325 -0.4044 -0.1805 -0.8190
   51MOL   H26925369   0.322   0.486   2.308  0.2279 -0.6460  0.5078
   51MOL   H27025370   0.517   0.517   2.420  2.5937 -0.6454 -0.0665
   51MOL   H27125371   0.569   0.436   2.267 -0.8109 -0.2465 -0.2710
   51MOL   H27225372   0.661   0.656   2.191 -1.1835 -0.3163  0.1120
   51MOL   H27325373   0.589   0.739   2.320  1.7369  0.6192 -1.9744
   51MOL   H27425374   0.730   0.630   2.496  2.2146 -2.5239  0.2769
   51MOL   H27525375   0.804   0.526   2.378  0.3020 -0.4411  1.4011
   51MOL   H27625376   0.837   0.694   2.381  2.7084 -3.6354 -0.5536
   51MOL   C27725377   7.693   0.551   2.203  0.8442 -0.5871 -0.9737
   51MOL   C27825378   7.752   0.573   2.345  0.1723  0.2435 -0.4616
   51MOL   O27925379   7.710   0.703   2.385  0.0387 -0.3601 -0.2508
   51MOL   C28025380   0.019   0.764   2.475  0.3822 -0.0800 -1.0105
   51MOL   C28125381   7.760   0.908   2.524 -0.0488  0.2429 -0.4494
   51MOL   C28225382   7.772   1.023   2.416  0.2219 -0.1183 -0.4461
   51MOL   C28325383   7.725   1.156   2.479 -0.2444  0.6581 -0.1224
   51MOL   C28425384   7.761   1.272   2.379  0.5631  0.2359 -0.8347
   51MOL   C28525385   7.702   1.408   2.422 -0.2758 -0.0290  0.2950
   51MOL   H28625386   7.589   0.585   2.204  0.9151 -0.2951 -2.3840
   51MOL   H28725387   7.671   0.449   2.171  0.2078 -0.5623 -0.6102
   51MOL   H28825388   0.083   0.566   2.340  0.0490 -2.1738 -0.0799
   51MOL   H28925389   0.120   0.765   2.434  0.6609  1.1402 -0.3096
   51MOL   H29025390   0.017   0.713   2.571  1.8561 -2.2947 -2.1022
   51MOL   H29125391   0.039   0.935   2.613 -0.6975 -1.2472  0.4321
   51MOL   H29225392   7.659   0.905   2.564 -0.6412 -0.3335 -1.9528
   51MOL   H29325393   0.098   1.031   2.381  0.3976 -1.2813 -0.2076
   51MOL   H29425394   7.710   1.000   2.329  0.9415 -1.4203 -0.6360
   51MOL   H29525395   7.616   1.154   2.487 -0.2706  1.4102 -0.2364
   51MOL   H29625396   7.774   1.179   2.573  2.2341  2.2145 -1.7232
   51MOL   H29725397   0.091   1.276   2.364  0.3764  0.6153 -2.1554
   51MOL   H29825398   7.726   1.245   2.279 -0.8014  1.3563 -0.6747
   51MOL   H29925399   7.744   1.429   2.520  0.7651 -2.1906  0.3321
   51MOL   H30025400   7.737   1.493   2.364  1.0241  0.8201  2.2771
   51MOL   H30125401   7.593   1.409   2.430 -0.3961  0.8906 -1.4066
   51MOL   C30225402   7.695   0.473   2.444 -0.3276  0.4093 -0.9942
   51MOL   C30325403   7.737   0.325   2.431 -0.2263  0.3073  0.5379
   51MOL   O30425404   7.659   0.272   2.540 -0.7683  0.1657 -0.2040
   51MOL   C30525405   7.540   0.216   2.497  0.6845 -0.4746 -0.5168
   51MOL   C30625406   7.485   0.129   2.610  0.0439  0.2284  0.2661
   51MOL   C30725407   7.350   0.057   2.572  0.2389  0.6540  0.1402
   51MOL   C30825408   7.227   0.145   2.589  0.0086  0.3103  0.0682
   51MOL   C30925409   7.183   0.208   2.453  0.0145 -0.4363  0.1737
   51MOL   C31025410   7.059   0.289   2.474 -0.0398 -0.1101  0.3923
   51MOL   H31125411   7.737   0.505   2.540  0.0613 -0.2889 -0.9271
   51MOL   H31225412   7.587   0.482   2.447 -0.4891 -1.7122  0.5579
   51MOL   H31325413   7.711   0.293   2.330 -0.0895 -0.3096  0.6914
   51MOL   H31425414   7.559   0.163   2.404 -0.0067 -1.5850 -0.0419
   51MOL   H31525415   7.474   0.299   2.469  1.9861  0.7554  0.0024
   51MOL   H31625416   7.466   0.190   2.699  0.5065  0.8404 -0.0544
   51MOL   H31725417   7.568   0.061   2.633  1.0116  2.0792  2.4195
   51MOL   H31825418   7.357   0.011   2.473  1.9499  2.5350 -0.6519
   51MOL   H31925419   7.335   7.754   2.644 -0.7807 -0.4107 -1.2199
   51MOL   H32025420   7.138   0.093   2.624  1.0433 -2.4159 -1.2028
   51MOL   H32125421   7.247   0.228   2.658  0.7387  1.2503 -1.2522
   51MOL   H32225422   7.267   0.262   2.411 -1.5376  2.3205  0.5164
   51MOL   H32325423   7.169   0.125   2.384  1.9900 -0.5671 -0.1109
   51MOL   H32425424   7.035   0.344   2.383  0.9131  0.7159  0.6365
   51MOL   H32525425   6.972   0.229   2.503 -0.0192 -0.0177  0.6485
   51MOL   H32625426   7.076   0.357   2.557  3.0354 -3.1767  2.3804
   51MOL   C32725427   0.116   0.294   2.457  0.2146 -0.0437  0.3226
   51MOL   C32825428   0.153   0.148   2.413 -0.1724  0.0728  0.1955
   51MOL   O32925429   0.296   0.146   2.394 -0.3476  1.0313 -0.0033
   51MOL   C33025430   0.344   0.181   2.265  0.3071 -0.0830  0.5989
   51MOL   C33125431   0.495   0.160   2.264 -1.4265  0.1311  0.5885
   51MOL   C33225432   0.546   0.186   2.124  0.4153 -0.7058 -0.0596
   51MOL   C33325433   0.699   0.195   2.106 -0.3827  0.8312  0.9249
   51MOL   C33425434   0.741   0.253   1.971 -0.5269 -0.0496 -0.1991
   51MOL   C33525435   0.719   0.404   1.952 -0.1124 -0.2568  0.1815
   51MOL   H33625436   0.148   0.318   2.559 -2.1893 -0.8838  1.3252
   51MOL   H33725437   0.169   0.361   2.390 -0.8222  0.5163  0.0533
   51MOL   H33825438   0.106   0.122   2.319 -1.0321  0.0177  0.6368
   51MOL   H33925439   0.323   0.283   2.233 -0.4745 -0.4796 -0.1762
   51MOL   H34025440   0.293   0.115   2.195 -2.4807  1.5769  0.9913
   51MOL   H34125441   0.508   0.055   2.289  0.0456  0.7148  2.3582
   51MOL   H34225442   0.542   0.212   2.348  1.0402  0.7395 -1.1174
   51MOL   H34325443   0.500   0.123   2.049  1.2173 -0.6377 -0.6198
   51MOL   H34425444   0.507   0.285   2.099 -0.5417 -1.1804 -0.4664
   51MOL   H34525445   0.753   0.264   2.172  1.0828  0.6552 -0.0734
   51MOL   H34625446   0.749   0.102   2.135 -0.7678  0.3973  0.1991
   51MOL   H34725447   0.846   0.224   1.966 -0.7835 -0.9768 -0.4093
   51MOL   H34825448   0.705   0.186   1.893 -0.6298  0.6912 -0.7916
   51MOL   H34925449   0.771   0.470   2.022 -1.2743  0.7587  0.1209
   51MOL   H35025450   0.753   0.441   1.855 -0.6186  0.5054  0.2865
   51MOL   H35125451   0.611   0.421   1.952 -0.0981 -0.1611 -0.0032
   51MOL   C35225452   0.124   0.046   2.529 -0.0147  0.3103  0.1176
   51MOL   C35325453   0.164   7.673   2.486  0.8914  0.0304  0.1673
   51MOL   O35425454   0.072   7.573   2.529  0.4620  0.5415  0.0525
   51MOL   C35525455   0.048   7.571   2.669  0.4535  0.4241 -0.0019
   51MOL   C35625456   7.773   7.433   2.709  0.3735  0.0977  0.0676
   51MOL   C35725457   7.647   7.384   2.639  0.5296  0.6091 -0.4042
   51MOL   C35825458   7.613   7.241   2.655  0.0273  0.7239  0.0994
   51MOL   C35925459   7.553   7.207   2.783  0.2822  0.4557  0.7158
   51MOL   C36025460   7.521   7.054   2.799 -0.4207 -0.2623  0.7824
   51MOL   H36125461   0.184   0.079   2.614  0.5302 -2.8624  1.0057
   51MOL   H36225462   0.024   0.049   2.573 -0.1789  0.4933 -0.2715
   51MOL   H36325463   0.178   7.661   2.379  0.2712 -3.2888  0.3928
   51MOL   H36425464   7.743   7.641   2.684 -1.2379 -0.8921 -2.6934
   51MOL   H36525465   0.128   7.601   2.737 -0.4522  0.2433  1.1643
   51MOL   H36625466   7.753   7.430   2.816  1.7419  1.0715  0.3686
   51MOL   H36725467   0.073   7.364   2.675  0.0443 -0.0324 -0.4186
   51MOL   H36825468   7.565   7.431   2.693  0.9831  0.2009  0.6524
   51MOL   H36925469   7.645   7.415   2.535  1.1331  1.4374 -0.1788
   51MOL   H37025470   7.532   7.212   2.588  0.2548  1.8760 -0.6974
   51MOL   H37125471   7.692   7.168   2.636 -2.2199 -1.4042 -1.3949
   51MOL   H37225472   7.617   7.233   2.867 -1.0235 -1.3896  2.3082
   51MOL   H37325473   7.456   7.251   2.805 -0.3624 -0.5918  0.0336
   51MOL   H37425474   7.613   6.997   2.790 -0.5244 -0.1446 -1.2508
   51MOL   H37525475   7.469   7.031   2.892 -0.1702 -0.7005  0.8172
   51MOL   H37625476   7.459   7.022   2.714 -1.2499  1.1757  0.8363
   51MOL   C37725477   0.305   7.638   2.524 -0.3821 -0.0673  0.3893
   51MOL   C37825478   0.364   7.497   2.468 -0.2050  0.6895 -0.1173
   51MOL   O37925479   0.498   7.502   2.537  0.2707 -0.3373 -0.3646
   51MOL   C38025480   0.565   7.379   2.535 -0.9522  0.2516  0.8069
   51MOL   C38125481   0.715   7.406   2.539  0.7797  0.2087 -0.0913
   51MOL   C38225482   0.777   7.531   2.475  0.1365 -0.3555  0.1023
   51MOL   C38325483   0.924   7.509   2.474  0.3379  0.3291  0.3676
   51MOL   C38425484   1.005   7.616   2.405 -0.5081 -0.9098  0.0805
   51MOL   C38525485   1.147   7.583   2.368  0.7452  0.0124 -0.6106
   51MOL   H38625486   0.361   7.729   2.500  2.0995 -1.8288 -0.6502
   51MOL   H38725487   0.314   7.627   2.633 -2.1344  0.0343  0.5541
   51MOL   H38825488   0.305   7.413   2.504  2.7871 -0.9658  1.0581
   51MOL   H38925489   0.538   7.322   2.447 -1.3978 -0.0825  1.1591
   51MOL   H39025490   0.537   7.319   2.622 -2.0264 -1.0345 -0.4003
   51MOL   H39125491   0.767   7.316   2.507  0.1645 -0.9715  2.1118
   51MOL   H39225492   0.737   7.417   2.645  0.6733 -2.4905  0.2304
   51MOL   H39325493   0.736   7.545   2.375 -0.1354 -2.0031 -0.0376
   51MOL   H39425494   0.754   7.615   2.540  0.0905 -2.0110  2.2939
   51MOL   H39525495   0.955   7.503   2.579  0.2786 -1.3999  0.2997
   51MOL   H39625496   0.956   7.411   2.440  1.4292  0.8780 -0.2147
   51MOL   H39725497   0.960   7.635   2.308 -1.0156 -1.3852  0.2238
   51MOL   H39825498   1.001   7.715   2.451  0.0790 -1.4425  1.3033
   51MOL   H39925499   1.204   7.672   2.342  0.9394 -0.0917 -0.5402
   51MOL   H40025500   1.201   7.534   2.448 -0.6015 -0.5393 -0.0322
   51MOL   H40125501   1.129   7.525   2.278 -1.3301 -2.0355  1.0715
   51MOL   C40225502   0.378   7.473   2.301 -0.7034 -0.5611  0.3674
   51MOL   C40325503   0.260   7.410   2.231  0.0818 -0.2375  0.1904
   51MOL   O40425504   0.289   7.267   2.234 -0.0455 -0.1457 -0.3213
   51MOL   C40525505   0.184   7.176   2.229  0.2508  0.0107  0.3017
   51MOL   C40625506   0.243   7.042   2.269 -0.4148 -0.4161  0.6170
   51MOL   C40725507   0.285   7.028   2.417 -0.7952  0.1862  0.4620
   51MOL   C40825508   0.181   7.078   2.518  0.4636 -0.2844  0.4407
   51MOL   C40925509   0.203   7.033   2.662  0.7741 -0.2603 -0.4430
   51MOL   C41025510   0.319   7.094   2.727 -0.3503  1.0732 -0.2642
   51MOL   H41125511   0.470   7.420   2.275  0.9600  2.1220  0.6352
   51MOL   H41225512   0.394   7.576   2.271  0.4104 -0.2953  1.7876
   51MOL   H41325513   0.171   7.442   2.285  0.8634  2.4832 -0.0467
   51MOL   H41425514   0.149   7.173   2.125  0.2561 -2.3957  0.3432
   51MOL   H41525515   0.108   7.208   2.301  0.7248 -0.3515  0.9637
   51MOL   H41625516   0.330   7.030   2.204 -1.1325 -2.1747 -0.0547
   51MOL   H41725517   0.171   6.967   2.236 -1.0761 -0.9398  3.1014
   51MOL   H41825518   0.304   6.922   2.432 -0.2092 -0.2358 -3.0327
   51MOL   H41925519   0.381   7.075   2.442 -1.2911  1.0417  0.7732
   51MOL   H42025520   0.177   7.186   2.506  1.4640 -0.2673  0.2110
   51MOL   H42125521   0.086   7.045   2.477  2.0142 -0.3453 -3.3481
   51MOL   H42225522   0.120   7.076   2.719  0.1606 -0.3591 -1.2562
   51MOL   H42325523   0.210   6.925   2.671  0.1536 -0.4075 -1.5718
   51MOL   H42425524   0.412   7.051   2.689  0.6270  2.5300  0.4317
   51MOL   H42525525   0.317   7.199   2.700  2.7147  1.1424 -0.4124
   51MOL   H42625526   0.300   7.091   2.835 -2.1347 -0.5282 -0.5958
   51MOL   C42725527   0.259   7.456   2.086 -0.4040 -0.2215  0.2889
   51MOL   C42825528   0.192   7.590   2.052  0.8243 -0.6691  0.4942
   51MOL   O42925529   0.208   7.613   1.912 -0.3268 -0.1353 -0.0848
   51MOL   C43025530   0.337   7.665   1.880 -0.4953 -0.0842  0.6469
   51MOL   C43125531   0.346   7.706   1.733 -0.4288 -0.2921  0.0715
   51MOL   C43225532   0.468   0.015   1.718 -0.1109  0.3799 -0.5251
   51MOL   C43325533   0.499   0.051   1.571  0.3247  0.5866  0.5569
   51MOL   C43425534   0.623   0.139   1.562  0.0274  0.0049  0.1469
   51MOL   C43525535   0.613   0.217   1.429 -0.4104  0.1060 -0.3381
   51MOL   H43625536   0.364   7.449   2.057 -0.2842  0.7896  0.4648
   51MOL   H43725537   0.215   7.374   2.029 -0.1560 -0.2801  0.1803
   51MOL   H43825538   0.230   7.683   2.096 -0.7590 -0.3792  1.3095
   51MOL   H43925539   0.419   7.600   1.912 -1.9160 -1.7335  0.9442
   51MOL   H44025540   0.344   7.761   1.931  0.7453  0.7257 -0.9749
   51MOL   H44125541   0.259   7.768   1.714  0.5803  1.8165  2.1398
   51MOL   H44225542   0.352   7.617   1.670  2.0781 -0.9475  1.1598
   51MOL   H44325543   0.473   0.101   1.786  0.3199  0.9212 -1.2380
   51MOL   H44425544   0.547   7.723   1.747 -0.7345 -1.1356 -2.3949
   51MOL   H44525545   0.509   7.745   1.501 -2.1578  2.0899 -1.6965
   51MOL   H44625546   0.403   0.098   1.546 -1.3169 -2.2147  1.3914
   51MOL   H44725547   0.630   0.202   1.651  1.6012 -1.7407  1.2935
   51MOL   H44825548   0.713   0.077   1.566  0.4282  0.2832 -2.9159
   51MOL   H44925549   0.516   0.266   1.419  0.3590  1.8882  0.7531
   51MOL   H45025550   0.684   0.299   1.435  1.1200 -1.2067 -0.3110
   51MOL   H45125551   0.632   0.166   1.335  1.7755  0.7328 -0.2435
   51MOL   C45225552   0.038   7.584   2.073  0.2185 -0.5919 -0.0762
   51MOL   C45325553   7.734   7.709   2.035 -0.7258  0.4657  0.3383
   51MOL   O45425554   0.003   0.049   2.101  0.1569 -0.0424 -0.6028
   51MOL   C45525555   7.755   0.177   2.037  0.7140 -0.1539 -0.9091
   51MOL   C45625556   0.038   0.205   1.894  0.1418 -0.5885 -0.6407
   51MOL   C45725557   0.182   0.251   1.917 -0.0946 -0.7313  0.9969
   51MOL   C45825558   0.231   0.352   1.813  0.6559 -0.0398 -0.1605
   51MOL   C45925559   0.206   0.306   1.671  0.1327 -0.0268  0.2011
   51MOL   C46025560   0.272   0.407   1.570 -0.7541  0.3776 -0.5573
   51MOL   H46125561   0.004   7.493   2.023 -1.1686  0.4275 -1.0272
   51MOL   H46225562   0.029   7.569   2.181 -0.8499  1.9570  0.2307
   51MOL   H46325563   7.746   7.703   1.927 -3.7995  3.0173 -0.2098
   51MOL   H46425564   0.016   0.238   2.118  1.3447  0.0161 -1.3281
   51MOL   H46525565   7.647   0.189   2.040  0.9960  2.1211  0.6525
   51MOL   H46625566   7.769   0.288   1.840 -0.7197  0.9637  2.3839
   51MOL   H46725567   0.033   0.117   1.830 -0.6668 -0.5774 -0.5972
   51MOL   H46825568   0.199   0.306   2.010 -1.7234  3.2674 -0.9377
   51MOL   H46925569   0.244   0.163   1.900  0.3351 -0.2945  0.2510
   51MOL   H47025570   0.176   0.444   1.833  0.1464 -0.6397  1.2523
   51MOL   H47125571   0.337   0.376   1.820  0.1521  1.7312  1.5469
   51MOL   H47225572   0.261   0.212   1.667  1.6643  0.7131  2.7294
   51MOL   H47325573   0.102   0.288   1.647 -0.2603  2.4879 -0.0843
   51MOL   H47425574   0.378   0.423   1.592 -0.9844 -1.3914  2.0455
   51MOL   H47525575   0.271   0.374   1.466 -0.6217  0.0139 -0.4414
   51MOL   H47625576   0.221   0.503   1.582  0.0870  0.5424  2.0976
   51MOL   C47725577   7.584   7.689   2.066 -0.6269  0.7265  0.4767
   51MOL   C47825578   7.553   7.667   2.218 -0.0367  0.2800 -0.5444
   51MOL   O47925579   7.415   7.674   2.248 -0.3853 -0.1480  0.1665
   51MOL   C48025580   7.329   7.573   2.204  0.9501 -0.9171 -0.3167
   51MOL   C48125581   7.193   7.595   2.286 -0.5676 -1.0466  0.0070
   51MOL   C48225582   7.088   7.499   2.223  0.4866  0.1394 -0.0192
   51MOL   C48325583   6.960   7.516   2.295 -0.2690 -0.2864  0.3699
   51MOL   C48425584   6.878   7.639   2.257 -0.3105 -0.2065  0.1680
   51MOL   C48525585   6.780   7.675   2.375 -0.0403 -0.7419 -0.3176
   51MOL   H48625586   7.520   7.765   2.022 -1.1274 -0.8949 -1.7056
   51MOL   H48725587   7.567   7.594   2.016  0.0614  0.5748  0.5274
   51MOL   H48825588   7.596   7.572   2.252  0.4272  0.7036  0.0714
   51MOL   H48925589   7.373   7.480   2.241 -1.6886 -1.4416  1.6633
   51MOL   H49025590   7.307   7.591   2.099 -0.2480  1.5490  0.3249
   51MOL   H49125591   7.156   7.697   2.297  0.1438 -0.8182  0.2879
   51MOL   H49225592   7.213   7.557   2.386  1.3441 -1.1664 -0.3897
   51MOL   H49325593   7.078   7.522   2.117 -0.6019  0.0412  0.0651
   51MOL   H49425594   7.142   7.406   2.239  1.3535  0.5970 -0.2146
   51MOL   H49525595   6.895   7.431   2.275 -0.4545  0.2129 -1.1917
   51MOL   H49625596   6.969   7.507   2.403 -1.8462 -0.4088  0.4949
   51MOL   H49725597   6.950   7.714   2.226  1.5651 -3.0193 -2.4873
   51MOL   H49825598   6.807   7.618   2.177  1.1172 -0.5025 -1.0269
   51MOL   H49925599   6.839   7.706   2.461  0.1471 -1.2920 -0.2515
   51MOL   H50025600   6.698   7.741   2.346 -0.3371 -1.3624 -0.8858
   51MOL   H50125601   6.728   7.588   2.412 -0.6325  0.8107  2.6537
   51MOL   H50225602   7.607   7.739   2.279  2.5306 -0.0985 -2.2902
   52MOL     C125603   4.791   5.856   1.759 -0.6988 -0.5606  0.2359
   52MOL     C225604   4.652   5.811   1.717  0.6983  0.1226  0.8719
   52MOL     O325605   4.567   5.837   1.829 -0.3086  0.1836  0.4215
   52MOL     C425606   4.476   5.943   1.814 -0.7124 -0.1634  0.7784
   52MOL     C525607   4.419   5.982   1.949 -0.0158  0.3975  0.1733
   52MOL     C625608   4.307   6.087   1.927  0.6237 -0.1917 -0.9843
   52MOL     C725609   4.259   6.138   2.070 -0.3912  0.0578 -0.1277
   52MOL     C825610   4.213   6.035   2.176 -0.1264 -0.1674 -0.2822
   52MOL     C925611   4.153   6.094   2.304 -0.8181  0.7374  0.0127
   52MOL    H1025612   4.877   5.815   1.706  0.4423  0.3851  1.3079
   52MOL    H1125613   4.807   5.963   1.744  1.7460 -0.9872 -0.3879
   52MOL    H1225614   4.611   5.868   1.633 -1.6572 -1.9986  0.5402
   52MOL    H1325615   4.396   5.920   1.744  1.5299  1.3468 -2.4308
   52MOL    H1425616   4.532   6.030   1.781  1.8882 -1.3939  1.7725
   52MOL    H1525617   4.499   6.036   1.999  4.2106 -3.4133 -2.1052
   52MOL    H1625618   4.390   5.895   2.008  1.3835  0.9509  1.7230
   52MOL    H1725619   4.341   6.174   1.871  1.2891  0.0957 -0.1411
   52MOL    H1825620   4.220   6.045   1.876 -0.2970  1.6670 -0.9881
   52MOL    H1925621   4.347   6.186   2.113  1.1517 -1.1716 -1.8319
   52MOL    H2025622   4.178   6.207   2.049 -0.4421  0.8651  2.5012
   52MOL    H2125623   4.300   5.974   2.200  0.0370 -0.3549 -1.3475
   52MOL    H2225624   4.129   5.984   2.129  1.4044 -0.9905 -2.1609
   52MOL    H2325625   4.122   6.009   2.365 -0.0832  0.7692  0.4493
   52MOL    H2425626   4.233   6.133   2.367 -1.9226  1.5083  0.9626
   52MOL    H2525627   4.062   6.152   2.291 -2.2743 -0.9302  2.4509
   52MOL    H2625628   4.802   5.834   1.865  0.7308  0.1540  0.2525
   52MOL    C2725629   4.649   5.664   1.673  0.0608  0.6422 -0.5740
   52MOL    C2825630   4.512   5.622   1.614 -1.0429 -0.2049  0.1795
   52MOL    O2925631   4.501   5.677   1.483 -0.2406 -0.0475 -0.5152
   52MOL    C3025632   4.613   5.652   1.392  0.1299 -0.9680  1.0419
   52MOL    C3125633   4.580   5.660   1.248  0.7671  0.4794  0.2614
   52MOL    C3225634   4.491   5.540   1.187  0.1355 -0.0604  0.9936
   52MOL    C3325635   4.475   5.553   1.033 -1.0036  0.6879 -0.4546
   52MOL    C3425636   4.422   5.428   0.971 -0.0055  0.2276  0.1622
   52MOL    C3525637   4.523   5.310   0.977  0.4892 -0.0314  0.0503
   52MOL    H3625638   4.730   5.637   1.606 -0.8452 -1.1741 -0.9798
   52MOL    H3725639   4.661   5.613   1.769  2.2677  1.1007 -0.5963
   52MOL    H3825640   4.434   5.669   1.674 -1.7788  1.4488 -1.9884
   52MOL    H3925641   4.667   5.562   1.422  0.0420 -2.0977 -2.0535
   52MOL    H4025642   4.679   5.736   1.418  0.0508 -1.0575  1.5482
   52MOL    H4125643   4.676   5.657   1.197  0.3323  3.3214 -0.8383
   52MOL    H4225644   4.541   5.757   1.214 -0.4872 -0.1597 -0.1581
   52MOL    H4325645   4.536   5.444   1.210 -1.7570 -1.7527 -2.0256
   52MOL    H4425646   4.389   5.545   1.225 -0.4452 -0.9905 -0.4069
   52MOL    H4525647   4.414   5.640   1.011 -0.7046  0.4166 -2.4931
   52MOL    H4625648   4.570   5.566   0.981 -0.3543  0.3850  0.6301
   52MOL    H4725649   4.334   5.389   1.021 -1.2334  2.3203 -0.2900
   52MOL    H4825650   4.402   5.460   0.869 -0.6328  0.5367  0.3842
   52MOL    H4925651   4.550   5.279   1.078  1.5623  0.4845 -0.0709
   52MOL    H5025652   4.488   5.220   0.927 -0.5880  0.2500  0.2872
   52MOL    H5125653   4.619   5.338   0.933  2.0502 -2.4408  1.8078
   52MOL    C5225654   4.495   5.475   1.610 -0.6694 -0.4513 -0.1639
   52MOL    C5325655   4.367   5.438   1.520  0.3360 -0.2127 -0.1238
   52MOL    O5425656   4.355   5.298   1.516  0.5221 -0.4785  0.2473
   52MOL    C5525657   4.275   5.233   1.419  0.4184  0.6533  0.1409
   52MOL    C5625658   4.286   5.087   1.451  0.1813 -0.2136 -0.2218
   52MOL    C5725659   4.225   4.997   1.344  0.1673  0.4975  0.1367
   52MOL    C5825660   4.070   5.018   1.341 -0.2989  0.0654 -0.1273
   52MOL    C5925661   3.992   4.919   1.264  0.2917  0.0169  0.2032
   52MOL    C6025662   4.052   4.881   1.126  0.7065 -0.6869 -0.3046
   52MOL    H6125663   4.480   5.439   1.712 -1.4428  1.7417  0.5282
   52MOL    H6225664   4.586   5.422   1.584  0.7823  1.1706  1.4793
   52MOL    H6325665   4.381   5.464   1.415 -1.4071 -3.3559 -1.2266
   52MOL    H6425666   4.307   5.244   1.315  3.5524 -0.4967  0.9237
   52MOL    H6525667   4.170   5.262   1.425  0.4633  0.4036  2.7993
   52MOL    H6625668   4.242   5.062   1.547 -0.1730  0.0919 -0.3033
   52MOL    H6725669   4.391   5.059   1.461 -0.8874 -4.0366  1.5661
   52MOL    H6825670   4.286   5.009   1.254 -1.3281 -1.4810 -1.1838
   52MOL    H6925671   4.249   4.894   1.371  3.2776  1.2944  0.6506
   52MOL    H7025672   4.027   5.024   1.441 -1.2684  0.8767 -0.5890
   52MOL    H7125673   4.057   5.120   1.304  1.7347  0.1953 -0.5660
   52MOL    H7225674   4.000   4.828   1.324  0.9216 -0.3499 -0.4234
   52MOL    H7325675   3.889   4.947   1.245  0.2126  0.7422  1.6656
   52MOL    H7425676   4.058   4.970   1.064 -0.1902 -1.6277 -1.7599
   52MOL    H7525677   4.147   4.833   1.152  1.0909  0.4707  0.4975
   52MOL    H7625678   3.988   4.799   1.095 -0.9521  0.5708 -0.2523
   52MOL    C7725679   4.237   5.492   1.565  0.1223  0.1855 -0.1730
   52MOL    C7825680   4.176   5.590   1.467  0.0758  0.7431 -0.2072
   52MOL    O7925681   4.073   5.649   1.539 -0.8397  0.0951  0.1718
   52MOL    C8025682   4.100   5.777   1.588 -0.0475 -0.3363  0.0925
   52MOL    C8125683   4.021   5.802   1.714  0.4226  0.0078 -0.8316
   52MOL    C8225684   4.052   5.694   1.822 -0.5874  0.7511 -0.1082
   52MOL    C8325685   3.989   5.726   1.955 -0.3080  0.2107  0.5227
   52MOL    C8425686   3.842   5.684   1.974 -0.1049 -0.4461 -0.6701
   52MOL    C8525687   3.809   5.536   1.939 -0.0848 -0.0546  0.9285
   52MOL    H8625688   4.262   5.553   1.652 -0.1500  1.1475 -0.7650
   52MOL    H8725689   4.171   5.421   1.617  0.1788  0.3542  0.1304
   52MOL    H8825690   4.250   5.661   1.430  0.3108  1.7054  2.0657
   52MOL    H8925691   4.071   5.851   1.514  0.0637 -0.7938 -0.4107
   52MOL    H9025692   4.206   5.783   1.612  0.1244  1.3892 -0.9950
   52MOL    H9125693   3.914   5.785   1.701  0.1594  0.8443  0.1424
   52MOL    H9225694   4.040   5.902   1.754 -3.0933  0.1289  0.7638
   52MOL    H9325695   4.034   5.599   1.773 -0.8681  1.7216 -1.9468
   52MOL    H9425696   4.160   5.702   1.841 -0.7648 -1.0324  1.7927
   52MOL    H9525697   4.041   5.691   2.044 -0.7089  2.8483  1.8548
   52MOL    H9625698   3.988   5.834   1.971  1.5267 -0.1198  3.1610
   52MOL    H9725699   3.804   5.716   2.071 -1.4318 -1.1471 -0.9508
   52MOL    H9825700   3.786   5.745   1.903  0.8224 -0.5741 -1.5158
   52MOL    H9925701   3.781   5.520   1.835  0.1926 -1.6921  1.1015
   52MOL   H10025702   3.875   5.463   1.985  0.6489 -1.2789 -1.9682
   52MOL   H10125703   3.711   5.514   1.980 -0.6747 -0.7114 -0.8223
   52MOL   C10225704   4.110   5.522   1.350  0.3905 -0.8054 -0.3595
   52MOL   C10325705   4.049   5.616   1.243  0.2790  0.3309  0.0822
   52MOL   O10425706   4.157   5.708   1.222 -0.1971  0.1175 -0.8611
   52MOL   C10525707   4.112   5.835   1.168 -0.0708 -0.2402 -0.0728
   52MOL   C10625708   4.236   5.932   1.168  0.2796 -0.3253 -0.6000
   52MOL   C10725709   4.277   5.971   1.308  0.3435  0.1354 -0.1555
   52MOL   C10825710   4.416   6.032   1.311  0.2477 -0.4697  0.0778
   52MOL   C10925711   4.454   6.057   1.458  0.5075  0.1000  0.4989
   52MOL   C11025712   4.587   6.116   1.482  0.8271  0.5687 -0.2424
   52MOL   H11125713   4.185   5.467   1.293  0.5681 -0.1183 -0.7939
   52MOL   H11225714   4.036   5.449   1.380 -0.6291  0.2768 -0.2179
   52MOL   H11325715   3.966   5.674   1.283  0.4303  1.4604 -1.1769
   52MOL   H11425716   4.043   5.885   1.236 -0.7171 -1.7332  0.4035
   52MOL   H11525717   4.080   5.828   1.064 -0.6809  2.7326 -0.1216
   52MOL   H11625718   4.215   6.023   1.112 -0.1429  0.5433  0.9420
   52MOL   H11725719   4.314   5.888   1.106  0.5308 -2.2995  1.0611
   52MOL   H11825720   4.209   6.036   1.363  2.1566  2.3315 -0.4695
   52MOL   H11925721   4.278   5.873   1.356 -3.2148  1.1179  2.1070
   52MOL   H12025722   4.498   5.976   1.266  1.3622  0.9068  0.3539
   52MOL   H12125723   4.409   6.135   1.276  2.9341 -0.8236 -1.6759
   52MOL   H12225724   4.383   6.129   1.498  1.0954  0.2004  1.3809
   52MOL   H12325725   4.451   5.964   1.514 -1.7154  1.0443  2.0075
   52MOL   H12425726   4.585   6.216   1.440  3.3740  0.1658 -1.4648
   52MOL   H12525727   4.618   6.142   1.583 -0.3940  2.7312 -0.3943
   52MOL   H12625728   4.660   6.054   1.429 -0.0253 -1.1288  0.5230
   52MOL   C12725729   4.013   5.556   1.113 -0.3555  0.6572  0.2599
   52MOL   C12825730   3.916   5.440   1.112 -0.3108  0.4329 -0.4875
   52MOL   O12925731   3.911   5.380   0.987 -0.1898 -0.0842 -0.2372
   52MOL   C13025732   3.979   5.253   0.976 -0.3787 -0.1874 -0.6805
   52MOL   C13125733   3.951   5.196   0.837 -0.3300 -0.2166 -0.8070
   52MOL   C13225734   3.796   5.208   0.806 -0.2759  0.3160  0.5299
   52MOL   C13325735   3.785   5.166   0.664 -0.0364 -0.6497 -0.3025
   52MOL   C13425736   3.642   5.155   0.625  0.1707  0.3503  0.1821
   52MOL   C13525737   3.612   5.097   0.485  0.1972  0.1783 -0.1874
   52MOL   H13625738   3.976   5.634   1.047 -0.0313  0.5757 -0.0137
   52MOL   H13725739   4.110   5.523   1.076 -1.0038 -0.2978 -0.5896
   52MOL   H13825740   3.923   5.372   1.196 -0.3317  1.2558  0.1805
   52MOL   H13925741   3.931   5.185   1.047  0.6688 -0.1418  0.0745
   52MOL   H14025742   4.085   5.257   0.998 -0.2482 -0.5705 -1.2319
   52MOL   H14125743   3.973   5.090   0.827 -0.5638 -0.2171 -1.2973
   52MOL   H14225744   4.012   5.247   0.762 -1.4458  0.8101 -1.0119
   52MOL   H14325745   3.748   5.144   0.880 -0.4054  0.4414  0.5567
   52MOL   H14425746   3.764   5.310   0.829  0.5727  0.3454  1.5782
   52MOL   H14525747   3.830   5.235   0.594  0.2840  0.4540  0.9690
   52MOL   H14625748   3.831   5.070   0.638  2.0467  0.5773 -1.2218
   52MOL   H14725749   3.580   5.096   0.692 -0.2654 -0.8213 -1.2285
   52MOL   H14825750   3.607   5.258   0.631 -0.0143  0.3004 -0.0529
   52MOL   H14925751   3.664   5.158   0.412  1.0021  1.3856  1.3538
   52MOL   H15025752   3.647   4.995   0.469 -2.1392 -0.7556  0.4898
   52MOL   H15125753   3.506   5.096   0.461 -0.1758 -0.6377  1.3613
   52MOL   C15225754   3.768   5.498   1.127  0.1523  0.0152 -1.0961
   52MOL   C15325755   3.654   5.399   1.136 -0.4585 -0.0223  0.0732
   52MOL   O15425756   3.651   5.337   1.265  0.5271 -0.3579  0.1133
   52MOL   C15525757   3.696   5.206   1.263 -0.2008 -0.3307 -0.7304
   52MOL   C15625758   3.710   5.140   1.402  0.2061 -0.5717  0.6183
   52MOL   C15725759   3.808   5.220   1.494 -0.1190  0.3438 -0.0764
   52MOL   C15825760   3.824   5.141   1.621  0.5161  0.6791 -0.3450
   52MOL   C15925761   3.885   5.233   1.733  0.2502  0.9005 -0.1485
   52MOL   C16025762   4.033   5.197   1.761 -0.1250 -0.3941  0.5747
   52MOL   H16125763   3.769   5.565   1.212  1.2560  0.4041 -1.4025
   52MOL   H16225764   3.750   5.559   1.038 -0.6956 -0.7941 -1.4935
   52MOL   H16325765   3.664   5.330   1.052 -2.4712  2.9966 -2.7484
   52MOL   H16425766   3.797   5.201   1.223  0.5270 -3.4674  1.2953
   52MOL   H16525767   3.622   5.145   1.210 -1.4859  0.7430 -0.2159
   52MOL   H16625768   3.742   5.037   1.389  0.3715 -0.2910 -1.2098
   52MOL   H16725769   3.613   5.149   1.452  0.6119  2.1605  1.0051
   52MOL   H16825770   3.909   5.239   1.458  1.0015 -0.7500  2.3193
   52MOL   H16925771   3.762   5.317   1.510 -1.1044 -0.3125  1.1936
   52MOL   H17025772   3.721   5.127   1.654  0.7326 -0.7778 -0.2447
   52MOL   H17125773   3.871   5.043   1.611  1.4837  0.7881  2.5397
   52MOL   H17225774   3.875   5.338   1.706 -2.0115  0.5100 -0.9411
   52MOL   H17325775   3.834   5.214   1.827  1.3591 -1.1581  0.0829
   52MOL   H17425776   4.048   5.100   1.808  0.0182 -0.8452 -0.3796
   52MOL   H17525777   4.097   5.173   1.676 -0.3303 -1.0991  0.6168
   52MOL   H17625778   4.076   5.285   1.809  1.1381 -0.7149  0.0348
   52MOL   C17725779   3.513   5.458   1.125 -0.2860  0.2948 -0.5535
   52MOL   C17825780   3.406   5.360   1.082 -0.1213 -0.0866  0.3758
   52MOL   O17925781   3.392   5.258   1.180 -0.8554  0.0462 -0.1482
   52MOL   C18025782   3.326   5.139   1.137 -1.0093 -0.1174 -0.0853
   52MOL   C18125783   3.346   5.049   1.258 -0.0302  0.2729  0.0036
   52MOL   C18225784   3.258   4.925   1.245  0.0819 -0.1423 -0.3269
   52MOL   C18325785   3.291   4.810   1.333 -0.2632 -0.0067 -0.0502
   52MOL   C18425786   3.186   4.694   1.320 -0.5307  0.1558 -0.2209
   52MOL   C18525787   3.045   4.732   1.365 -0.3204 -0.0906  0.0656
   52MOL   H18625788   3.490   5.509   1.219  3.3129 -1.3748  1.3346
   52MOL   H18725789   3.521   5.537   1.051 -2.0165  0.1785 -0.8903
   52MOL   H18825790   3.443   5.323   0.986  0.7924  0.6112  0.4522
   52MOL   H18925791   3.379   5.093   1.054 -1.0839  2.0228 -1.3534
   52MOL   H19025792   3.221   5.156   1.112 -0.4813  0.5045 -1.9622
   52MOL   H19125793   3.333   5.104   1.352  1.8677 -1.0044  1.0512
   52MOL   H19225794   3.448   5.017   1.278  0.2777  0.0300 -1.8858
   52MOL   H19325795   3.162   4.966   1.276 -0.1468 -2.0050  1.5005
   52MOL   H19425796   3.264   4.897   1.140 -3.3537 -0.7737 -0.3984
   52MOL   H19525797   3.394   4.777   1.323 -0.3540 -0.5848  0.9064
   52MOL   H19625798   3.287   4.845   1.436 -1.7756  1.0867 -0.4595
   52MOL   H19725799   3.191   4.651   1.220  1.1828  1.0919 -0.5479
   52MOL   H19825800   3.213   4.613   1.389  0.6995  1.6453  1.0743
   52MOL   H19925801   3.041   4.783   1.460 -2.9866  1.9731 -1.0869
   52MOL   H20025802   3.011   4.797   1.285 -0.3825 -0.4562 -0.2097
   52MOL   H20125803   2.974   4.649   1.359 -1.7358  0.9335  2.2971
   52MOL   C20225804   3.266   5.431   1.047  0.9312  0.0622 -0.0153
   52MOL   C20325805   3.272   5.539   0.934  0.1773  0.6891 -0.3147
   52MOL   O20425806   3.149   5.578   0.880 -0.2027 -0.1843 -0.0660
   52MOL   C20525807   3.077   5.670   0.955 -0.1098  0.0226  0.1172
   52MOL   C20625808   2.955   5.713   0.881 -0.0924  0.5318 -0.3546
   52MOL   C20725809   2.983   5.815   0.774 -0.7044  0.0272 -0.7232
   52MOL   C20825810   2.863   5.881   0.718  0.8050  0.9047  0.2425
   52MOL   C20925811   2.815   5.795   0.597  0.9326  0.2275  0.5545
   52MOL   C21025812   2.721   5.877   0.506  0.0752  0.5847 -0.4026
   52MOL   H21125813   3.191   5.358   1.016  1.0260  0.6980 -1.8180
   52MOL   H21225814   3.227   5.472   1.140  0.8426 -0.8435  0.3497
   52MOL   H21325815   3.328   5.626   0.968 -2.3801  1.6071  1.6820
   52MOL   H21425816   3.140   5.755   0.984 -0.3217  0.4866 -0.7410
   52MOL   H21525817   3.043   5.629   1.050 -1.7664  0.4031 -0.3006
   52MOL   H21625818   2.883   5.765   0.945  0.3740 -0.3876  0.9455
   52MOL   H21725819   2.905   5.627   0.837  0.1781 -0.5182  1.3122
   52MOL   H21825820   3.025   5.896   0.834 -1.0374 -0.1117 -0.3022
   52MOL   H21925821   3.064   5.779   0.710 -0.2467 -1.2260  0.5580
   52MOL   H22025822   2.777   5.893   0.784 -1.4937 -2.3869 -1.9979
   52MOL   H22125823   2.888   5.981   0.683  0.2815  0.6733 -0.8284
   52MOL   H22225824   2.901   5.772   0.534  0.3411  1.7342 -0.8475
   52MOL   H22325825   2.768   5.704   0.634 -1.4587  0.6394 -1.3625
   52MOL   H22425826   2.696   5.830   0.411 -1.7852  3.2547 -1.2944
   52MOL   H22525827   2.626   5.890   0.557 -0.7794 -3.3014 -0.8733
   52MOL   H22625828   2.754   5.977   0.477 -1.2695  0.9244 -0.7548
   52MOL   C22725829   3.345   5.485   0.808  0.3064 -0.0249 -0.0952
   52MOL   C22825830   3.339   5.574   0.673  0.4164 -0.0648 -0.9342
   52MOL   O22925831   3.418   5.696   0.693 -0.2852 -0.1524 -0.5199
   52MOL   C23025832   3.350   5.821   0.726 -0.2256  0.7067 -0.1970
   52MOL   C23125833   3.453   5.933   0.727 -0.0931  0.4032  0.0189
   52MOL   C23225834   3.545   5.934   0.849 -0.0495  0.2075 -0.7598
   52MOL   C23325835   3.631   6.062   0.848 -0.2813  0.0256  0.0812
   52MOL   C23425836   3.712   6.077   0.980 -0.4301 -0.2538  0.3585
   52MOL   C23525837   3.818   6.191   0.998  0.5268 -0.2875 -0.3990
   52MOL   H23625838   3.451   5.467   0.828  0.2177  0.6396  1.0846
   52MOL   H23725839   3.302   5.386   0.791 -0.0800  0.0791  0.2602
   52MOL   H23825840   3.233   5.598   0.657  0.6845  1.5751 -0.3389
   52MOL   H23925841   3.291   5.808   0.817 -1.1232 -3.0061 -1.2337
   52MOL   H24025842   3.286   5.830   0.639 -0.6515 -2.2526 -0.2329
   52MOL   H24125843   3.404   6.030   0.730  1.4241  1.1383  1.7801
   52MOL   H24225844   3.510   5.927   0.635 -2.4144 -1.0270 -1.3724
   52MOL   H24325845   3.479   5.939   0.936 -0.0832  0.4917 -0.8003
   52MOL   H24425846   3.599   5.841   0.865  0.4727  0.5293 -0.6194
   52MOL   H24525847   3.692   6.071   0.758 -0.4090 -0.7852 -0.0864
   52MOL   H24625848   3.559   6.142   0.833 -2.1542 -1.5404  0.5143
   52MOL   H24725849   3.637   6.098   1.056  0.0509  1.8988  0.2729
   52MOL   H24825850   3.769   5.988   1.002  1.9186  0.8904 -0.8990
   52MOL   H24925851   3.906   6.172   0.936  0.6679 -0.0935 -0.2608
   52MOL   H25025852   3.772   6.284   0.966  2.8149  1.0516  0.1134
   52MOL   H25125853   3.863   6.193   1.097 -1.1387 -2.6972  0.4650
   52MOL   C25225854   3.396   5.512   0.549  0.2815  1.1472  0.7164
   52MOL   C25325855   3.309   5.401   0.487 -0.3628 -0.3156  0.3203
   52MOL   O25425856   3.327   5.274   0.558 -0.4204 -0.3222 -0.8714
   52MOL   C25525857   3.233   5.166   0.548  0.4869  0.8076 -0.0908
   52MOL   C25625858   3.261   5.065   0.662 -0.6693 -0.6188  0.0052
   52MOL   C25725859   3.154   4.957   0.665 -0.2501 -0.0572  0.2512
   52MOL   C25825860   3.156   4.868   0.786  1.1514  0.2041 -0.6297
   52MOL   C25925861   3.037   4.772   0.788 -0.2420 -0.6932 -0.3745
   52MOL   C26025862   3.042   4.712   0.928  0.5149 -0.0650 -0.4437
   52MOL   H26125863   3.392   5.586   0.470 -1.6141 -0.1901 -0.4712
   52MOL   H26225864   3.497   5.471   0.553 -0.4586 -0.9125 -0.9745
   52MOL   H26325865   3.207   5.440   0.491 -0.1165  0.4266 -0.3838
   52MOL   H26425866   3.232   5.121   0.449  3.7181 -1.2162  0.7276
   52MOL   H26525867   3.137   5.211   0.574 -0.1472 -0.7304  0.2801
   52MOL   H26625868   3.259   5.122   0.755  2.6307  0.1132 -0.3143
   52MOL   H26725869   3.362   5.024   0.665  0.8488  2.4679 -3.7478
   52MOL   H26825870   3.054   5.001   0.668 -1.1286 -2.0171  0.0622
   52MOL   H26925871   3.172   4.911   0.568  1.2404 -1.5234  1.2168
   52MOL   H27025872   3.247   4.809   0.794  1.4866  1.0684  2.7414
   52MOL   H27125873   3.153   4.932   0.874 -1.6904 -1.8605  0.8362
   52MOL   H27225874   2.943   4.825   0.771  0.9275  1.7186  0.3476
   52MOL   H27325875   3.032   4.693   0.714 -1.6974 -0.5978 -0.3954
   52MOL   H27425876   3.136   4.665   0.957  0.5079  0.6063  0.6734
   52MOL   H27525877   3.027   4.792   1.001 -0.3157 -0.1194 -0.5527
   52MOL   H27625878   2.960   4.642   0.944 -1.6488  2.8841  2.0303
   52MOL   C27725879   3.353   5.379   0.339  0.1233 -0.1335  0.1069
   52MOL   C27825880   3.246   5.416   0.233 -0.0331 -0.6863 -0.6118
   52MOL   O27925881   3.230   5.552   0.259 -0.3708  0.2824 -0.0638
   52MOL   C28025882   3.097   5.590   0.273  0.0092  0.1262  0.2658
   52MOL   C28125883   3.071   5.737   0.291 -0.0355  0.0025 -0.2171
   52MOL   C28225884   3.158   5.795   0.408 -0.3977  0.2688  0.5589
   52MOL   C28325885   3.129   5.947   0.419  0.2670  0.3137 -0.4966
   52MOL   C28425886   3.211   6.037   0.324  0.0987  0.1958  0.3798
   52MOL   C28525887   3.181   6.182   0.330 -0.5989  0.1740 -0.6026
   52MOL   H28625888   3.446   5.434   0.330 -0.2297  0.3224 -0.7690
   52MOL   H28725889   3.378   5.275   0.314  0.4501 -0.4347  1.6101
   52MOL   H28825890   3.163   5.347   0.246  0.1950 -0.6039  1.4299
   52MOL   H28925891   3.062   5.537   0.362  1.4849  0.1472  0.8899
   52MOL   H29025892   3.041   5.549   0.190 -0.7400  1.8979 -0.1241
   52MOL   H29125893   2.964   5.735   0.308 -0.1097 -2.9964 -0.7387
   52MOL   H29225894   3.083   5.800   0.202 -0.3492 -2.2207 -1.8667
   52MOL   H29325895   3.131   5.740   0.498 -0.7566 -1.2038 -0.4220
   52MOL   H29425896   3.261   5.762   0.390 -0.6178 -0.6212  0.9158
   52MOL   H29525897   3.022   5.967   0.412  0.1013 -0.2015  0.5532
   52MOL   H29625898   3.156   5.975   0.521 -2.0052  1.3546 -0.1280
   52MOL   H29725899   3.313   6.003   0.345 -0.7606 -1.6057  1.8152
   52MOL   H29825900   3.201   6.009   0.220  3.4121  3.0977 -0.8258
   52MOL   H29925901   3.072   6.189   0.326 -0.6646 -0.9818 -1.2230
   52MOL   H30025902   3.218   6.230   0.420 -0.8940  0.0012 -0.3900
   52MOL   H30125903   3.215   6.246   0.249 -0.8871  1.5491  0.3421
   52MOL   C30225904   3.302   5.412   0.096  0.3418  0.4227  0.0713
   52MOL   C30325905   3.202   5.409   7.754  0.6022 -0.4165 -0.1949
   52MOL   O30425906   3.127   5.290   7.764  0.8597  0.2557  0.1138
   52MOL   C30525907   3.171   5.159   7.733  0.2392 -0.1634  0.0108
   52MOL   C30625908   3.072   5.070   0.035 -0.3412  1.1248  0.2623
   52MOL   C30725909   3.099   4.921   0.019  0.0200  0.3281 -0.4695
   52MOL   C30825910   3.027   4.848   0.131  0.3811 -0.1623  0.1368
   52MOL   C30925911   3.088   4.854   0.276 -0.2610  0.6614 -0.1030
   52MOL   C31025912   3.018   4.754   0.369 -0.6163 -0.4172 -0.0237
   52MOL   H31125913   3.361   5.502   0.083 -0.4441  1.3632  2.5996
   52MOL   H31225914   3.373   5.331   0.082 -1.4771 -0.8781 -2.0305
   52MOL   H31325915   3.135   5.494   7.752 -1.3076 -1.8775 -0.5236
   52MOL   H31425916   3.276   5.146   7.756  0.1471  0.0434  0.5436
   52MOL   H31525917   3.164   5.141   7.625  1.6354 -1.4477  0.1143
   52MOL   H31625918   2.968   5.077   0.003  0.2956  0.7853 -1.9239
   52MOL   H31725919   3.092   5.092   0.140  0.1792  2.0176 -0.0209
   52MOL   H31825920   3.048   4.899   7.703 -1.1594 -0.0227  0.2489
   52MOL   H31925921   3.203   4.890   0.010  0.2616  1.5586 -2.1819
   52MOL   H32025922   2.919   4.864   0.133  0.5850  1.7414 -1.6317
   52MOL   H32125923   3.036   4.743   0.103  1.3767  0.6395 -2.7252
   52MOL   H32225924   3.192   4.832   0.254 -0.7954 -2.9927  0.6968
   52MOL   H32325925   3.090   4.952   0.323  2.9343 -0.1404  1.5365
   52MOL   H32425926   2.917   4.732   0.335 -0.8912 -0.5517  0.8837
   52MOL   H32525927   3.067   4.657   0.370  1.2770  0.4865 -1.0469
   52MOL   H32625928   3.022   4.789   0.472  2.8615  3.7543 -1.4021
   52MOL   C32725929   3.284   5.402   7.620  0.5619  0.0027  0.2188
   52MOL   C32825930   3.295   5.539   7.545 -0.4300 -0.2136  0.5863
   52MOL   O32925931   3.387   5.623   7.612 -0.2629  0.1657 -0.1162
   52MOL   C33025932   3.340   5.739   7.670 -0.1997  0.1314 -0.2359
   52MOL   C33125933   3.444   5.822   7.732 -0.3730 -0.0746 -0.3027
   52MOL   C33225934   3.471   5.780   0.095 -0.2100 -0.0246  0.2273
   52MOL   C33325935   3.578   5.852   0.178 -0.6160  0.0749 -0.3556
   52MOL   C33425936   3.572   5.808   0.320 -0.5287 -0.5422 -0.8026
   52MOL   C33525937   3.711   5.832   0.385  0.4125 -0.5471  0.3694
   52MOL   H33625938   3.245   5.331   7.548 -0.7734 -1.2786  2.1703
   52MOL   H33725939   3.389   5.384   7.642  0.8562  1.9417  0.4918
   52MOL   H33825940   3.197   5.583   7.529  0.1311  0.7887 -0.1419
   52MOL   H33925941   3.262   5.708   7.739 -0.3272  0.0690 -0.4084
   52MOL   H34025942   3.299   5.800   7.590 -2.1067 -0.6349  0.1318
   52MOL   H34125943   3.419   5.927   7.719  3.5862  1.0542  0.4343
   52MOL   H34225944   3.533   5.809   7.671 -0.0805 -1.9519  0.4847
   52MOL   H34325945   3.374   5.784   0.145  0.0339 -2.1972  0.9695
   52MOL   H34425946   3.490   5.672   0.099  0.7765  0.1303 -0.2980
   52MOL   H34525947   3.678   5.841   0.136 -0.7705  5.3190 -2.5212
   52MOL   H34625948   3.562   5.959   0.164 -0.7427  0.0535 -0.3728
   52MOL   H34725949   3.499   5.875   0.365 -0.6087  0.3061 -2.1557
   52MOL   H34825950   3.564   5.700   0.330  0.2678 -0.4312  1.1756
   52MOL   H34925951   3.725   5.800   0.488 -2.9236 -1.6645  0.5228
   52MOL   H35025952   3.794   5.776   0.342  0.4348  0.2145 -0.6093
   52MOL   H35125953   3.737   5.938   0.394 -2.4636  0.1386  1.1916
   52MOL   C35225954   3.353   5.523   7.397 -0.0714 -0.6035 -0.2198
   52MOL   C35325955   3.361   5.655   7.319  0.0917  0.0854  0.0466
   52MOL   O35425956   3.298   5.650   7.193 -0.0387 -0.4533 -0.2516
   52MOL   C35525957   3.331   5.542   7.099 -0.1961  0.4897 -0.2140
   52MOL   C35625958   3.191   5.490   7.043  0.3153 -0.0945 -0.0343
   52MOL   C35725959   3.206   5.376   6.946  0.2955  0.6223 -0.1219
   52MOL   C35825960   3.289   5.407   6.824  1.2500 -0.4422  0.8998
   52MOL   C35925961   3.304   5.270   6.747  0.0979 -0.2854  0.9115
   52MOL   C36025962   3.369   5.288   6.606 -0.3964 -0.0267  0.4974
   52MOL   H36125963   3.450   5.472   7.401  0.7004  0.9859  1.8930
   52MOL   H36225964   3.276   5.460   7.352 -1.7591  0.8702  0.5491
   52MOL   H36325965   3.305   5.731   7.371 -1.3741 -0.6112 -0.4965
   52MOL   H36425966   3.385   5.465   7.154 -1.0288  0.7518  0.9782
   52MOL   H36525967   3.403   5.586   7.030 -0.5136  0.5711 -0.4960
   52MOL   H36625968   3.136   5.573   6.999  0.4157  0.5421  1.0248
   52MOL   H36725969   3.125   5.453   7.121 -1.8793  2.3832 -0.6348
   52MOL   H36825970   3.253   5.294   7.001  2.3473  0.7002 -1.7243
   52MOL   H36925971   3.103   5.358   6.914  0.4131  0.0611 -0.1834
   52MOL   H37025972   3.234   5.475   6.759  0.7711 -1.8608 -0.2126
   52MOL   H37125973   3.388   5.448   6.846  0.8360  0.2980  1.3906
   52MOL   H37225974   3.358   5.207   6.818 -0.7795  0.4397  2.2373
   52MOL   H37325975   3.201   5.238   6.734  0.5999 -1.5144 -0.1402
   52MOL   H37425976   3.409   5.196   6.565  1.1874  0.9251 -0.1433
   52MOL   H37525977   3.289   5.314   6.536 -1.1168  0.7138  1.5664
   52MOL   H37625978   3.448   5.362   6.614  0.2273 -0.6163 -0.1729
   52MOL   C37725979   3.507   5.705   7.304  0.0583 -0.0120  0.0244
   52MOL   C37825980   3.502   5.848   7.243 -0.2248  0.7113  0.4637
   52MOL   O37925981   3.636   5.885   7.213  0.6388  0.5678 -0.5479
   52MOL   C38025982   3.639   5.922   7.078  0.0923  0.4683 -0.2747
   52MOL   C38125983   3.756   6.010   7.057 -0.0592 -0.7120 -0.6813
   52MOL   C38225984   3.741   6.145   7.134 -0.0982 -0.4675  0.5768
   52MOL   C38325985   3.849   6.248   7.097 -0.3035  0.7922 -0.3475
   52MOL   C38425986   3.984   6.198   7.153 -1.0154  0.2799 -0.0812
   52MOL   C38525987   4.103   6.285   7.116 -0.1669  0.3179  0.2521
   52MOL   H38625988   3.550   5.719   7.403  2.2500 -1.7368 -0.6513
   52MOL   H38725989   3.567   5.637   7.243 -1.6248 -0.6877 -0.9005
   52MOL   H38825990   3.426   5.850   7.165 -0.3433 -1.2424  0.5156
   52MOL   H38925991   3.550   5.977   7.047 -2.4252 -2.6704  1.0889
   52MOL   H39025992   3.641   5.834   7.013 -0.8660 -1.3978  2.1503
   52MOL   H39125993   3.763   6.050   6.956  1.0925 -0.6153 -0.5677
   52MOL   H39225994   3.849   5.956   7.076  0.5198 -0.1763 -1.9505
   52MOL   H39325995   3.652   6.196   7.095  0.8861  2.4092  1.9898
   52MOL   H39425996   3.731   6.135   7.242  0.6689  0.6945  0.7649
   52MOL   H39525997   3.853   6.259   6.988 -0.7465  1.5943 -0.2875
   52MOL   H39625998   3.821   6.339   7.150  0.4966  0.3016  0.9526
   52MOL   H39725999   3.991   6.193   7.262  1.7326 -0.9850 -0.2644
   52MOL   H39826000   4.006   6.095   7.123 -0.6573  0.2936  0.1251
   52MOL   H39926001   4.118   6.301   7.009 -0.4642 -1.0191  0.0044
   52MOL   H40026002   4.084   6.374   7.177  0.1971  0.1271  0.6451
   52MOL   H40126003   4.196   6.240   7.149 -1.1763 -1.3352  0.9081
   52MOL   C40226004   3.452   5.959   7.335 -0.7783  0.2508 -0.1190
   52MOL   C40326005   3.404   6.095   7.265  0.1680 -0.2585 -0.0012
   52MOL   O40426006   3.357   6.195   7.357 -0.1892 -0.0514 -0.6887
   52MOL   C40526007   3.448   6.240   7.454 -0.8076 -0.1975 -0.9119
   52MOL   C40626008   3.402   6.374   7.514 -0.0043  0.3638 -0.2228
   52MOL   C40726009   3.266   6.362   7.587  0.0903  0.2478  1.0104
   52MOL   C40826010   3.226   6.493   7.660  0.4296 -0.2369  0.3917
   52MOL   C40926011   3.079   6.512   7.687  0.0858  0.6487 -0.3029
   52MOL   C41026012   3.008   6.394   7.758 -0.5484 -0.0402 -0.2289
   52MOL   H41126013   3.537   5.981   7.399  0.1708  1.0738 -1.6450
   52MOL   H41226014   3.371   5.924   7.399  0.1155 -0.4189  0.6764
   52MOL   H41326015   3.495   6.134   7.220 -0.3975  0.8596 -0.1863
   52MOL   H41426016   3.552   6.243   7.424 -0.1873 -1.4154  1.0329
   52MOL   H41526017   3.442   6.161   7.528  0.8630 -1.2088 -1.8300
   52MOL   H41626018   3.399   6.446   7.432  0.0784  1.4500  0.7193
   52MOL   H41726019   3.478   6.403   7.586  1.1651 -1.9941 -0.4779
   52MOL   H41826020   3.193   6.341   7.509  0.1739  0.9764  0.7337
   52MOL   H41926021   3.265   6.277   7.656 -0.7549 -0.3691  0.2527
   52MOL   H42026022   3.290   6.493   7.748 -1.1709 -1.0200  1.5703
   52MOL   H42126023   3.250   6.584   7.605  0.8291 -0.4380  0.2266
   52MOL   H42226024   3.062   6.602   7.746 -1.6804  0.8187 -1.0319
   52MOL   H42326025   3.038   6.532   7.588 -0.0466 -1.6028 -0.7232
   52MOL   H42426026   3.047   6.365   0.078 -1.6878  1.3817  0.6632
   52MOL   H42526027   2.900   6.403   7.775 -0.5059  3.3280 -1.4437
   52MOL   H42626028   3.020   6.298   7.707 -0.2072 -0.2658  0.2733
   52MOL   C42726029   3.285   6.088   7.163  0.1641 -0.0471 -0.4037
   52MOL   C42826030   3.256   6.221   7.084 -0.4295 -0.1624  0.1134
   52MOL   O42926031   3.288   6.204   6.948 -0.2400 -0.1890 -0.2144
   52MOL   C43026032   3.417   6.247   6.914  0.0201  0.0683  0.4420
   52MOL   C43126033   3.439   6.229   6.757  0.0582 -0.6290  0.1351
   52MOL   C43226034   3.356   6.324   6.670 -0.2384 -0.1263  0.1509
   52MOL   C43326035   3.408   6.348   6.528  0.4271  0.2699  0.4568
   52MOL   C43426036   3.340   6.459   6.454 -0.1928 -0.0971 -0.5953
   52MOL   C43526037   3.375   6.490   6.312  0.0163 -0.0997 -0.3193
   52MOL   H43626038   3.313   6.011   7.091  2.0178  0.5639 -0.3739
   52MOL   H43726039   3.203   6.044   7.219 -0.1975 -0.5494 -1.3095
   52MOL   H43826040   3.311   6.305   7.129 -3.3710  0.4222  2.7808
   52MOL   H43926041   3.486   6.184   6.971  0.2771 -0.0937 -0.0479
   52MOL   H44026042   3.426   6.350   6.947 -0.4120  0.8516 -1.8274
   52MOL   H44126043   3.409   6.125   6.746 -1.5665 -0.1131 -0.4614
   52MOL   H44226044   3.546   6.240   6.738  0.0353 -0.6007  0.0196
   52MOL   H44326045   3.252   6.290   6.664 -0.6449  1.3803 -1.9669
   52MOL   H44426046   3.347   6.421   6.720 -3.0420  0.3492 -1.1497
   52MOL   H44526047   3.515   6.369   6.533  0.6116 -0.6572  0.4734
   52MOL   H44626048   3.398   6.253   6.475  1.3527  0.0590  0.6561
   52MOL   H44726049   3.233   6.440   6.458 -0.5606  2.0382  0.6438
   52MOL   H44826050   3.356   6.552   6.509  2.3585 -0.9131  0.1261
   52MOL   H44926051   3.482   6.506   6.308  0.0736 -0.4751 -0.2656
   52MOL   H45026052   3.335   6.413   6.245  2.3306 -1.2155 -0.4737
   52MOL   H45126053   3.335   6.585   6.274  0.0787 -0.6649 -1.8630
   52MOL   C45226054   3.109   6.264   7.094  0.2887  0.0569 -0.0164
   52MOL   C45326055   3.088   6.406   7.035 -0.1781  0.1373 -0.6813
   52MOL   O45426056   2.967   6.458   7.090 -0.3641  0.6347 -0.9235
   52MOL   C45526057   2.992   6.539   7.204 -0.4022  0.4296  0.1165
   52MOL   C45626058   2.861   6.572   7.289  0.6481  0.1198 -0.6275
   52MOL   C45726059   2.793   6.441   7.345  0.4142  0.6380  0.4098
   52MOL   C45826060   2.640   6.449   7.387 -0.4381  0.0078  0.2046
   52MOL   C45926061   2.575   6.308   7.407  0.1854  0.6164 -0.5717
   52MOL   C46026062   2.443   6.317   7.473  0.5352  0.1463 -0.0958
   52MOL   H46126063   3.035   6.193   7.057 -0.0138  0.0353  0.6111
   52MOL   H46226064   3.092   6.281   7.200 -4.3234  1.2503 -0.8171
   52MOL   H46326065   3.179   6.466   7.042  0.0184  0.0422 -2.2070
   52MOL   H46426066   3.022   6.636   7.165 -1.1392  0.1478 -1.1945
   52MOL   H46526067   3.072   6.495   7.264  0.3544  0.8605 -0.5581
   52MOL   H46626068   2.796   6.619   7.215 -2.2556  1.0252  2.3823
   52MOL   H46726069   2.867   6.643   7.371 -1.1280 -0.1107 -0.2666
   52MOL   H46826070   2.798   6.376   7.258  0.8292  0.8847  0.2468
   52MOL   H46926071   2.861   6.393   7.416  0.8665  0.9582  0.2009
   52MOL   H47026072   2.637   6.512   7.475 -3.7095  0.4621 -0.1433
   52MOL   H47126073   2.582   6.494   7.305  1.1181 -1.3268 -1.6813
   52MOL   H47226074   2.554   6.260   7.311 -2.3662  2.1263 -0.8210
   52MOL   H47326075   2.637   6.241   7.466 -0.5934  0.6950  0.3328
   52MOL   H47426076   2.387   6.225   7.455 -0.8115  0.7726  0.8151
   52MOL   H47526077   2.458   6.340   7.578  2.2646  1.0886 -0.5395
   52MOL   H47626078   2.374   6.396   7.442 -0.7831 -1.2012 -0.6987
   52MOL   C47726079   3.065   6.411   6.885 -0.1388 -0.4558 -0.2734
   52MOL   C47826080   3.086   6.554   6.828  0.3702 -0.0837  0.2534
   52MOL   O47926081   3.044   6.543   6.691 -0.2188 -0.2525 -0.6396
   52MOL   C48026082   3.025   6.658   6.624  0.2599 -0.4899  0.0248
   52MOL   C48126083   2.948   6.628   6.492 -0.8217 -1.4737  0.2447
   52MOL   C48226084   2.806   6.576   6.516  0.0093 -0.2797 -0.2649
   52MOL   C48326085   2.717   6.594   6.390 -0.7157 -0.3720  0.4811
   52MOL   C48426086   2.574   6.538   6.426  0.2509 -0.7170 -0.3370
   52MOL   C48526087   2.482   6.552   6.306 -0.0186 -0.1796  0.3818
   52MOL   H48626088   3.130   6.337   6.838  0.2048 -1.1792  1.3145
   52MOL   H48726089   2.963   6.387   6.856  0.0522  0.2775 -1.6071
   52MOL   H48826090   3.029   6.637   6.869 -1.6363 -1.4653  0.3269
   52MOL   H48926091   3.116   6.714   6.601  0.0948 -0.5840 -0.8661
   52MOL   H49026092   2.950   6.720   6.672 -0.4448  0.8843 -2.7817
   52MOL   H49126093   3.002   6.551   6.436 -0.0341 -1.5863  1.1578
   52MOL   H49226094   2.937   6.726   6.445  0.4280 -0.4935  1.9311
   52MOL   H49326095   2.817   6.473   6.548  0.7540 -0.8102 -2.1552
   52MOL   H49426096   2.758   6.635   6.594 -1.2359 -0.9019 -0.5446
   52MOL   H49526097   2.703   6.699   6.364  0.0463 -0.4507 -0.2746
   52MOL   H49626098   2.761   6.541   6.305 -0.2521 -0.6578  0.8957
   52MOL   H49726099   2.576   6.433   6.454  1.1611 -0.5505  0.2772
   52MOL   H49826100   2.527   6.597   6.505  0.5127 -0.4710 -0.3637
   52MOL   H49926101   2.525   6.517   6.213  0.1697  0.0155  0.3943
   52MOL   H50026102   2.398   6.489   6.337  1.7617 -1.9884  1.6000
   52MOL   H50126103   2.463   6.660   6.303  0.8653  0.0348  1.8770
   52MOL   H50226104   3.192   6.578   6.830  0.4920 -0.5881 -0.2264
   53MOL     C126105   2.590   0.821   3.076  0.1556 -0.1965 -0.5919
   53MOL     C226106   2.484   0.722   3.045  0.1221  0.1093 -0.0205
   53MOL     O326107   2.477   0.614   3.140 -0.0666  0.3475  0.1635
   53MOL     C426108   2.404   0.639   3.256 -0.1402  0.6183 -0.5680
   53MOL     C526109   2.254   0.671   3.231 -0.5463  0.2959  0.2859
   53MOL     C626110   2.187   0.739   3.358  0.0811  0.6398  0.3037
   53MOL     C726111   2.040   0.763   3.325 -0.4602 -0.1342  0.1720
   53MOL     C826112   1.969   0.834   3.439 -1.1431  0.7692 -0.1289
   53MOL     C926113   1.817   0.835   3.434  0.1152  0.3631 -0.5706
   53MOL    H1026114   2.597   0.893   2.994 -0.5604  2.3346  1.4851
   53MOL    H1126115   2.569   0.870   3.171  0.6131  0.9196 -1.0589
   53MOL    H1226116   2.387   0.757   3.013 -0.4638 -2.5273 -1.2938
   53MOL    H1326117   2.453   0.728   3.295 -0.4333  0.6993 -0.3856
   53MOL    H1426118   2.401   0.549   3.318 -2.3958  1.1043  0.0893
   53MOL    H1526119   2.197   0.583   3.201 -0.5301  0.8205 -1.3177
   53MOL    H1626120   2.243   0.738   3.146 -1.8583 -1.0599 -0.6477
   53MOL    H1726121   2.198   0.664   3.437 -0.4173 -0.9078 -1.0726
   53MOL    H1826122   2.246   0.825   3.390  0.8796  0.4861 -0.7238
   53MOL    H1926123   2.012   0.810   3.230 -1.0070 -0.0693  0.3613
   53MOL    H2026124   1.998   0.662   3.324 -2.1344  0.5250  1.0684
   53MOL    H2126125   2.004   0.937   3.449  1.0794 -0.1358  1.8732
   53MOL    H2226126   1.993   0.776   3.528  0.9218  0.0131 -1.1617
   53MOL    H2326127   1.787   0.735   3.404  1.6514 -0.5188  0.7582
   53MOL    H2426128   1.772   0.846   3.533  2.0107 -0.7730  0.4276
   53MOL    H2526129   1.774   0.898   3.356  2.2218  1.5875 -0.7728
   53MOL    H2626130   2.691   0.780   3.083  0.5863  0.2701 -3.6097
   53MOL    C2726131   2.532   0.653   2.913  0.1163  0.6546  1.1287
   53MOL    C2826132   2.427   0.559   2.847  0.4385  0.1764  0.2065
   53MOL    O2926133   2.333   0.653   2.793 -0.2442  0.2264 -0.0226
   53MOL    C3026134   2.192   0.644   2.821 -0.1679  0.6172  0.1295
   53MOL    C3126135   2.106   0.723   2.722  0.3406  0.8069  0.2098
   53MOL    C3226136   2.140   0.870   2.732  0.3486  0.6269  0.3742
   53MOL    C3326137   2.045   0.965   2.663  0.6059 -0.1665  0.3292
   53MOL    C3426138   2.121   1.077   2.580 -0.5228 -0.0631 -0.8413
   53MOL    C3526139   2.027   1.173   2.502  0.5798 -0.2262  0.9637
   53MOL    H3626140   2.566   0.722   2.836 -0.9247 -0.9834 -0.8328
   53MOL    H3726141   2.621   0.597   2.943 -1.1795 -1.4095  1.1695
   53MOL    H3826142   2.378   0.492   2.918  0.2506  2.0998  1.9670
   53MOL    H3926143   2.167   0.684   2.919  0.9754 -1.7922  1.4258
   53MOL    H4026144   2.151   0.543   2.812  2.7848 -0.6211  0.1174
   53MOL    H4126145   2.005   0.721   2.761 -0.0460  0.8856 -0.7715
   53MOL    H4226146   2.120   0.677   2.624  0.8620 -0.0494  0.6767
   53MOL    H4326147   2.139   0.908   2.834  0.7082  1.8082 -0.0566
   53MOL    H4426148   2.240   0.875   2.690 -0.7534  1.1369 -2.3181
   53MOL    H4526149   1.973   0.914   2.599  1.4056  0.0589 -0.7515
   53MOL    H4626150   1.983   1.022   2.732 -0.0389 -0.9608  0.4255
   53MOL    H4726151   2.181   1.135   2.650  0.5565 -1.0159 -0.9672
   53MOL    H4826152   2.187   1.034   2.504  1.1067 -0.2536  0.6433
   53MOL    H4926153   1.980   1.248   2.566  0.3800 -1.1186  1.8891
   53MOL    H5026154   2.085   1.235   2.435 -0.1072  0.4335  0.9664
   53MOL    H5126155   1.952   1.121   2.442  1.6454 -0.8363  0.1436
   53MOL    C5226156   2.473   0.491   2.717 -0.0445 -0.6054 -0.1302
   53MOL    C5326157   2.582   0.382   2.736  0.0236 -0.0652 -0.1318
   53MOL    O5426158   2.532   0.251   2.759  0.1169 -0.0642  0.6690
   53MOL    C5526159   2.429   0.241   2.863  0.3274 -0.2555 -0.3297
   53MOL    C5626160   2.385   0.094   2.877 -0.5159  0.4234  0.1476
   53MOL    C5726161   2.297   0.050   2.760  0.2660 -0.3070 -0.0429
   53MOL    C5826162   2.307   7.679   2.726 -0.6207  0.5825 -0.4795
   53MOL    C5926163   2.221   7.595   2.825 -0.5448 -0.3556 -0.1574
   53MOL    C6026164   2.203   7.445   2.799  0.2611  0.7573  0.2700
   53MOL    H6126165   2.505   0.570   2.650 -0.2623 -0.9066 -0.5968
   53MOL    H6226166   2.379   0.450   2.678  0.4195 -0.3597 -1.5237
   53MOL    H6326167   2.639   0.396   2.828 -0.4438 -2.6211  0.5764
   53MOL    H6426168   2.340   0.302   2.850 -0.8020 -1.5102  1.3972
   53MOL    H6526169   2.479   0.262   2.957  2.2663 -0.9453 -1.1715
   53MOL    H6626170   2.355   0.065   2.977  1.2508  0.2260  0.6452
   53MOL    H6726171   2.483   0.046   2.864 -0.1506  0.7213  1.7340
   53MOL    H6826172   2.196   0.090   2.766 -0.2065 -1.1446 -2.1786
   53MOL    H6926173   2.338   0.098   2.672 -1.2421 -0.7007 -0.9747
   53MOL    H7026174   2.264   7.656   2.628  2.1247  1.5451 -1.9498
   53MOL    H7126175   2.409   7.643   2.734 -0.9845 -0.1999  0.7109
   53MOL    H7226176   2.271   7.618   2.919  0.5785  2.6281 -1.4299
   53MOL    H7326177   2.128   7.650   2.838 -0.5801  0.1289 -2.4131
   53MOL    H7426178   2.114   7.434   2.736  1.7633 -0.3353 -1.6894
   53MOL    H7526179   2.287   7.389   2.759  1.9421  3.2732  0.1914
   53MOL    H7626180   2.181   7.396   2.894 -0.2526  0.1249 -0.1690
   53MOL    C7726181   2.675   0.380   2.608  0.3284 -1.3163 -0.2947
   53MOL    C7826182   2.816   0.339   2.653 -0.5321  0.5334  0.6287
   53MOL    O7926183   2.914   0.400   2.561 -0.0284  0.2397  0.1334
   53MOL    C8026184   2.959   0.537   2.604  0.4069  0.6740  0.5621
   53MOL    C8126185   3.067   0.603   2.514 -0.3825  0.3791 -0.2721
   53MOL    C8226186   3.129   0.731   2.580 -0.0060 -0.2390 -0.2448
   53MOL    C8326187   3.211   0.824   2.484 -0.0176  0.2238  0.0173
   53MOL    C8426188   3.137   0.934   2.407 -0.4406 -0.9805 -0.1718
   53MOL    C8526189   3.239   1.016   2.312 -0.0210  0.0172  0.6735
   53MOL    H8626190   2.672   0.474   2.552 -1.0180 -1.1948 -0.0387
   53MOL    H8726191   2.627   0.299   2.552  0.2709 -1.7228  0.3431
   53MOL    H8826192   2.839   0.384   2.750  0.3853 -0.7561  1.0221
   53MOL    H8926193   2.994   0.536   2.707  0.9690  0.3195  0.3700
   53MOL    H9026194   2.869   0.599   2.607 -1.2249 -1.6760  1.4980
   53MOL    H9126195   3.009   0.626   2.424 -2.1711  0.3852  0.8604
   53MOL    H9226196   3.151   0.540   2.485 -0.0338 -0.4716  2.4255
   53MOL    H9326197   3.056   0.793   2.630  1.2705  2.0691 -1.1774
   53MOL    H9426198   3.195   0.708   2.664  2.5748 -0.8372 -2.3696
   53MOL    H9526199   3.282   0.874   2.550  0.8111 -2.4336  1.2103
   53MOL    H9626200   3.270   0.760   2.419 -0.4545  0.4118 -0.5627
   53MOL    H9726201   3.063   0.880   2.348 -1.5810  0.5429 -0.1691
   53MOL    H9826202   3.086   1.012   2.463  1.2488  0.8399 -1.0961
   53MOL    H9926203   3.322   1.066   2.361  0.0655  0.1073  0.4343
   53MOL   H10026204   3.280   0.934   2.253  0.7276  0.0464  1.1537
   53MOL   H10126205   3.183   1.076   2.240 -1.0458  0.1781  1.5746
   53MOL   C10226206   2.832   0.188   2.659 -1.1208 -0.1703  0.0767
   53MOL   C10326207   2.972   0.152   2.719 -0.6574  0.4725  0.6037
   53MOL   O10426208   2.960   0.155   2.859 -0.1099  0.7812 -1.2978
   53MOL   C10526209   3.014   0.267   2.923  0.0725 -0.5629 -0.3943
   53MOL   C10626210   2.919   0.318   3.034  0.0805  0.0505  0.0674
   53MOL   C10726211   2.931   0.466   3.055  0.7299 -0.7069 -0.0800
   53MOL   C10826212   2.864   0.512   3.184  0.0653  0.0477 -0.6360
   53MOL   C10926213   2.927   0.651   3.226 -0.7811  0.3954  0.3945
   53MOL   C11026214   2.852   0.731   3.333  0.2507  0.7258  0.0688
   53MOL   H11126215   2.746   0.155   2.717 -0.8588  1.7998  1.6196
   53MOL   H11226216   2.819   0.153   2.556  1.5559 -0.3917 -0.2237
   53MOL   H11326217   3.050   0.223   2.691 -0.8815  1.4132  2.2572
   53MOL   H11426218   3.024   0.351   2.855 -1.9019 -0.6882 -0.8933
   53MOL   H11526219   3.114   0.240   2.957 -0.1705 -2.9590 -1.5160
   53MOL   H11626220   2.947   0.265   3.125  0.0073 -0.1052 -0.0003
   53MOL   H11726221   2.816   0.283   3.025  1.0655 -2.6657 -0.8876
   53MOL   H11826222   3.038   0.485   3.061  0.1805  2.3561  0.7334
   53MOL   H11926223   2.897   0.522   2.968  3.8375  1.3883 -0.0077
   53MOL   H12026224   2.757   0.509   3.166  0.0673 -0.3585 -0.5781
   53MOL   H12126225   2.879   0.449   3.272 -1.9855 -0.5946 -0.7325
   53MOL   H12226226   3.027   0.634   3.265 -0.3497  2.5179  0.2828
   53MOL   H12326227   2.942   0.724   3.146  0.3454 -1.9186 -1.5763
   53MOL   H12426228   2.869   0.694   3.434 -0.3466 -0.6327 -0.3132
   53MOL   H12526229   2.880   0.836   3.328  0.5845  0.7061  1.4032
   53MOL   H12626230   2.743   0.722   3.326  0.5315 -2.2091 -1.3320
   53MOL   C12726231   3.027   0.020   2.663  0.4833 -0.4458 -0.7366
   53MOL   C12826232   3.174   7.757   2.700 -0.2536  0.2941 -0.7601
   53MOL   O12926233   3.230   7.659   2.612  0.6913 -0.1730 -0.1607
   53MOL   C13026234   3.301   7.730   2.510  0.1983 -0.1403 -0.8265
   53MOL   C13126235   3.318   7.623   2.406 -0.3967 -0.5518 -0.4591
   53MOL   C13226236   3.401   7.665   2.286 -0.8141 -0.4302  0.2645
   53MOL   C13326237   3.548   7.630   2.321  0.2418  0.0887 -0.4512
   53MOL   C13426238   3.648   7.652   2.208  0.0640 -0.6714  0.1590
   53MOL   C13526239   3.658   7.526   2.114  0.2648  0.1929 -0.0734
   53MOL   H13626240   2.956   7.715   2.666 -1.7159  1.4362 -0.3508
   53MOL   H13726241   3.041   0.025   2.555  2.1764  0.5733 -0.4981
   53MOL   H13826242   3.231   0.073   2.701 -0.1321  0.2466 -2.0088
   53MOL   H13926243   3.392   7.769   2.556  0.4416 -1.2897 -0.3190
   53MOL   H14026244   3.243   0.038   2.474 -0.3111  0.2575  0.8892
   53MOL   H14126245   3.218   7.589   2.376 -0.0777 -0.4737 -1.6360
   53MOL   H14226246   3.358   7.530   2.447 -0.0381 -1.7954 -3.5142
   53MOL   H14326247   3.378   7.608   2.196  0.5169  0.4015 -0.6286
   53MOL   H14426248   3.378   7.768   2.257  3.9976  0.3517 -1.2033
   53MOL   H14526249   3.578   7.684   2.411 -0.8364 -1.9016  1.1468
   53MOL   H14626250   3.554   7.531   2.366  1.7371 -0.1406 -1.1423
   53MOL   H14726251   3.622   7.740   2.150  2.9419  1.1155  1.4455
   53MOL   H14826252   3.736   7.675   2.270 -0.2126  0.8461  0.0144
   53MOL   H14926253   3.561   7.491   2.079  1.0326 -0.5511 -1.4886
   53MOL   H15026254   3.713   7.552   2.023  2.2111 -0.7228  0.8197
   53MOL   H15126255   3.714   7.451   2.169  1.7132  1.3711  0.0797
   53MOL   C15226256   3.171   7.687   2.839  0.5706  0.5123  0.7414
   53MOL   C15326257   3.309   7.678   2.910  0.0111  0.2493  0.3388
   53MOL   O15426258   3.352   0.034   2.949 -0.5661  0.1474  0.1718
   53MOL   C15526259   3.477   0.074   2.898 -0.0484  0.5416  0.0168
   53MOL   C15626260   3.486   0.210   2.955 -0.1969  0.0084 -0.3890
   53MOL   C15726261   3.400   0.310   2.882  0.1048 -0.0379  0.4832
   53MOL   C15826262   3.384   0.437   2.968 -0.8421 -0.4325 -0.3872
   53MOL   C15926263   3.295   0.540   2.899  0.8713 -0.3555 -0.1513
   53MOL   C16026264   3.290   0.678   2.972 -0.1280 -0.7438 -0.0075
   53MOL   H16126265   3.096   7.731   2.905 -0.2491 -0.0153  0.1675
   53MOL   H16226266   3.128   7.592   2.808 -0.0931  0.8865  0.5141
   53MOL   H16326267   3.387   7.633   2.849  0.4151  1.0498  0.2649
   53MOL   H16426268   3.486   0.062   2.790  0.6640 -2.7964  0.4043
   53MOL   H16526269   3.547   0.014   2.956 -0.9141 -0.8065 -0.3305
   53MOL   H16626270   3.589   0.241   2.933 -0.6714  2.3860  0.5953
   53MOL   H16726271   3.479   0.212   3.063  0.0090  1.1688 -0.3881
   53MOL   H16826272   3.441   0.345   2.787 -0.5400 -0.7215 -0.0606
   53MOL   H16926273   3.309   0.259   2.852  0.3320 -0.1520 -0.0170
   53MOL   H17026274   3.343   0.404   3.064  0.1083  0.7176  0.4237
   53MOL   H17126275   3.480   0.481   2.995 -2.4034  2.9639 -0.1045
   53MOL   H17226276   3.330   0.568   2.800 -1.6075  1.3157 -0.6020
   53MOL   H17326277   3.193   0.503   2.899 -0.1473  2.2368 -3.0695
   53MOL   H17426278   3.244   0.688   3.070  1.4797  0.9252  0.6113
   53MOL   H17526279   3.394   0.708   2.985 -0.0835 -1.4769  1.3900
   53MOL   H17626280   3.243   0.758   2.915  0.5231 -0.0126  0.4654
   53MOL   C17726281   3.298   7.604   3.041  0.5355 -0.9201  0.4652
   53MOL   C17826282   3.287   7.453   3.017  0.4883 -0.4724  0.0580
   53MOL   O17926283   3.414   7.406   2.972 -0.0258 -0.2873 -0.5304
   53MOL   C18026284   3.406   7.293   2.891  0.2464  0.0339  0.2944
   53MOL   C18126285   3.538   7.261   2.839  0.5303  0.6996 -0.2996
   53MOL   C18226286   3.600   7.372   2.758  0.3659 -0.1540  0.4245
   53MOL   C18326287   3.699   7.324   2.656  0.5406  0.3178  0.1255
   53MOL   C18426288   3.790   7.428   2.594  0.5726  0.2894  0.3305
   53MOL   C18526289   3.879   7.375   2.479  0.2709  0.0087  0.2876
   53MOL   H18626290   3.386   7.630   3.100  0.2079 -0.0014  0.5448
   53MOL   H18726291   3.218   7.641   3.105  0.0887  0.0375 -0.6219
   53MOL   H18826292   3.214   7.438   2.937 -0.6284 -4.1810  1.6388
   53MOL   H18926293   3.342   7.316   2.807 -1.1124 -2.6354  0.5746
   53MOL   H19026294   3.359   7.209   2.942  0.5496 -0.8802 -0.9204
   53MOL   H19126295   3.527   7.169   2.782 -0.3573  0.6419 -0.0344
   53MOL   H19226296   3.596   7.248   2.929 -1.1317  0.4080  0.7502
   53MOL   H19326297   3.525   7.438   2.714 -1.0986 -2.4343 -0.6429
   53MOL   H19426298   3.652   7.432   2.832  0.8854 -1.3007  1.0110
   53MOL   H19526299   3.760   7.248   2.703  1.4552 -0.1254 -1.7331
   53MOL   H19626300   3.645   7.272   2.576 -0.2484  0.2137  0.7180
   53MOL   H19726301   3.724   7.501   2.547 -2.2818 -2.3541  0.0708
   53MOL   H19826302   3.848   7.468   2.677  0.5384 -0.1328  0.5609
   53MOL   H19926303   3.918   7.275   2.496  0.9042  0.0001 -1.1961
   53MOL   H20026304   3.834   7.384   2.380  0.6345 -2.2417 -0.0918
   53MOL   H20126305   3.965   7.443   2.478  1.7941 -1.8987  0.0246
   53MOL   C20226306   3.237   7.376   3.145 -0.0419  0.0676 -0.1818
   53MOL   C20326307   3.114   7.287   3.110  0.6944 -0.1058  0.4884
   53MOL   O20426308   3.011   7.367   3.062 -0.8372  0.2143 -0.0149
   53MOL   C20526309   2.939   7.321   2.943  0.7582  0.0060 -0.8449
   53MOL   C20626310   2.815   7.411   2.921  0.4209  0.1578  1.1395
   53MOL   C20726311   2.787   7.440   2.771 -0.2243  0.2678 -0.5154
   53MOL   C20826312   2.647   7.493   2.753  0.4931 -0.2466 -0.1003
   53MOL   C20926313   2.611   7.501   2.607  0.6008  0.0134 -0.3225
   53MOL   C21026314   2.656   7.626   2.535 -0.7955 -0.0276 -0.4028
   53MOL   H21126315   3.314   7.314   3.192  1.6640  1.3765 -1.2173
   53MOL   H21226316   3.192   7.440   3.221 -2.1158 -1.7646  0.1909
   53MOL   H21326317   3.149   7.219   3.033 -0.0798 -0.8163  0.7533
   53MOL   H21426318   2.900   7.219   2.943  0.4410  0.1303 -1.1941
   53MOL   H21526319   3.020   7.331   2.871  1.6653  1.8720  0.4039
   53MOL   H21626320   2.818   7.508   2.970  0.4790  0.5453  0.3752
   53MOL   H21726321   2.731   7.365   2.974  0.5420 -0.2963  0.9398
   53MOL   H21826322   2.851   7.515   2.724  0.4823 -0.4002 -0.6335
   53MOL   H21926323   2.790   7.345   2.718 -0.5535  0.0674 -0.1733
   53MOL   H22026324   2.580   7.421   2.801  2.2271 -0.2658  2.3989
   53MOL   H22126325   2.632   7.587   2.806  0.3885 -1.0139  1.2522
   53MOL   H22226326   2.657   7.422   2.547 -0.2612 -0.0217 -0.9491
   53MOL   H22326327   2.505   7.490   2.584  0.8336 -0.4375 -1.2183
   53MOL   H22426328   2.639   7.714   2.596  3.0405 -0.3350  1.2691
   53MOL   H22526329   2.764   7.626   2.527 -0.7204 -0.5000  0.4912
   53MOL   H22626330   2.611   7.647   2.438  0.1197 -0.3100 -0.8991
   53MOL   C22726331   3.053   7.216   3.241  0.1998  0.3668  0.3943
   53MOL   C22826332   2.983   7.081   3.215  0.3634 -0.5600  0.2837
   53MOL   O22926333   3.073   6.978   3.238 -0.0113 -0.2259  0.3788
   53MOL   C23026334   3.160   6.939   3.133 -0.0170 -0.3679 -0.0818
   53MOL   C23126335   3.255   6.839   3.196 -0.9117  1.0443  0.5144
   53MOL   C23226336   3.362   6.791   3.089 -0.0767  0.0954 -0.2018
   53MOL   C23326337   3.449   6.684   3.155 -0.2324  0.0377  0.0660
   53MOL   C23426338   3.557   6.624   3.064 -0.4977  0.8821  0.1663
   53MOL   C23526339   3.518   6.522   2.957 -0.2358  0.1315 -0.0292
   53MOL   H23626340   3.138   7.197   3.307 -0.7614  0.5949  1.7084
   53MOL   H23726341   2.998   7.289   3.299 -1.3672 -1.4084  1.2075
   53MOL   H23826342   2.940   7.078   3.115  1.9113  1.0138 -0.4688
   53MOL   H23926343   3.220   7.023   3.098 -2.2742  1.7013  0.8795
   53MOL   H24026344   3.098   6.907   3.049 -2.4193  0.6996  1.2324
   53MOL   H24126345   3.202   6.750   3.233  0.5133  0.8617  2.1574
   53MOL   H24226346   3.308   6.870   3.286  1.7155  3.1714 -1.6757
   53MOL   H24326347   3.324   6.749   2.996  0.0810 -2.2282  0.7600
   53MOL   H24426348   3.424   6.875   3.058  0.4513 -1.4078 -3.4799
   53MOL   H24526349   3.492   6.716   3.250 -0.1140 -0.6299  0.2404
   53MOL   H24626350   3.377   6.609   3.188  2.3833 -0.5769  4.7845
   53MOL   H24726351   3.616   6.701   3.013 -0.8455 -0.4840 -2.3853
   53MOL   H24826352   3.626   6.574   3.132 -0.2985 -0.9917 -1.3473
   53MOL   H24926353   3.605   6.469   2.919 -1.2211 -0.9577 -0.8212
   53MOL   H25026354   3.452   6.442   2.992 -0.5907  0.6316  0.4568
   53MOL   H25126355   3.475   6.579   2.875  1.5960  1.0617 -0.3764
   53MOL   C25226356   2.867   7.060   3.318  0.2038  0.5302 -0.5158
   53MOL   C25326357   2.752   7.161   3.290  0.1299 -0.0752 -0.0607
   53MOL   O25426358   2.708   7.190   3.414  0.2599  0.3464  0.4125
   53MOL   C25526359   2.740   7.320   3.469  0.1323  0.0809 -0.2675
   53MOL   C25626360   2.749   7.315   3.619  0.2729 -0.4691 -0.1988
   53MOL   C25726361   2.850   7.211   3.669 -0.0561  0.5102 -0.9800
   53MOL   C25826362   2.856   7.205   3.827 -0.0793 -0.3190  0.2369
   53MOL   C25926363   2.983   7.145   3.886  0.3223 -0.4266  0.4418
   53MOL   C26026364   3.104   7.234   3.862  0.0561  0.9444  0.3610
   53MOL   H26126365   2.825   6.960   3.305  0.8949  0.1736 -0.0489
   53MOL   H26226366   2.902   7.065   3.421 -1.1544 -2.8701  0.1889
   53MOL   H26326367   2.790   7.250   3.239  1.1886 -0.0870  0.6884
   53MOL   H26426368   2.668   7.390   3.426  0.1758  0.3917  0.1635
   53MOL   H26526369   2.832   7.366   3.432  0.4201 -0.5524 -0.3408
   53MOL   H26626370   2.649   7.299   3.660 -0.7208  0.7917 -2.0219
   53MOL   H26726371   2.792   7.402   3.668  1.9428 -1.0672 -0.5896
   53MOL   H26826372   2.830   7.110   3.632  0.7620 -0.4262  1.0473
   53MOL   H26926373   2.954   7.217   3.636  0.5012 -0.7247  0.4917
   53MOL   H27026374   2.833   7.303   3.868  2.5428  0.8539 -1.0252
   53MOL   H27126375   2.777   7.137   3.860  2.5595 -2.7117  1.8797
   53MOL   H27226376   2.966   7.158   3.992 -1.8027  1.6863 -0.1114
   53MOL   H27326377   3.001   7.040   3.863 -1.4000 -0.7990  0.7489
   53MOL   H27426378   3.074   7.332   3.900 -0.0935  0.5927  1.1610
   53MOL   H27526379   3.189   7.202   3.922  0.3368  1.9502  0.5045
   53MOL   H27626380   3.137   7.222   3.759 -0.5955 -2.7909  0.5231
   53MOL   C27726381   2.639   7.106   3.202 -0.9051 -0.6329  0.6587
   53MOL   C27826382   2.511   7.199   3.191  0.3094 -0.9240  1.5682
   53MOL   O27926383   2.548   7.329   3.137 -0.1306  0.0323 -0.0540
   53MOL   C28026384   2.465   7.435   3.170  0.4855 -0.4026 -0.5491
   53MOL   C28126385   2.518   7.566   3.115  0.2448  0.0342  0.3817
   53MOL   C28226386   2.643   7.618   3.180  0.0660  0.9141 -0.1736
   53MOL   C28326387   2.685   7.754   3.131 -0.2101  0.0630 -0.6812
   53MOL   C28426388   2.806   0.022   3.216  0.9824  0.1222 -0.0610
   53MOL   C28526389   2.940   7.739   3.174 -0.1952 -0.2899  0.0586
   53MOL   H28626390   2.690   7.092   3.106  0.0804  2.4411  0.6776
   53MOL   H28726391   2.614   7.007   3.240  1.1339 -0.9437  1.2366
   53MOL   H28826392   2.463   7.202   3.289  1.2571 -3.1191  2.1425
   53MOL   H28926393   2.452   7.441   3.278 -2.7086 -2.2317 -0.7685
   53MOL   H29026394   2.364   7.418   3.132 -1.3336  1.2279  3.2821
   53MOL   H29126395   2.449   7.646   3.140  1.7468  1.5063 -0.0785
   53MOL   H29226396   2.518   7.559   3.006 -3.4592 -1.6136  0.4100
   53MOL   H29326397   2.613   7.630   3.284  0.5876  3.1490 -0.2578
   53MOL   H29426398   2.724   7.545   3.176 -1.4267 -0.9011  1.2418
   53MOL   H29526399   2.715   7.756   3.027 -0.8257  0.8306 -0.8452
   53MOL   H29626400   2.607   0.053   3.140  0.5812  0.7807  0.2604
   53MOL   H29726401   2.805   0.130   3.206  2.3548 -0.0325 -2.1375
   53MOL   H29826402   2.791   7.776   3.322 -2.3268  0.1191 -0.4710
   53MOL   H29926403   2.918   7.632   3.169 -3.5197  0.2865  1.4660
   53MOL   H30026404   2.971   0.003   3.078 -1.3509 -0.5766 -0.4363
   53MOL   H30126405   3.025   7.749   3.242  1.3979  1.8002 -2.1271
   53MOL   C30226406   2.398   7.140   3.095  0.5099 -0.6157 -0.5746
   53MOL   C30326407   2.324   7.017   3.155  0.4895 -0.0164  0.4801
   53MOL   O30426408   2.274   6.949   3.042 -0.0860 -0.3329  0.5682
   53MOL   C30526409   2.328   6.820   3.026 -0.2091  0.3008 -0.4029
   53MOL   C30626410   2.255   6.763   2.898  0.2031  0.4784 -0.2125
   53MOL   C30726411   2.305   6.824   2.769 -0.1316  0.0341 -0.0832
   53MOL   C30826412   2.244   6.762   2.643  0.5357 -0.2538 -0.8584
   53MOL   C30926413   2.301   6.810   2.510 -0.6365 -0.0845 -0.7436
   53MOL   C31026414   2.257   6.732   2.385 -0.9060  0.9212  0.0918
   53MOL   H31126415   2.321   7.208   3.058 -0.7192 -2.1574 -0.8999
   53MOL   H31226416   2.448   7.111   3.003 -0.4314  1.9100 -1.9277
   53MOL   H31326417   2.398   6.958   3.210  0.5869 -1.0682 -0.7729
   53MOL   H31426418   2.310   6.750   3.107  0.1530  0.3616 -0.2679
   53MOL   H31526419   2.435   6.832   3.006 -0.5210  0.8958 -1.7364
   53MOL   H31626420   2.150   6.789   2.915  0.1399  0.3303 -0.3715
   53MOL   H31726421   2.267   6.655   2.906  0.4082  0.5106 -0.0817
   53MOL   H31826422   2.287   6.931   2.761 -0.4523 -0.0330 -0.2855
   53MOL   H31926423   2.414   6.816   2.771 -0.1546 -0.4024 -0.3907
   53MOL   H32026424   2.248   6.654   2.654  0.0341 -0.1619  0.2844
   53MOL   H32126425   2.138   6.785   2.644  0.8225  1.1327 -0.0977
   53MOL   H32226426   2.286   6.915   2.488  0.4134  0.1104 -0.5182
   53MOL   H32326427   2.408   6.796   2.521 -0.8395 -1.3755 -0.2698
   53MOL   H32426428   2.304   6.764   2.292 -0.0048  1.1460  0.6191
   53MOL   H32526429   2.273   6.624   2.383 -2.2709  0.7256 -2.5839
   53MOL   H32626430   2.148   6.730   2.377 -0.8617  0.0680 -0.3162
   53MOL   C32726431   2.210   7.065   3.247 -1.0510  0.1172  0.2690
   53MOL   C32826432   2.119   6.954   3.307 -0.2864 -0.1678  0.2266
   53MOL   O32926433   2.207   6.860   3.379  0.1735  0.5669  0.5669
   53MOL   C33026434   2.153   6.731   3.409  0.8932 -0.6610 -0.4590
   53MOL   C33126435   2.238   6.649   3.500  0.3180  0.6629  0.4110
   53MOL   C33226436   2.180   6.502   3.517 -0.5609  0.2841  0.3393
   53MOL   C33326437   2.282   6.406   3.593  0.4015  0.5545  0.3313
   53MOL   C33426438   2.205   6.276   3.634 -0.3183 -0.4103  0.4953
   53MOL   C33526439   2.286   6.188   3.723 -0.6499 -0.2860 -0.0635
   53MOL   H33626440   2.139   7.123   3.187 -0.1066  2.3924  1.2882
   53MOL   H33726441   2.251   7.124   3.329 -0.1659 -1.1630  0.7589
   53MOL   H33826442   2.074   6.896   3.227  3.2304  0.5024 -2.3617
   53MOL   H33926443   2.149   6.667   3.321 -1.6949 -1.6298  0.2928
   53MOL   H34026444   2.048   6.732   3.438  0.4494 -0.3627 -2.0610
   53MOL   H34126445   2.254   6.700   3.596  0.3943  0.3857  0.5459
   53MOL   H34226446   2.334   6.650   3.451 -0.9965 -0.4292 -2.2618
   53MOL   H34326447   2.084   6.514   3.566 -1.6452 -3.2526 -0.7665
   53MOL   H34426448   2.166   6.465   3.415 -0.5042  2.6327 -0.5554
   53MOL   H34526449   2.364   6.375   3.529 -1.4580 -1.8222 -1.0289
   53MOL   H34626450   2.317   6.456   3.683  2.2446  1.3591 -0.8312
   53MOL   H34726451   2.114   6.303   3.688 -0.9736  1.0245 -1.2942
   53MOL   H34826452   2.174   6.230   3.540  1.7806 -1.7839  0.4446
   53MOL   H34926453   2.262   6.083   3.706 -1.2637  0.4775 -4.3881
   53MOL   H35026454   2.393   6.196   3.703 -0.4510  0.8262  1.3605
   53MOL   H35126455   2.275   6.214   3.828  0.7552  0.3153 -0.0565
   53MOL   C35226456   2.015   7.008   3.409 -0.7629 -0.2018 -0.0464
   53MOL   C35326457   1.880   7.043   3.347  0.5586 -0.7007  0.4197
   53MOL   O35426458   1.896   7.140   3.245  0.0617 -0.4555  0.3403
   53MOL   C35526459   1.885   7.090   3.110  0.1407  0.8015  0.4889
   53MOL   C35626460   1.921   7.208   3.015  0.2214 -0.4185 -0.6863
   53MOL   C35726461   1.903   7.179   2.872  0.1698  0.3895  0.1446
   53MOL   C35826462   1.995   7.073   2.801  0.3522 -0.5632 -0.1787
   53MOL   C35926463   1.981   7.059   2.647 -0.0915 -0.7289 -0.3189
   53MOL   C36026464   1.868   6.961   2.601  0.8604 -0.8293 -1.1808
   53MOL   H36126465   1.997   6.943   3.495 -0.2150  0.8120  0.8456
   53MOL   H36226466   2.058   7.098   3.453 -0.9880 -0.4358  0.6565
   53MOL   H36326467   1.849   6.948   3.305  1.4024 -0.4833 -0.7479
   53MOL   H36426468   1.782   7.058   3.095  0.3206  0.8405 -0.9281
   53MOL   H36526469   1.945   7.001   3.088 -1.4856 -0.1937  0.0108
   53MOL   H36626470   2.026   7.232   3.032 -0.3108  0.9517  0.7104
   53MOL   H36726471   1.877   7.302   3.047  1.1645 -0.6359  1.3269
   53MOL   H36826472   1.799   7.151   2.856  0.4642 -1.5378  1.3899
   53MOL   H36926473   1.912   7.279   2.830  0.5442 -0.2805 -1.4073
   53MOL   H37026474   2.098   7.099   2.822 -0.1201  1.3643 -0.1251
   53MOL   H37126475   1.990   6.975   2.848  0.2240 -0.9068 -0.8986
   53MOL   H37226476   1.957   7.149   2.591 -0.1980  0.0885  1.0252
   53MOL   H37326477   2.067   7.002   2.611 -0.4341 -1.9204  0.7250
   53MOL   H37426478   1.866   6.961   2.492  3.9996 -3.2816 -1.3054
   53MOL   H37526479   1.881   6.860   2.641  1.1970  0.0906  1.1013
   53MOL   H37626480   1.772   6.994   2.641  0.2833 -0.6090 -2.7229
   53MOL   C37726481   1.788   7.109   3.447  0.3688  0.2486 -0.4347
   53MOL   C37826482   1.686   7.011   3.514  0.8612  0.1501 -0.6972
   53MOL   O37926483   1.753   6.902   3.581  0.2354 -0.0413  0.0307
   53MOL   C38026484   1.803   6.934   3.710  0.3030  0.8670 -0.4506
   53MOL   C38126485   1.840   6.800   3.779  0.0392 -0.1803  0.3774
   53MOL   C38226486   1.721   6.700   3.768  0.2470  0.0055 -0.4465
   53MOL   C38326487   1.739   6.567   3.844  0.3573  0.0664  0.0527
   53MOL   C38426488   1.607   6.497   3.824  0.0471  0.3930  0.4127
   53MOL   C38526489   1.580   6.391   3.934 -0.2003  0.4931  0.3897
   53MOL   H38626490   1.840   7.182   3.509  2.1515 -0.6653 -0.8272
   53MOL   H38726491   1.724   7.179   3.393  0.2900  0.5513  0.0440
   53MOL   H38826492   1.619   7.067   3.580  0.0498  1.3017 -2.4776
   53MOL   H38926493   1.715   6.975   3.760  1.1672  3.1611 -0.7551
   53MOL   H39026494   1.884   7.006   3.710  1.1120 -0.0307 -0.9598
   53MOL   H39126495   1.864   6.819   3.884  0.5342  1.0173  0.0642
   53MOL   H39226496   1.926   6.762   3.724 -2.6617 -2.1382 -2.6728
   53MOL   H39326497   1.627   6.742   3.803 -0.7443 -0.4186 -2.5015
   53MOL   H39426498   1.700   6.671   3.665 -2.7465  0.6561 -0.0479
   53MOL   H39526499   1.814   6.498   3.804 -1.0850 -0.4762 -1.7701
   53MOL   H39626500   1.759   6.583   3.950  1.1260  0.4536 -0.1429
   53MOL   H39726501   1.517   6.559   3.828  0.5251  1.0604  0.8814
   53MOL   H39826502   1.594   6.461   3.721 -1.3288  1.7813  0.0784
   53MOL   H39926503   1.669   6.329   3.950 -0.7885  0.2501  2.7870
   53MOL   H40026504   1.553   6.447   4.023  2.0499  1.0824  0.7390
   53MOL   H40126505   1.500   6.323   3.904 -0.2060  0.3101  0.8264
   53MOL   C40226506   1.581   6.951   3.418 -0.3556 -0.4084 -0.5238
   53MOL   C40326507   1.457   6.902   3.492 -0.0440 -0.1450 -0.0957
   53MOL   O40426508   1.417   6.781   3.419  0.4374 -0.3528  0.0155
   53MOL   C40526509   1.485   6.665   3.463 -0.3540  0.2264 -0.6789
   53MOL   C40626510   1.414   6.546   3.407  0.9737  0.2312 -0.4861
   53MOL   C40726511   1.269   6.534   3.457  0.3048 -0.3292 -0.0196
   53MOL   C40826512   1.187   6.411   3.411  0.3336 -0.2790 -0.1698
   53MOL   C40926513   1.042   6.425   3.470  0.5079  0.1604 -0.4215
   53MOL   C41026514   1.028   6.382   3.619 -0.6019 -0.7148 -0.1318
   53MOL   H41126515   1.621   6.866   3.363 -0.0472 -0.7619  0.2471
   53MOL   H41226516   1.551   7.032   3.351  0.9634  0.4971 -0.0628
   53MOL   H41326517   1.484   6.884   3.596 -0.2108  0.4826  0.0568
   53MOL   H41426518   1.492   6.662   3.572  1.0626  2.4951 -0.6781
   53MOL   H41526519   1.588   6.667   3.429  0.4553 -0.5778  1.6407
   53MOL   H41626520   1.472   6.458   3.435 -0.1952 -0.4983 -0.3198
   53MOL   H41726521   1.424   6.542   3.299  0.1339  1.7817 -0.6369
   53MOL   H41826522   1.288   6.545   3.563  2.1900 -3.1502 -0.0011
   53MOL   H41926523   1.226   6.630   3.427  0.8690  0.2395  0.9589
   53MOL   H42026524   1.186   6.420   3.302  1.9930  0.6880 -0.1148
   53MOL   H42126525   1.236   6.320   3.444 -1.0418 -1.1152 -0.3949
   53MOL   H42226526   1.005   6.526   3.450 -1.4812 -0.2339  1.1423
   53MOL   H42326527   0.966   6.368   3.417 -0.5235  0.9882  0.1533
   53MOL   H42426528   1.092   6.445   3.681  2.5264 -1.6110 -2.3049
   53MOL   H42526529   0.927   6.400   3.654 -0.1895  2.9043 -0.5563
   53MOL   H42626530   1.074   6.284   3.624  0.8522 -0.1433 -1.5802
   53MOL   C42726531   1.352   7.012   3.491  1.0176 -0.0954  0.5378
   53MOL   C42826532   1.220   6.981   3.561  0.2770 -0.6690  0.4099
   53MOL   O42926533   1.250   6.955   3.695 -0.2197  0.1034  0.1008
   53MOL   C43026534   1.222   6.823   3.742  0.0405  0.2513  0.1736
   53MOL   C43126535   1.253   6.815   3.892  0.3038 -0.7654  0.1636
   53MOL   C43226536   1.150   6.903   3.978 -0.0301  0.0016 -0.1441
   53MOL   C43326537   1.166   6.883   4.126  0.2868 -0.0723 -0.0103
   53MOL   C43426538   1.055   6.935   4.223  0.1905  0.4875  0.4129
   53MOL   C43526539   1.106   6.954   4.357 -1.3121  0.1803 -0.6468
   53MOL   H43626540   1.400   7.100   3.533 -0.7851  1.2358 -0.1477
   53MOL   H43726541   1.324   7.029   3.387 -0.1632 -1.3510  0.6318
   53MOL   H43826542   1.187   6.890   3.512  2.2185 -0.7635 -0.8117
   53MOL   H43926543   1.279   6.749   3.687  2.1639  1.7007  0.3913
   53MOL   H44026544   1.116   6.804   3.723  0.5255  0.2536 -2.6561
   53MOL   H44126545   1.355   6.845   3.915 -0.0385 -0.6117  1.4896
   53MOL   H44226546   1.242   6.711   3.921 -0.1393 -0.9897 -0.7672
   53MOL   H44326547   1.161   7.009   3.953  0.9303  0.1911  0.9900
   53MOL   H44426548   1.050   6.880   3.943 -0.8708  1.1913  1.3836
   53MOL   H44526549   1.151   6.775   4.127  0.1483 -0.0433  0.8099
   53MOL   H44626550   1.264   6.909   4.166  0.2148  0.4697 -0.1847
   53MOL   H44726551   1.014   7.026   4.179 -0.0469  0.1365 -0.0988
   53MOL   H44826552   0.974   6.862   4.223  0.1111  0.5720  0.0611
   53MOL   H44926553   1.039   6.989   4.436 -0.0035 -0.5227  0.8204
   53MOL   H45026554   1.122   6.853   4.395 -0.7014  0.9657  1.2397
   53MOL   H45126555   1.197   7.012   4.367 -0.4772 -1.2189  0.0156
   53MOL   C45226556   1.126   7.102   3.553 -0.0202 -0.7004 -0.2023
   53MOL   C45326557   0.986   7.073   3.618 -0.3478  0.3249  0.3849
   53MOL   O45426558   0.922   6.973   3.541 -0.2013  0.4420 -0.5561
   53MOL   C45526559   0.838   6.889   3.612  0.0239 -0.6702 -0.2999
   53MOL   C45626560   0.834   6.753   3.534  0.4350  0.2811 -0.2865
   53MOL   C45726561   0.750   6.750   3.415 -0.1504 -0.3281  0.1288
   53MOL   C45826562   0.734   6.617   3.337  0.0266  0.3650  0.1339
   53MOL   C45926563   0.646   6.610   3.210 -1.0897 -0.1203 -0.1908
   53MOL   C46026564   0.630   6.472   3.147 -0.5404  0.3303 -0.1207
   53MOL   H46126565   1.172   7.175   3.620 -1.7067  0.3251 -0.1336
   53MOL   H46226566   1.120   7.147   3.454 -0.3205  0.5985  0.3834
   53MOL   H46326567   1.010   7.051   3.722 -0.1177 -1.5129 -0.0459
   53MOL   H46426568   0.736   6.922   3.631  0.5592  1.3529 -0.8694
   53MOL   H46526569   0.880   6.879   3.712 -0.2185  0.9608 -0.0317
   53MOL   H46626570   0.801   6.676   3.604  0.2256  1.0812  0.4957
   53MOL   H46726571   0.939   6.725   3.518 -0.7805 -3.9559 -1.4928
   53MOL   H46826572   0.645   6.761   3.441  0.0577  0.7358  0.5394
   53MOL   H46926573   0.777   6.832   3.348 -1.7749  0.6510  0.6496
   53MOL   H47026574   0.835   6.576   3.327  1.3109  2.5854  3.2980
   53MOL   H47126575   0.695   6.546   3.410  0.5855 -1.9295 -1.6951
   53MOL   H47226576   0.541   6.634   3.229 -0.7890  2.0524 -1.0941
   53MOL   H47326577   0.700   6.678   3.144  3.3899 -0.6899  2.7478
   53MOL   H47426578   0.576   6.489   3.054 -0.9200  0.0489  0.0506
   53MOL   H47526579   0.725   6.428   3.118 -1.1690 -1.3671  0.3828
   53MOL   H47626580   0.570   6.405   3.207 -2.9612  1.7831 -0.8523
   53MOL   C47726581   0.897   7.195   3.626 -0.9887  0.6903 -0.2112
   53MOL   C47826582   0.940   7.292   3.729  0.6736 -0.7344 -0.3692
   53MOL   O47926583   0.856   7.405   3.730  0.3039  0.4466 -0.1128
   53MOL   C48026584   0.857   7.465   3.855  0.4225  0.1517 -0.3729
   53MOL   C48126585   0.982   7.545   3.874  0.0860 -0.1300 -0.2233
   53MOL   C48226586   0.980   7.649   3.985  0.4123 -0.2065  0.3077
   53MOL   C48326587   1.118   7.716   4.008 -0.5946  0.6810 -0.4600
   53MOL   C48426588   1.114   0.042   4.117  0.0563  0.7096  0.0799
   53MOL   C48526589   1.253   0.092   4.148 -0.0010  0.9480  0.2824
   53MOL   H48626590   0.892   7.241   3.527 -2.2283  1.8363  0.3689
   53MOL   H48726591   0.794   7.162   3.644 -0.6888 -0.2029 -0.1130
   53MOL   H48826592   0.932   7.246   3.828 -0.5628  0.8549  0.2878
   53MOL   H48926593   0.850   7.387   3.931  0.5673  1.6820  1.2384
   53MOL   H49026594   0.771   7.532   3.859  1.1177  1.1501 -1.9535
   53MOL   H49126595   1.008   7.594   3.780 -0.8201 -3.6385 -2.3987
   53MOL   H49226596   1.066   7.477   3.889 -1.4063 -2.3063 -1.3038
   53MOL   H49326597   0.903   7.722   3.962 -0.6366 -2.0006 -2.0748
   53MOL   H49426598   0.952   7.602   4.079  1.6730 -0.5485  0.5244
   53MOL   H49526599   1.170   7.631   4.054 -2.4983 -0.3386 -0.1500
   53MOL   H49626600   1.164   7.752   3.916  0.2867  0.6125 -0.0587
   53MOL   H49726601   1.045   0.123   4.091  0.8340  0.7884 -1.7895
   53MOL   H49826602   1.065   7.771   4.203 -2.1300 -0.6054 -1.8331
   53MOL   H49926603   1.281   0.022   4.226  1.8110  1.3744  0.0377
   53MOL   H50026604   1.328   0.079   4.070  0.9768  0.7392  1.2561
   53MOL   H50126605   1.250   0.193   4.190  0.0645  1.7856 -1.6251
   53MOL   H50226606   1.043   7.324   3.715  0.8178 -1.5902 -1.2849
   54MOL     C126607   3.749   7.472   3.552  0.1101 -0.1599 -0.1705
   54MOL     C226608   3.688   7.595   3.496 -0.1382 -0.0679  0.2954
   54MOL     O326609   3.720   7.619   3.362 -0.1293 -0.5034 -0.0879
   54MOL     C426610   3.691   7.523   3.265 -0.2392  0.3835 -0.3904
   54MOL     C526611   3.661   7.600   3.144 -0.2244  0.3568 -0.3683
   54MOL     C626612   3.781   7.661   3.071  0.3141  0.2122  0.1484
   54MOL     C726613   3.883   7.554   3.019 -0.7628 -0.2899  0.0590
   54MOL     C826614   3.972   7.616   2.907 -0.1832 -0.2125  0.0105
   54MOL     C926615   4.082   7.517   2.862  0.0826 -0.2790  0.1592
   54MOL    H1026616   3.725   7.377   3.504  1.1985 -0.5101 -0.0221
   54MOL    H1126617   3.856   7.482   3.538  0.3208 -1.0769  0.7301
   54MOL    H1226618   3.580   7.579   3.498 -0.0145 -0.9141  0.4129
   54MOL    H1326619   3.607   7.459   3.292  1.0930 -1.6852 -1.0469
   54MOL    H1426620   3.772   7.452   3.253 -1.7640 -2.3081  3.9003
   54MOL    H1526621   3.589   7.678   3.168 -3.4989 -2.3847 -0.8707
   54MOL    H1626622   3.611   7.523   3.085 -1.0079  2.6859 -2.8650
   54MOL    H1726623   3.748   7.725   2.989 -0.7393  0.5990  0.8568
   54MOL    H1826624   3.844   7.725   3.134 -1.0536  0.0840  1.6746
   54MOL    H1926625   3.954   7.540   3.100 -0.2348  0.2266 -0.3135
   54MOL    H2026626   3.835   7.461   2.988  1.4656 -1.9666  1.5564
   54MOL    H2126627   4.024   7.703   2.947 -2.0163 -0.0657  2.2151
   54MOL    H2226628   3.911   7.652   2.824  1.3039 -0.2371 -1.1003
   54MOL    H2326629   4.139   7.564   2.781  0.3309  0.6437  0.8607
   54MOL    H2426630   4.163   7.502   2.933  0.8901  0.7886 -0.5042
   54MOL    H2526631   4.032   7.427   2.826 -0.5327  0.3786 -0.6622
   54MOL    H2626632   3.732   7.469   3.660  1.3822 -1.7669  0.0020
   54MOL    C2726633   3.711   7.732   3.568  0.1971 -0.1094 -0.3054
   54MOL    C2826634   3.644   0.080   3.518 -0.3776 -0.0798 -0.0405
   54MOL    O2926635   3.507   0.063   3.556  0.2488  0.8456  0.6920
   54MOL    C3026636   3.410   0.110   3.471  0.0056 -0.0100  0.3668
   54MOL    C3126637   3.283   0.073   3.540 -0.3780 -0.5956 -0.7567
   54MOL    C3226638   3.250   7.704   3.518  0.5305 -0.4137 -0.3249
   54MOL    C3326639   3.125   7.636   3.586 -0.6159  0.4651  0.4976
   54MOL    C3426640   3.081   7.508   3.515  0.0893  0.4032  0.4809
   54MOL    C3526641   3.178   7.385   3.533  0.2293 -0.0745  0.3066
   54MOL    H3626642   3.668   7.722   3.668 -0.4661  2.1427 -0.3392
   54MOL    H3726643   3.816   7.757   3.574  0.6639 -1.7595 -1.1619
   54MOL    H3826644   3.652   0.091   3.410 -0.6145 -0.3383 -0.0828
   54MOL    H3926645   3.418   0.067   3.371 -0.4916  0.8759 -0.0656
   54MOL    H4026646   3.423   0.216   3.450  1.1024 -0.1143  0.4878
   54MOL    H4126647   3.211   0.141   3.497  0.0890  0.6310  0.3831
   54MOL    H4226648   3.284   0.097   3.646  1.7814  1.4142 -1.1700
   54MOL    H4326649   3.230   7.676   3.415 -0.6914  1.8420 -0.7339
   54MOL    H4426650   3.336   7.638   3.530 -0.4219 -1.7029 -0.4937
   54MOL    H4526651   3.141   7.626   3.693 -1.2837 -0.7485  0.4921
   54MOL    H4626652   3.045   7.711   3.582  1.9302  3.2088 -0.8055
   54MOL    H4726653   2.988   7.475   3.561 -0.2739  1.4319  0.5027
   54MOL    H4826654   3.068   7.528   3.409  0.3688 -0.4827  0.2784
   54MOL    H4926655   3.203   7.383   3.639 -0.0548 -0.1250  0.3725
   54MOL    H5026656   3.127   7.293   3.505 -0.0601 -0.3577  1.7296
   54MOL    H5126657   3.272   7.407   3.483 -0.4057  2.8960  0.3363
   54MOL    C5226658   3.708   0.203   3.588  0.7292  0.1712  0.0257
   54MOL    C5326659   3.842   0.263   3.537 -0.0666  0.3970  0.0759
   54MOL    O5426660   3.829   0.309   3.400  0.2668  0.3434  0.1080
   54MOL    C5526661   3.936   0.264   3.318  0.2196 -0.0468 -0.3852
   54MOL    C5626662   3.882   0.266   3.169 -0.6249  0.3306  1.1024
   54MOL    C5726663   3.981   0.227   3.064 -0.3040 -0.8487  0.2807
   54MOL    C5826664   4.089   0.326   3.049 -0.0731 -0.2128 -0.2692
   54MOL    C5926665   4.158   0.305   2.915  0.6823 -0.7158  0.5722
   54MOL    C6026666   4.264   0.417   2.902 -0.2452 -0.1487 -0.0290
   54MOL    H6126667   3.706   0.185   3.696 -2.1427 -1.2863 -0.2038
   54MOL    H6226668   3.633   0.283   3.584 -0.6533 -1.1558 -1.4005
   54MOL    H6326669   3.917   0.185   3.545  1.8293  1.7951 -2.9560
   54MOL    H6426670   3.965   0.163   3.343 -1.3435 -0.2190  0.8063
   54MOL    H6526671   4.023   0.326   3.342 -1.0901  0.6867  2.6688
   54MOL    H6626672   3.833   0.362   3.151 -3.3395 -1.1776  0.0823
   54MOL    H6726673   3.800   0.195   3.163 -1.7015  1.7113 -1.3140
   54MOL    H6826674   4.023   0.129   3.088 -2.5640 -1.7380  0.7597
   54MOL    H6926675   3.938   0.223   2.964  1.9378 -0.3818 -0.7428
   54MOL    H7026676   4.048   0.426   3.044 -0.5472 -0.4321 -0.8167
   54MOL    H7126677   4.160   0.328   3.132 -0.7124  1.1174  0.2493
   54MOL    H7226678   4.205   0.206   2.920 -0.3175 -1.1409  2.0091
   54MOL    H7326679   4.095   0.304   2.827  1.2566  0.7017  0.1385
   54MOL    H7426680   4.292   0.431   2.798  0.1348  1.4402  0.2743
   54MOL    H7526681   4.238   0.511   2.952  3.3787  0.9316  0.0152
   54MOL    H7626682   4.352   0.378   2.953  0.0957 -2.9412 -2.6625
   54MOL    C7726683   3.885   0.382   3.627 -0.1789  0.4392 -0.0420
   54MOL    C7826684   4.037   0.388   3.642 -0.6958  0.1217  0.0965
   54MOL    O7926685   4.087   0.284   3.728 -0.3179 -0.6098  0.1573
   54MOL    C8026686   4.221   0.243   3.702  0.5160  0.4665  0.2498
   54MOL    C8126687   4.251   0.116   3.776 -1.2457  0.2117 -0.2063
   54MOL    C8226688   4.395   0.063   3.774 -0.9655  0.0920 -0.4133
   54MOL    C8326689   4.429   7.732   3.877  0.0218  0.1484 -0.0420
   54MOL    C8426690   4.568   7.673   3.848  0.0618 -0.2890 -0.6218
   54MOL    C8526691   4.585   7.561   3.952  0.5058 -0.2630  0.0454
   54MOL    H8626692   3.834   0.390   3.723 -0.5293  2.7104 -0.3893
   54MOL    H8726693   3.856   0.476   3.579  0.2982 -0.2924 -1.7968
   54MOL    H8826694   4.083   0.364   3.547 -1.8709 -0.2808 -0.3692
   54MOL    H8926695   4.290   0.325   3.722  0.6970  0.1997  0.7080
   54MOL    H9026696   4.240   0.231   3.595  1.7094 -1.5627  0.6701
   54MOL    H9126697   4.173   0.049   3.739  0.7032 -1.4566 -1.4090
   54MOL    H9226698   4.236   0.143   3.880 -0.9109 -1.0416  0.1783
   54MOL    H9326699   4.427   0.030   3.675 -0.9031  0.6078 -0.5669
   54MOL    H9426700   4.465   0.145   3.782  0.0154 -0.9286  1.7788
   54MOL    H9526701   4.437   0.003   3.974  0.8750  1.4459 -0.7382
   54MOL    H9626702   4.350   7.658   3.892 -0.3000  0.7754  1.4643
   54MOL    H9726703   4.576   7.642   3.744  0.9894 -1.4825 -0.2102
   54MOL    H9826704   4.643   7.749   3.869 -0.2537 -0.2855  0.5430
   54MOL    H9926705   4.502   7.490   3.946  0.4548 -0.1786 -0.2562
   54MOL   H10026706   4.684   7.521   3.926 -0.4063 -1.1767 -2.1719
   54MOL   H10126707   4.598   7.597   4.054  1.6868 -1.0585  0.1978
   54MOL   C10226708   4.093   0.528   3.690 -0.4073  0.1250  0.2917
   54MOL   C10326709   4.115   0.637   3.585  0.4038 -0.1998 -0.8464
   54MOL   O10426710   4.125   0.770   3.644  0.8804 -0.4603 -0.1563
   54MOL   C10526711   3.999   0.837   3.664  0.6874  0.1045 -0.2269
   54MOL   C10626712   4.003   0.963   3.756 -0.0555  0.1809 -0.1606
   54MOL   C10726713   4.027   0.920   3.906  0.5612 -0.1005  0.1843
   54MOL   C10826714   4.165   0.858   3.930 -0.4622 -0.9180 -0.3804
   54MOL   C10926715   4.178   0.830   4.086  0.0972 -0.3397  0.4904
   54MOL   C11026716   4.318   0.786   4.130 -0.0518  0.2821 -0.6059
   54MOL   H11126717   4.034   0.574   3.770 -0.7708 -0.0922  0.1515
   54MOL   H11226718   4.193   0.518   3.731 -0.5011 -1.1223  0.2479
   54MOL   H11326719   4.022   0.632   3.529 -1.0765  1.2777  1.4104
   54MOL   H11426720   3.919   0.767   3.689 -0.6448  1.3353 -0.9632
   54MOL   H11526721   3.968   0.877   3.568 -1.2843 -0.0186  0.3336
   54MOL   H11626722   3.913   1.022   3.737 -0.1112 -0.3478 -1.6179
   54MOL   H11726723   4.083   1.030   3.724  1.6221 -0.8306  1.8126
   54MOL   H11826724   4.019   1.011   3.965 -0.8046 -0.6377  0.8643
   54MOL   H11926725   3.960   0.841   3.942 -0.8008  0.7198 -0.5307
   54MOL   H12026726   4.173   0.762   3.878  2.9542 -0.8028 -0.1892
   54MOL   H12126727   4.241   0.925   3.889 -0.4890 -0.3688  0.4622
   54MOL   H12226728   4.151   0.915   4.149  1.2307  0.2147  0.2419
   54MOL   H12326729   4.105   0.751   4.105  2.0197 -2.4476 -0.6947
   54MOL   H12426730   4.319   0.754   4.234 -1.0197  1.2034 -0.3051
   54MOL   H12526731   4.348   0.708   4.060 -1.7981 -1.7810  0.8605
   54MOL   H12626732   4.391   0.866   4.128  0.6433 -0.3468 -0.7512
   54MOL   C12726733   4.241   0.607   3.498 -0.1039 -0.2231 -0.2752
   54MOL   C12826734   4.228   0.689   3.370  0.4426  0.4898  0.2776
   54MOL   O12926735   4.126   0.648   3.289  0.4823  0.0917 -0.4943
   54MOL   C13026736   4.062   0.744   3.206  0.0596 -0.2620 -0.2298
   54MOL   C13126737   3.927   0.696   3.161 -0.4900  0.3094 -0.1284
   54MOL   C13226738   3.841   0.662   3.282  0.1207  0.4114  0.3227
   54MOL   C13326739   3.695   0.646   3.234  0.0651  0.5635 -0.0475
   54MOL   C13426740   3.604   0.605   3.346 -0.1885 -0.0181  0.4851
   54MOL   C13526741   3.459   0.616   3.302  0.2377  0.2488 -0.0267
   54MOL   H13626742   4.336   0.625   3.549 -0.4457  1.9542 -0.3647
   54MOL   H13726743   4.260   0.504   3.469 -0.9086 -0.9859  1.8186
   54MOL   H13826744   4.217   0.793   3.398  3.1818  0.9647 -0.3035
   54MOL   H13926745   4.117   0.761   3.114 -1.4352 -0.9164 -1.2632
   54MOL   H14026746   4.058   0.838   3.260 -1.0867  0.3160 -1.3072
   54MOL   H14126747   3.941   0.611   3.093  0.1078 -0.3233  0.7818
   54MOL   H14226748   3.888   0.772   3.094  0.1440  0.6341 -0.1353
   54MOL   H14326749   3.865   0.561   3.313 -1.0046 -0.0197 -0.1846
   54MOL   H14426750   3.841   0.729   3.368  2.6314  0.5042  0.2703
   54MOL   H14526751   3.672   0.740   3.183  0.5722  0.5072 -0.3861
   54MOL   H14626752   3.692   0.584   3.145  0.1941  0.8614 -0.2619
   54MOL   H14726753   3.631   0.509   3.391  1.0354  0.6628  1.2221
   54MOL   H14826754   3.616   0.682   3.422  1.6425  1.6789 -1.4635
   54MOL   H14926755   3.431   0.520   3.259 -2.6851  1.0472 -0.0241
   54MOL   H15026756   3.394   0.611   3.390 -0.1448 -1.1081 -0.3676
   54MOL   H15126757   3.429   0.695   3.233 -1.4828  1.6394  2.2350
   54MOL   C15226758   4.351   0.661   3.281 -0.1988  0.2963  0.1041
   54MOL   C15326759   4.422   0.784   3.229  0.1257 -0.2640 -0.4934
   54MOL   O15426760   4.495   0.823   3.345  0.2214 -0.2776 -0.4481
   54MOL   C15526761   4.461   0.949   3.404  0.3669 -0.2442  0.9856
   54MOL   C15626762   4.551   0.977   3.526 -0.8821  0.5992 -0.5283
   54MOL   C15726763   4.509   0.889   3.643  0.3708  0.0061  0.6329
   54MOL   C15826764   4.607   0.900   3.764 -0.1025  0.3038 -0.3855
   54MOL   C15926765   4.594   0.791   3.872 -0.8137  0.4618 -0.2839
   54MOL   C16026766   4.707   0.812   3.972 -0.7582 -0.1459 -0.0888
   54MOL   H16126767   4.421   0.594   3.331  1.1164  0.2013 -1.8153
   54MOL   H16226768   4.318   0.605   3.194 -3.2106  0.4463  1.0823
   54MOL   H16326769   4.351   0.861   3.199 -2.3722 -2.8339 -1.3305
   54MOL   H16426770   4.363   0.965   3.448  0.2875  1.5668  0.2178
   54MOL   H16526771   4.474   1.028   3.330  0.0538  0.0223  1.2133
   54MOL   H16626772   4.536   1.079   3.559 -1.2383 -0.4872  2.8184
   54MOL   H16726773   4.657   0.956   3.510 -1.1457 -1.2213 -0.0916
   54MOL   H16826774   4.407   0.915   3.672  0.1888 -0.6805  0.6348
   54MOL   H16926775   4.505   0.784   3.615 -0.0289 -0.1603  1.3174
   54MOL   H17026776   4.709   0.889   3.728  0.6522  0.2382  1.7127
   54MOL   H17126777   4.589   1.000   3.804 -0.8477  0.1824 -0.3992
   54MOL   H17226778   4.496   0.788   3.920 -0.0308  0.7535  1.3949
   54MOL   H17326779   4.598   0.692   3.827  2.0628  0.0800  0.6751
   54MOL   H17426780   4.807   0.817   3.929 -1.1157 -0.8612 -1.0120
   54MOL   H17526781   4.694   0.917   4.002  2.7691  1.0344 -2.3956
   54MOL   H17626782   4.712   0.744   4.057 -1.2392 -1.7681 -1.3495
   54MOL   C17726783   4.519   0.741   3.111  0.0549 -0.1863 -0.0344
   54MOL   C17826784   4.604   0.863   3.071 -0.0841 -0.1063  0.5882
   54MOL   O17926785   4.696   0.822   2.967  0.2919  0.1474 -0.4812
   54MOL   C18026786   4.812   0.761   3.021 -0.0898 -0.2132  0.5855
   54MOL   C18126787   4.912   0.747   2.909 -0.2663 -0.4916  0.6846
   54MOL   C18226788   4.860   0.680   2.782  0.2254 -0.5476  0.1870
   54MOL   C18326789   4.954   0.691   2.665 -0.5806  0.3050 -0.8876
   54MOL   C18426790   5.075   0.593   2.661  0.4807 -0.5144 -0.6931
   54MOL   C18526791   5.168   0.605   2.540 -0.3836 -0.0820 -0.3256
   54MOL   H18626792   4.578   0.658   3.151  0.7024 -0.6184 -1.8202
   54MOL   H18726793   4.462   0.709   3.024 -1.8051 -0.9708  1.4514
   54MOL   H18826794   4.656   0.897   3.161  1.9287  2.7763 -1.6075
   54MOL   H18926795   4.804   0.665   3.072  0.0155 -0.3564  0.3348
   54MOL   H19026796   4.865   0.830   3.086 -0.8860  2.4863 -1.5189
   54MOL   H19126797   5.001   0.697   2.948 -0.3383 -0.0265  1.4597
   54MOL   H19226798   4.942   0.849   2.888  1.0775 -1.0858 -0.3633
   54MOL   H19326799   4.842   0.575   2.802  0.8180 -0.5922  0.4787
   54MOL   H19426800   4.767   0.722   2.743  0.8809  1.9983  1.2118
   54MOL   H19526801   4.902   0.681   2.570  0.4413 -0.7484 -1.3453
   54MOL   H19626802   4.984   0.795   2.658  2.7264 -0.2713  2.9097
   54MOL   H19726803   5.134   0.615   2.750 -0.8534  0.2990 -0.0034
   54MOL   H19826804   5.039   0.491   2.665  3.5976 -1.7161 -1.4933
   54MOL   H19926805   5.224   0.698   2.552 -2.6772  1.5207 -1.4393
   54MOL   H20026806   5.241   0.525   2.542 -1.0081 -0.7429 -2.3439
   54MOL   H20126807   5.113   0.611   2.445 -0.0067 -0.4889 -0.5674
   54MOL   C20226808   4.522   0.973   2.999  0.4634 -0.5749 -0.7318
   54MOL   C20326809   4.593   1.106   2.992 -0.4017  0.4888 -0.5234
   54MOL   O20426810   4.585   1.166   3.117 -0.3946  0.4058  0.3005
   54MOL   C20526811   4.703   1.246   3.128  0.4081 -0.0860  0.1811
   54MOL   C20626812   4.697   1.312   3.268  0.8549 -0.4074  0.0667
   54MOL   C20726813   4.587   1.419   3.275 -0.0956  0.5990 -0.0014
   54MOL   C20826814   4.585   1.490   3.414 -0.7710  0.4402  0.6080
   54MOL   C20926815   4.488   1.605   3.422 -0.3395 -0.0232 -0.1162
   54MOL   C21026816   4.512   1.684   3.560  0.3088  0.6755  0.3652
   54MOL   H21126817   4.504   0.937   2.898  0.5510 -1.2630 -0.5045
   54MOL   H21226818   4.419   0.988   3.031  0.9228  0.6771  0.2156
   54MOL   H21326819   4.697   1.089   2.965 -0.0925 -1.7900  1.8482
   54MOL   H21426820   4.706   1.326   3.054 -0.9192 -0.5309 -0.3733
   54MOL   H21526821   4.797   1.195   3.109  0.5480  1.6281 -4.3265
   54MOL   H21626822   4.795   1.355   3.289  0.4258  0.0112  1.2276
   54MOL   H21726823   4.693   1.232   3.342 -0.4481 -0.7813 -0.3969
   54MOL   H21826824   4.611   1.493   3.199 -0.9202  0.0783 -0.7706
   54MOL   H21926825   4.490   1.379   3.245  0.1811  1.2857 -1.8452
   54MOL   H22026826   4.578   1.417   3.494  2.8892 -0.7416 -0.0622
   54MOL   H22126827   4.685   1.533   3.418 -0.2999 -0.5646 -0.1836
   54MOL   H22226828   4.506   1.671   3.337  0.7397 -0.2079 -0.0250
   54MOL   H22326829   4.387   1.564   3.420  0.1771 -1.4283  1.2802
   54MOL   H22426830   4.591   1.757   3.544 -0.5235  1.5728  0.3166
   54MOL   H22526831   4.420   1.735   3.589  0.2211  0.5856  0.2451
   54MOL   H22626832   4.544   1.634   3.652  1.0025 -2.1212 -1.3392
   54MOL   C22726833   4.531   1.206   2.884  0.3079  0.0692  0.0797
   54MOL   C22826834   4.382   1.246   2.906  0.2008 -0.9123 -0.3779
   54MOL   O22926835   4.363   1.377   2.853  0.6772  0.0833  0.5408
   54MOL   C23026836   4.424   1.478   2.936 -0.3154 -0.3210  0.5994
   54MOL   C23126837   4.394   1.617   2.871  0.1214  0.1837 -0.0738
   54MOL   C23226838   4.422   1.742   2.964  0.4409  0.0252  0.6615
   54MOL   C23326839   4.313   1.768   3.068 -0.5715 -0.0076  0.1996
   54MOL   C23426840   4.320   1.898   3.137 -0.3971 -0.3364 -0.3133
   54MOL   C23526841   4.196   1.941   3.220  0.5204 -0.3019  0.4299
   54MOL   H23626842   4.596   1.293   2.878 -1.5081  1.5270  0.8839
   54MOL   H23726843   4.542   1.150   2.791 -0.3773 -1.2395  0.7603
   54MOL   H23826844   4.357   1.236   3.012 -1.5207  0.9560 -0.5749
   54MOL   H23926845   4.530   1.471   2.957 -0.2576  0.3103  0.5435
   54MOL   H24026846   4.370   1.469   3.031 -1.0381  2.9498  0.5545
   54MOL   H24126847   4.291   1.604   2.836 -0.3228 -0.9402  1.6034
   54MOL   H24226848   4.449   1.607   2.778 -1.0548 -1.1357 -0.6433
   54MOL   H24326849   4.521   1.737   3.010  0.6065 -1.0038  0.2112
   54MOL   H24426850   4.429   1.826   2.896  0.6149 -1.8943 -1.7529
   54MOL   H24526851   4.222   1.765   3.009 -0.8220 -1.1275  0.6224
   54MOL   H24626852   4.298   1.683   3.136  4.5648 -1.4178 -0.2378
   54MOL   H24726853   4.404   1.912   3.205 -1.7263  0.6543  1.1601
   54MOL   H24826854   4.343   1.970   3.057 -0.2300  0.2726  0.2790
   54MOL   H24926855   4.221   2.016   3.295 -0.6600  1.4627 -0.9005
   54MOL   H25026856   4.119   1.989   3.160  1.3321  2.9743  1.8885
   54MOL   H25126857   4.152   1.857   3.273 -2.1674 -0.1449 -1.4484
   54MOL   C25226858   4.290   1.159   2.814 -0.2060  0.5963  0.9147
   54MOL   C25326859   4.140   1.165   2.856  0.0110 -0.5537 -1.4559
   54MOL   O25426860   4.079   1.050   2.801 -0.3573  0.1306  0.1493
   54MOL   C25526861   4.064   0.932   2.874 -0.2177  0.2180  0.1919
   54MOL   C25626862   4.071   0.812   2.777 -0.1900 -0.0834  0.3643
   54MOL   C25726863   4.222   0.788   2.717 -0.5757  0.4942 -0.4383
   54MOL   C25826864   4.218   0.679   2.611 -0.2656  0.2471  0.1829
   54MOL   C25926865   4.342   0.647   2.545  0.1175  0.2230  0.4239
   54MOL   C26026866   4.325   0.542   2.446  0.1639  0.5364 -0.2610
   54MOL   H26126867   4.318   1.192   2.714 -0.5812 -0.1152  0.5733
   54MOL   H26226868   4.328   1.056   2.818  1.4480  1.1646 -0.0134
   54MOL   H26326869   4.126   1.163   2.964 -0.8490  2.4803 -1.4699
   54MOL   H26426870   3.973   0.937   2.934 -0.0580 -0.1099  0.4627
   54MOL   H26526871   4.147   0.928   2.944 -1.4142 -3.1751  1.5404
   54MOL   H26626872   4.000   0.817   2.694  0.7317 -0.0317 -0.4308
   54MOL   H26726873   4.038   0.729   2.838 -0.6585 -0.5750 -0.5475
   54MOL   H26826874   4.263   0.881   2.678  1.9742 -0.9200 -1.2801
   54MOL   H26926875   4.298   0.766   2.792 -2.3797 -0.6679  1.0789
   54MOL   H27026876   4.177   0.587   2.651  2.2417 -0.5863  0.9657
   54MOL   H27126877   4.137   0.712   2.546  1.3131  1.1267 -1.3871
   54MOL   H27226878   4.391   0.733   2.500 -2.7811  2.6295  1.6645
   54MOL   H27326879   4.412   0.604   2.616 -1.3264 -3.5832 -0.3340
   54MOL   H27426880   4.425   0.507   2.419  0.3397 -0.0692  1.1075
   54MOL   H27526881   4.287   0.456   2.501 -0.0188  1.2055  0.6860
   54MOL   H27626882   4.257   0.561   2.363 -0.2665  1.8466  0.3834
   54MOL   C27726883   4.065   1.296   2.815 -0.4046  0.0154  0.1668
   54MOL   C27826884   3.931   1.313   2.884 -0.0471 -0.4625 -0.3704
   54MOL   O27926885   3.888   1.449   2.868 -0.6418 -0.1663  0.3959
   54MOL   C28026886   3.911   1.537   2.982 -0.5824  0.4988  0.4537
   54MOL   C28126887   3.847   1.670   2.934 -0.2210  0.5954 -0.6140
   54MOL   C28226888   3.918   1.730   2.809 -0.2925  1.2424 -0.8884
   54MOL   C28326889   3.854   1.857   2.756 -0.1025 -0.3008  0.0167
   54MOL   C28426890   3.932   1.900   2.630  0.1403  0.2147  0.3334
   54MOL   C28526891   3.880   2.037   2.573 -0.8909  0.0967  0.4109
   54MOL   H28626892   4.122   1.386   2.836 -0.1878 -0.2263  0.6064
   54MOL   H28726893   4.066   1.294   2.706  2.5841 -0.2733  0.1658
   54MOL   H28826894   3.938   1.294   2.991 -0.0587  0.7864 -0.1381
   54MOL   H28926895   4.012   1.553   3.018 -0.0736 -0.6506 -0.4343
   54MOL   H29026896   3.856   1.502   3.070  0.1368  1.2218  1.1994
   54MOL   H29126897   3.867   1.739   3.016 -0.9759 -0.4331  0.4631
   54MOL   H29226898   3.741   1.646   2.922 -0.2792  0.4696  0.0950
   54MOL   H29326899   4.016   1.766   2.840  0.6353 -0.9386 -1.1761
   54MOL   H29426900   3.923   1.651   2.733  2.3595 -1.7970  2.2403
   54MOL   H29526901   3.752   1.838   2.723  0.6482  0.4829 -2.9626
   54MOL   H29626902   3.846   1.941   2.825 -1.5479 -0.9191  0.6055
   54MOL   H29726903   4.036   1.913   2.659  0.0139  0.8034  0.5210
   54MOL   H29826904   3.930   1.822   2.553  0.4751 -0.3240  0.8657
   54MOL   H29926905   3.900   2.115   2.647 -0.0469 -0.6584  0.9817
   54MOL   H30026906   3.939   2.067   2.487 -0.2073 -0.3994  0.7056
   54MOL   H30126907   3.774   2.041   2.547 -0.5480 -0.6472 -1.1675
   54MOL   C30226908   3.816   1.231   2.829 -0.0065  0.6045  0.3529
   54MOL   C30326909   3.693   1.226   2.922  0.0186  0.5369 -0.0196
   54MOL   O30426910   3.724   1.139   3.033  0.1303  0.5579  0.3281
   54MOL   C30526911   3.680   1.186   3.158  0.1442 -0.2682 -0.0202
   54MOL   C30626912   3.697   1.069   3.251  0.2781  0.1660 -0.8014
   54MOL   C30726913   3.652   1.108   3.388 -0.1109  0.0247  0.1614
   54MOL   C30826914   3.683   1.000   3.488 -0.8208 -0.3604  0.5951
   54MOL   C30926915   3.604   1.029   3.619 -0.5861 -0.2339  0.4220
   54MOL   C31026916   3.604   0.915   3.716  0.7137  0.1191 -0.2092
   54MOL   H31126917   3.794   1.278   2.733 -0.0525 -1.8667 -0.8793
   54MOL   H31226918   3.840   1.125   2.819 -1.4267  0.4087 -1.1343
   54MOL   H31326919   3.689   1.327   2.963 -1.8597  0.4155  0.1363
   54MOL   H31426920   3.577   1.217   3.140 -0.7275 -0.8535  3.6615
   54MOL   H31526921   3.729   1.277   3.192  0.5178  0.2986 -1.9871
   54MOL   H31626922   3.802   1.040   3.254  0.2193  0.0116 -0.1700
   54MOL   H31726923   3.644   0.983   3.211  0.9673 -1.3341  1.4301
   54MOL   H31826924   3.696   1.204   3.416 -0.1331  0.7434 -2.1898
   54MOL   H31926925   3.543   1.118   3.378  0.2404  2.2264 -1.8223
   54MOL   H32026926   3.660   0.900   3.451 -0.1428 -0.4208  0.3300
   54MOL   H32126927   3.790   1.000   3.509 -1.0582 -0.0812  1.8199
   54MOL   H32226928   3.647   1.121   3.657  0.3587  0.7152 -2.7290
   54MOL   H32326929   3.502   1.060   3.597 -1.1190 -1.9621  0.3353
   54MOL   H32426930   3.702   0.893   3.757  0.2283 -1.4040  0.1882
   54MOL   H32526931   3.542   0.944   3.801  0.9917  1.8444 -0.5768
   54MOL   H32626932   3.562   0.823   3.675  1.2471 -0.5554  0.7467
   54MOL   C32726933   3.564   1.188   2.847 -1.0995  0.2443  0.3123
   54MOL   C32826934   3.425   1.234   2.901 -0.1155 -0.0176 -0.2536
   54MOL   O32926935   3.400   1.376   2.910 -0.5602 -0.3537 -0.4901
   54MOL   C33026936   3.451   1.454   2.801 -0.2207  0.0302 -0.4730
   54MOL   C33126937   3.404   1.596   2.818 -0.0378  0.2433 -0.0035
   54MOL   C33226938   3.449   1.696   2.714 -0.0733 -0.5745 -0.0026
   54MOL   C33326939   3.417   1.836   2.764 -0.6520  0.4281 -0.0553
   54MOL   C33426940   3.270   1.880   2.780 -0.1242 -0.1820  0.2617
   54MOL   C33526941   3.200   1.903   2.640  0.4094 -0.2120  0.0340
   54MOL   H33626942   3.565   1.079   2.840  1.7464  0.3749 -2.8471
   54MOL   H33726943   3.558   1.212   2.740 -1.0544  0.0309  0.2613
   54MOL   H33826944   3.434   1.196   3.003 -0.7077 -2.5026 -1.1091
   54MOL   H33926945   3.428   1.404   2.706 -0.9844 -2.1604  0.8379
   54MOL   H34026946   3.560   1.451   2.810 -0.2368 -0.8782 -0.5360
   54MOL   H34126947   3.445   1.629   2.914 -0.0464  2.2947 -0.6753
   54MOL   H34226948   3.296   1.583   2.824  0.1360 -1.0099  0.5169
   54MOL   H34326949   3.556   1.682   2.700  0.4355  0.9759  2.1545
   54MOL   H34426950   3.414   1.670   2.614 -1.6617  0.5324  0.2488
   54MOL   H34526951   3.481   1.856   2.850 -0.5696 -0.4549  0.0976
   54MOL   H34626952   3.458   1.902   2.688  1.1560  0.2920  0.7850
   54MOL   H34726953   3.215   1.794   2.820  0.8584 -1.8276 -1.7995
   54MOL   H34826954   3.272   1.968   2.843 -1.3490 -1.7641  2.5753
   54MOL   H34926955   3.185   1.813   2.580  0.8966 -0.6242  0.5164
   54MOL   H35026956   3.104   1.950   2.662  0.2841  0.1080 -1.1672
   54MOL   H35126957   3.259   1.972   2.581  1.4262 -0.5907  0.5991
   54MOL   C35226958   3.302   1.176   2.824  0.1702  0.1713 -0.0343
   54MOL   C35326959   3.173   1.181   2.914  0.1224  0.2730 -0.0276
   54MOL   O35426960   3.178   1.081   3.020  0.5237  0.1786  0.4003
   54MOL   C35526961   3.167   1.125   3.153 -0.3328  0.0977 -0.1562
   54MOL   C35626962   3.181   1.007   3.246  0.0127 -0.2357 -0.8907
   54MOL   C35726963   3.136   1.041   3.390  0.2491  0.2567  1.3916
   54MOL   C35826964   3.191   0.945   3.501 -0.7117 -0.5792  0.3113
   54MOL   C35926965   3.103   0.940   3.629 -0.1333 -0.0705 -0.3852
   54MOL   C36026966   3.170   0.891   3.761 -0.8951  0.1128  0.4705
   54MOL   H36126967   3.290   1.214   2.722  0.9167 -1.4302 -0.7348
   54MOL   H36226968   3.319   1.069   2.812  0.8288  0.2651  0.0194
   54MOL   H36326969   3.165   1.278   2.963  0.0848 -0.5975  1.7499
   54MOL   H36426970   3.072   1.178   3.166 -0.1892  0.5637 -0.9591
   54MOL   H36526971   3.247   1.194   3.179 -0.3926  0.4668 -0.9662
   54MOL   H36626972   3.287   0.983   3.234 -0.2224 -1.1980 -1.0460
   54MOL   H36726973   3.121   0.928   3.203  0.5818 -2.0268  1.5252
   54MOL   H36826974   3.151   1.146   3.415 -2.4912  1.0342 -0.0286
   54MOL   H36926975   3.027   1.032   3.389 -0.0589  3.5731 -1.2844
   54MOL   H37026976   3.203   0.843   3.465 -2.3453 -0.3310 -0.9797
   54MOL   H37126977   3.291   0.969   3.537 -0.2170 -0.0344 -1.3774
   54MOL   H37226978   3.063   1.038   3.653 -0.8618 -0.2987 -0.6597
   54MOL   H37326979   3.011   0.890   3.597 -1.5732  2.3061 -0.0489
   54MOL   H37426980   3.113   0.893   3.853  0.3622  2.4195  1.2519
   54MOL   H37526981   3.199   0.788   3.739 -2.1607 -0.6803  2.4737
   54MOL   H37626982   3.262   0.944   3.787  1.0243 -2.4019 -0.9693
   54MOL   C37726983   3.057   1.151   2.814 -0.1543 -0.1259 -0.3900
   54MOL   C37826984   2.908   1.147   2.873  0.4641 -0.0665  0.2788
   54MOL   O37926985   2.820   1.114   2.764  1.2257  0.0948  0.3089
   54MOL   C38026986   2.806   0.974   2.745  0.4230 -0.2351 -0.1235
   54MOL   C38126987   2.710   0.945   2.624  0.2197 -0.2595 -0.8179
   54MOL   C38226988   2.779   0.962   2.494 -0.4453  0.5137  0.4375
   54MOL   C38326989   2.692   0.946   2.367 -0.4783  0.0384  0.6464
   54MOL   C38426990   2.754   1.007   2.238  0.2572  0.1106 -0.5501
   54MOL   C38526991   2.670   0.997   2.109 -0.4449  0.0391 -0.8266
   54MOL   H38626992   3.064   1.237   2.748 -3.0861 -1.4858 -2.6474
   54MOL   H38726993   3.079   1.064   2.752 -1.7533 -0.7619 -0.1067
   54MOL   H38826994   2.903   1.068   2.948  1.0830 -1.3134 -0.9696
   54MOL   H38926995   2.763   0.930   2.835 -1.4656 -1.0288 -1.3706
   54MOL   H39026996   2.896   0.912   2.747  0.8164  0.3668  1.3407
   54MOL   H39126997   2.628   1.014   2.643 -0.8114 -1.3994 -1.0138
   54MOL   H39226998   2.672   0.842   2.622  0.0217 -0.2032  0.0078
   54MOL   H39326999   2.812   1.066   2.498  0.1943  0.2810  1.2396
   54MOL   H39427000   2.857   0.886   2.493 -0.4104  0.5078  2.0282
   54MOL   H39527001   2.683   0.837   2.358  0.7888 -0.1001  0.8496
   54MOL   H39627002   2.594   0.989   2.383 -0.6692 -0.9364  2.3335
   54MOL   H39727003   2.757   1.113   2.263 -2.5255  0.4688 -1.5195
   54MOL   H39827004   2.854   0.972   2.213  0.1947 -1.1637  0.9499
   54MOL   H39927005   2.568   1.034   2.114 -0.2653  0.8194 -2.3599
   54MOL   H40027006   2.719   1.051   2.027 -0.0025  0.4529 -0.2921
   54MOL   H40127007   2.662   0.893   2.079  1.7814 -0.6769  0.9011
   54MOL   C40227008   2.852   1.280   2.916 -0.4450 -0.5062  0.4181
   54MOL   C40327009   2.719   1.266   2.986  0.3567 -0.6882 -0.4568
   54MOL   O40427010   2.667   1.404   3.011  0.1599  0.4040  0.4350
   54MOL   C40527011   2.588   1.452   2.902 -0.4124 -0.3377  0.4386
   54MOL   C40627012   2.517   1.576   2.955  0.3311 -0.6566 -0.3156
   54MOL   C40727013   2.442   1.662   2.838 -0.1179  0.0659 -0.4907
   54MOL   C40827014   2.350   1.580   2.742  0.5229  0.2046 -0.0841
   54MOL   C40927015   2.224   1.535   2.817  0.1128  0.1259  0.3153
   54MOL   C41027016   2.130   1.459   2.723  0.0792  0.0087  0.4501
   54MOL   H41127017   2.828   1.336   2.825 -1.5658 -0.4256  0.7502
   54MOL   H41227018   2.916   1.329   2.990  0.3663 -2.1243  0.8029
   54MOL   H41327019   2.648   1.211   2.924  1.2377 -0.4367 -1.6951
   54MOL   H41427020   2.510   1.384   2.868  0.3296  0.4747 -3.1164
   54MOL   H41527021   2.645   1.450   2.809 -1.1773 -1.5722 -0.0173
   54MOL   H41627022   2.587   1.644   3.004 -0.0004  1.9154 -3.2197
   54MOL   H41727023   2.438   1.556   3.028  0.1063  0.7103 -0.1518
   54MOL   H41827024   2.380   1.739   2.885 -1.3023 -1.4342  0.4992
   54MOL   H41927025   2.521   1.707   2.778  0.6258 -1.7673 -0.9334
   54MOL   H42027026   2.322   1.652   2.665 -0.1305  1.1974  1.0696
   54MOL   H42127027   2.402   1.496   2.695  0.5659 -0.6555  1.4954
   54MOL   H42227028   2.236   1.476   2.908 -1.4913  1.6775  1.5885
   54MOL   H42327029   2.167   1.622   2.851  1.7639  0.7401  1.5417
   54MOL   H42427030   2.184   1.387   2.661 -0.2081 -0.7863  1.1225
   54MOL   H42527031   2.057   1.398   2.775  1.2735 -2.2295 -0.4519
   54MOL   H42627032   2.078   1.532   2.660  0.6854 -0.8772 -1.1265
   54MOL   C42727033   2.732   1.193   3.124  0.1301 -0.8106  0.1780
   54MOL   C42827034   2.597   1.200   3.200  0.6496 -0.0967 -0.4523
   54MOL   O42927035   2.501   1.128   3.119 -0.2947  0.2056  0.2980
   54MOL   C43027036   2.365   1.164   3.154  1.0578 -0.1393  0.1401
   54MOL   C43127037   2.259   1.082   3.074 -0.3146 -0.5417 -0.1219
   54MOL   C43227038   2.118   1.080   3.133 -0.0297 -0.0162 -0.2023
   54MOL   C43327039   2.047   1.213   3.142 -0.2543 -0.1849  0.0676
   54MOL   C43427040   1.906   1.204   3.200 -0.0980 -0.0138  0.2847
   54MOL   C43527041   1.847   1.343   3.210 -0.2333 -0.1907 -0.1073
   54MOL   H43627042   2.767   1.091   3.108  2.3808  0.1088 -0.8983
   54MOL   H43727043   2.817   1.240   3.174  0.3383 -0.7500 -0.2346
   54MOL   H43827044   2.570   1.305   3.205 -0.3714 -0.2444 -2.2244
   54MOL   H43927045   2.360   1.273   3.143 -0.8718 -0.3275 -1.1109
   54MOL   H44027046   2.346   1.137   3.257  1.7728 -0.4391  0.1991
   54MOL   H44127047   2.299   0.980   3.072 -1.9657 -1.1940 -0.2563
   54MOL   H44227048   2.261   1.120   2.972 -0.2924 -4.2355 -1.5873
   54MOL   H44327049   2.053   1.011   3.079  0.3896 -2.9529  2.9193
   54MOL   H44427050   2.128   1.054   3.238 -1.3477 -1.4875 -0.4227
   54MOL   H44527051   2.101   1.289   3.199 -1.5395  1.1882 -0.5247
   54MOL   H44627052   2.033   1.252   3.041  0.7233 -0.6474 -0.2589
   54MOL   H44727053   1.850   1.125   3.149 -2.2720 -0.5422  3.3437
   54MOL   H44827054   1.908   1.173   3.305  0.0001 -0.2115  0.2257
   54MOL   H44927055   1.825   1.381   3.111  1.3719 -1.9794 -1.1860
   54MOL   H45027056   1.754   1.327   3.264  1.5722 -1.3364  2.8108
   54MOL   H45127057   1.895   1.417   3.274  0.2855  0.7708 -1.6127
   54MOL   C45227058   2.620   1.132   3.334 -0.2646 -0.2878 -0.2136
   54MOL   C45327059   2.711   1.198   3.444 -0.2098  0.1294 -0.5119
   54MOL   O45427060   2.843   1.241   3.399  0.5192  0.1969  0.3865
   54MOL   C45527061   2.903   1.358   3.453  0.2537  0.6563 -0.6295
   54MOL   C45627062   3.019   1.417   3.372 -0.8003  0.4784 -0.0994
   54MOL   C45727063   2.988   1.482   3.236 -0.9200  0.5953 -0.2795
   54MOL   C45827064   3.116   1.516   3.152  0.4975 -0.7714 -0.2748
   54MOL   C45927065   3.092   1.620   3.041  0.2821 -0.4431  0.4313
   54MOL   C46027066   3.038   1.575   2.902  0.4026  0.5950  0.3946
   54MOL   H46127067   2.519   1.129   3.375 -0.6044  0.4497 -0.9784
   54MOL   H46227068   2.653   1.029   3.319 -0.7843 -0.3535 -0.9197
   54MOL   H46327069   2.644   1.278   3.474 -0.0617  0.3596 -0.7891
   54MOL   H46427070   2.939   1.349   3.555  1.5724  1.1029 -1.0396
   54MOL   H46527071   2.824   1.432   3.464 -1.6004 -1.5121  1.0814
   54MOL   H46627072   3.093   1.336   3.364  1.1669  2.4309 -2.2265
   54MOL   H46727073   3.062   1.490   3.441  0.3091 -0.5788  0.3478
   54MOL   H46827074   2.910   1.432   3.179 -1.4358  1.6618 -0.5148
   54MOL   H46927075   2.942   1.578   3.260 -1.1146  0.0871  1.4480
   54MOL   H47027076   3.198   1.548   3.218 -0.6045  0.3287  0.5963
   54MOL   H47127077   3.163   1.425   3.115  0.1261 -0.5887 -1.2036
   54MOL   H47227078   3.031   1.695   3.091  1.0609 -0.2117  1.0451
   54MOL   H47327079   3.182   1.679   3.028 -0.4259  0.6694  0.5286
   54MOL   H47427080   3.089   1.489   2.860  0.4094  0.5294  0.5362
   54MOL   H47527081   2.933   1.546   2.906  0.6877 -0.7453 -1.4725
   54MOL   H47627082   3.053   1.659   2.834  1.3543  2.1467  2.4504
   54MOL   C47727083   2.720   1.084   3.550 -0.2537  0.4462 -0.3838
   54MOL   C47827084   2.772   1.133   3.686 -0.1444 -0.7707 -0.2244
   54MOL   O47927085   2.685   1.241   3.717 -0.1807 -0.3424  0.3661
   54MOL   C48027086   2.696   1.290   3.851 -0.4667  0.2885  0.7117
   54MOL   C48127087   2.616   1.417   3.880 -0.0984 -0.2419 -0.2640
   54MOL   C48227088   2.469   1.399   3.861  0.8192 -0.5639 -0.1013
   54MOL   C48327089   2.398   1.521   3.898  0.2408  0.4449  0.4223
   54MOL   C48427090   2.246   1.510   3.905 -0.2399  0.5016  0.2235
   54MOL   C48527091   2.174   1.638   3.945  0.3370 -0.7549 -0.1508
   54MOL   H48627092   2.634   1.019   3.563  0.5649 -0.4611  0.5869
   54MOL   H48727093   2.790   1.013   3.507  1.4548  1.1270  1.2128
   54MOL   H48827094   2.769   1.058   3.765  0.4675 -0.5596  0.0012
   54MOL   H48927095   2.801   1.303   3.876  0.3082  1.0027 -2.7535
   54MOL   H49027096   2.672   1.216   3.928  0.2704  1.1353  1.7707
   54MOL   H49127097   2.664   1.493   3.819 -4.0092  0.7555 -2.2507
   54MOL   H49227098   2.632   1.448   3.983  1.7703 -1.0905 -0.2826
   54MOL   H49327099   2.437   1.353   3.767 -0.1664 -1.3085  0.5753
   54MOL   H49427100   2.428   1.323   3.928 -1.8850 -0.4578 -1.5343
   54MOL   H49527101   2.442   1.571   3.984 -0.6901  0.7776  0.6996
   54MOL   H49627102   2.410   1.587   3.812  1.2312  0.8120  0.8319
   54MOL   H49727103   2.210   1.458   3.816  1.1663  0.9193 -0.6043
   54MOL   H49827104   2.221   1.446   3.990  0.7192  0.9494  0.8415
   54MOL   H49927105   2.189   1.717   3.871 -1.0479 -0.0885  0.2617
   54MOL   H50027106   2.067   1.620   3.955 -0.1684  1.4375 -1.4111
   54MOL   H50127107   2.208   1.677   4.041 -0.7342 -0.7430  0.2250
   54MOL   H50227108   2.873   1.174   3.680 -1.1591  1.4855 -3.3085
   55MOL     C127109   3.790   3.820   1.542  0.0280 -0.1577 -0.2033
   55MOL     C227110   3.853   3.763   1.661  0.0708 -1.5854 -0.1965
   55MOL     O327111   3.867   3.627   1.642  0.5718  0.0836 -0.1844
   55MOL     C427112   3.994   3.580   1.593  0.0571  0.4014 -0.2508
   55MOL     C527113   3.994   3.427   1.618 -0.0207  0.0231  0.1776
   55MOL     C627114   3.972   3.388   1.768  0.7780 -0.5417 -0.6208
   55MOL     C727115   4.013   3.251   1.808  0.0152  0.1366 -0.0993
   55MOL     C827116   3.983   3.225   1.958  0.0310  0.6825 -0.3382
   55MOL     C927117   4.086   3.289   2.050  0.6260  0.2462 -0.2284
   55MOL    H1027118   3.843   3.827   1.447 -0.5367 -3.1752 -0.8216
   55MOL    H1127119   3.696   3.767   1.526  0.2347 -0.0890 -1.7393
   55MOL    H1227120   3.951   3.808   1.679 -1.7685  2.8933 -0.8541
   55MOL    H1327121   4.081   3.617   1.648 -1.1525  3.9949 -0.6327
   55MOL    H1427122   4.019   3.606   1.490 -0.9436  1.8760 -0.1392
   55MOL    H1527123   4.089   3.384   1.585  0.3740 -0.8595  2.3881
   55MOL    H1627124   3.906   3.391   1.564 -1.0312  1.6483  0.7125
   55MOL    H1727125   4.024   3.466   1.824 -1.5259  0.1374  0.6235
   55MOL    H1827126   3.866   3.400   1.786  0.6282 -2.6042  0.0337
   55MOL    H1927127   3.955   3.184   1.744  0.8822  0.6352 -1.4506
   55MOL    H2027128   4.118   3.232   1.782 -0.3970 -0.5289 -1.3301
   55MOL    H2127129   3.986   3.118   1.975 -1.9234  0.7746  0.6832
   55MOL    H2227130   3.883   3.260   1.983 -0.6910 -1.7560  0.3004
   55MOL    H2327131   4.188   3.250   2.040  0.2369 -0.5388 -1.1318
   55MOL    H2427132   4.091   3.396   2.028 -0.2310  0.1056 -1.1263
   55MOL    H2527133   4.057   3.265   2.152  1.1288 -2.9873 -0.8180
   55MOL    H2627134   3.747   3.913   1.578  1.2253  1.1839 -2.2195
   55MOL    C2727135   3.771   3.787   1.790 -0.1206 -0.4007 -0.4500
   55MOL    C2827136   3.855   3.767   1.921  0.5758  0.1417 -0.3890
   55MOL    O2927137   3.961   3.862   1.934  0.2111  0.2709 -0.7522
   55MOL    C3027138   4.080   3.799   1.972  0.3538 -0.9070 -0.1044
   55MOL    C3127139   4.178   3.915   2.000 -0.6237  0.0117  0.3529
   55MOL    C3227140   4.304   3.845   2.056 -0.0643 -0.1958 -0.3620
   55MOL    C3327141   4.415   3.942   2.103 -0.0249  0.6750 -0.1969
   55MOL    C3427142   4.373   4.022   2.225 -0.0452 -0.3341  0.3724
   55MOL    C3527143   4.483   4.122   2.258  0.2912 -0.1417 -0.2954
   55MOL    H3627144   3.723   3.884   1.797 -0.7330 -0.5856 -1.7943
   55MOL    H3727145   3.690   3.714   1.795 -0.0142 -0.6740 -2.2535
   55MOL    H3827146   3.878   3.661   1.929 -2.6627 -0.7994 -2.3713
   55MOL    H3927147   4.110   3.727   1.897 -3.4002 -1.3666 -1.2408
   55MOL    H4027148   4.056   3.739   2.060 -1.3745 -1.6989 -1.1051
   55MOL    H4127149   4.123   3.976   2.072 -2.3073 -0.7164 -0.2985
   55MOL    H4227150   4.200   3.976   1.912  3.0733  0.4052  1.4465
   55MOL    H4327151   4.280   3.779   2.139  1.5809 -1.6661 -1.0099
   55MOL    H4427152   4.344   3.774   1.984  1.0406  0.0454  0.0030
   55MOL    H4527153   4.512   3.891   2.109 -0.3713 -0.1050 -1.1291
   55MOL    H4627154   4.438   4.012   2.022 -1.3622  1.1793 -0.1395
   55MOL    H4727155   4.276   4.073   2.226 -1.0809 -2.1655 -1.6654
   55MOL    H4827156   4.362   3.959   2.312 -0.1971 -1.5223 -0.4919
   55MOL    H4927157   4.452   4.173   2.349 -0.1133 -0.1696 -0.4161
   55MOL    H5027158   4.582   4.078   2.272  0.0021 -0.2025  1.7555
   55MOL    H5127159   4.497   4.199   2.183  0.9268  0.0308  0.0041
   55MOL    C5227160   3.772   3.801   2.057  0.3566 -0.5851 -0.3957
   55MOL    C5327161   3.662   3.705   2.105  0.0595  0.1776  0.3697
   55MOL    O5427162   3.720   3.597   2.182  0.6903 -0.1925  0.0578
   55MOL    C5527163   3.639   3.479   2.178 -0.4436 -0.2341  0.0934
   55MOL    C5627164   3.711   3.371   2.258  0.0154 -0.5221 -0.7584
   55MOL    C5727165   3.648   3.233   2.257  0.8059  0.0462  0.3525
   55MOL    C5827166   3.746   3.122   2.301  0.9044 -0.0627  0.5267
   55MOL    C5927167   3.662   2.995   2.326  0.1003  0.5213 -0.0312
   55MOL    C6027168   3.741   2.868   2.344  0.7689 -0.5360  0.4353
   55MOL    H6127169   3.736   3.902   2.041  0.0740 -0.9162 -1.9047
   55MOL    H6227170   3.842   3.804   2.141 -0.7466  1.3980  0.4889
   55MOL    H6327171   3.617   3.658   2.017  1.4075  1.0052 -0.7760
   55MOL    H6427172   3.629   3.442   2.076  1.6170 -3.4984  0.9679
   55MOL    H6527173   3.543   3.497   2.226  0.3206  0.3713  1.4435
   55MOL    H6627174   3.711   3.410   2.360 -0.8937 -0.9577 -0.5931
   55MOL    H6727175   3.817   3.371   2.232 -0.2438  3.6795 -2.0935
   55MOL    H6827176   3.556   3.227   2.315  1.7601  1.2389  2.0420
   55MOL    H6927177   3.621   3.207   2.155  0.7145 -1.8632  0.8527
   55MOL    H7027178   3.823   3.100   2.227 -0.8762 -0.8454 -1.1352
   55MOL    H7127179   3.798   3.158   2.389  1.2050 -1.2432  0.8293
   55MOL    H7227180   3.615   3.008   2.423  2.3416 -0.9655  1.2775
   55MOL    H7327181   3.590   2.979   2.245 -0.4805  2.2312  0.1105
   55MOL    H7427182   3.836   2.895   2.391  1.3938 -1.2943 -0.3676
   55MOL    H7527183   3.683   2.788   2.389  1.7927 -0.3767  2.1053
   55MOL    H7627184   3.755   2.832   2.242 -0.0303  0.9959 -0.2221
   55MOL    C7727185   3.543   3.774   2.175  0.6057 -0.0642  0.4531
   55MOL    C7827186   3.412   3.781   2.097 -0.1199  0.5535  0.6064
   55MOL    O7927187   3.445   3.854   1.985 -0.3201 -0.5630  0.4226
   55MOL    C8027188   3.378   3.843   1.861  0.1438  0.1365 -0.3479
   55MOL    C8127189   3.396   3.983   1.786  0.8011 -0.4172 -0.5345
   55MOL    C8227190   3.321   4.098   1.855 -0.1998  0.0601  0.0164
   55MOL    C8327191   3.169   4.098   1.848  0.1475  0.2078  0.0560
   55MOL    C8427192   3.090   4.208   1.914 -0.0344  0.2553 -0.4765
   55MOL    C8527193   3.097   4.344   1.837 -0.3978 -0.2534 -0.5504
   55MOL    H8627194   3.573   3.877   2.194  0.3417  0.1619 -0.3325
   55MOL    H8727195   3.536   3.732   2.276 -0.6985 -1.1497 -0.0816
   55MOL    H8827196   3.391   3.680   2.063  1.7160  0.1747  0.5646
   55MOL    H8927197   3.273   3.824   1.882  1.0236 -2.6270  1.8561
   55MOL    H9027198   3.435   3.769   1.804  1.0338  0.0883  0.5927
   55MOL    H9127199   3.366   3.985   1.681  0.1000  3.5633 -0.3379
   55MOL    H9227200   3.502   4.010   1.784  1.1845 -1.8760 -0.1898
   55MOL    H9327201   3.340   4.100   1.962 -0.5471  1.1327  0.0677
   55MOL    H9427202   3.373   4.190   1.831 -0.3167  0.2895  0.6557
   55MOL    H9527203   3.147   4.098   1.742 -0.8345  0.5685  0.2509
   55MOL    H9627204   3.127   4.002   1.876 -1.9472  0.9081 -0.6276
   55MOL    H9727205   2.987   4.174   1.920  0.2464 -0.8849 -1.7099
   55MOL    H9827206   3.123   4.219   2.017 -0.2091 -0.3996 -0.3512
   55MOL    H9927207   3.019   4.406   1.882 -1.2061 -0.0593 -2.1766
   55MOL   H10027208   3.196   4.387   1.848  0.5590 -2.3369 -0.7618
   55MOL   H10127209   3.067   4.333   1.733 -2.1800  1.6076 -0.2707
   55MOL   C10227210   3.300   3.844   2.172  0.1896  0.1297 -0.6723
   55MOL   C10327211   3.220   3.745   2.265  0.0515 -0.6961  0.9111
   55MOL   O10427212   3.252   3.785   2.399 -0.1253 -0.0749  0.4704
   55MOL   C10527213   3.251   3.679   2.496  1.0369  0.3337  0.0780
   55MOL   C10627214   3.281   3.728   2.639 -0.0683  0.1582 -0.1802
   55MOL   C10727215   3.218   3.641   2.752  0.0351 -0.1809 -0.5125
   55MOL   C10827216   3.079   3.697   2.792  0.2270  0.2351  0.2150
   55MOL   C10927217   3.034   3.622   2.915  1.0733 -0.2820 -0.5334
   55MOL   C11027218   2.880   3.649   2.936  0.3870 -0.0025  0.2625
   55MOL   H11127219   3.343   3.923   2.234  0.4457 -0.1360 -0.5099
   55MOL   H11227220   3.234   3.898   2.105  1.9980  0.8920 -1.8906
   55MOL   H11327221   3.248   3.642   2.242 -1.2045 -0.7225 -0.5694
   55MOL   H11427222   3.306   3.589   2.466 -1.6847 -2.1048  2.1100
   55MOL   H11527223   3.148   3.645   2.497  0.6873  1.4047  1.3874
   55MOL   H11627224   3.250   3.832   2.647 -0.5374  0.0920 -1.1042
   55MOL   H11727225   3.389   3.728   2.655 -0.3564  1.4867  1.9642
   55MOL   H11827226   3.208   3.539   2.716 -2.2577  0.3360 -1.4166
   55MOL   H11927227   3.283   3.640   2.840  1.5900 -3.7699 -1.6209
   55MOL   H12027228   3.078   3.803   2.819 -0.7982  0.1670  0.4515
   55MOL   H12127229   3.000   3.687   2.717  1.5852 -3.0693 -0.8715
   55MOL   H12227230   3.041   3.515   2.896 -1.3897 -0.3653 -1.1911
   55MOL   H12327231   3.087   3.660   3.002 -0.7204  2.1824 -0.4746
   55MOL   H12427232   2.819   3.612   2.853  0.8372 -0.4726  0.1330
   55MOL   H12527233   2.844   3.610   3.031 -0.8764  0.0529 -0.1859
   55MOL   H12627234   2.866   3.755   2.951 -4.2618 -0.7004  1.4419
   55MOL   C12727235   3.073   3.780   2.254  0.2041 -0.2645  0.1968
   55MOL   C12827236   2.992   3.748   2.126 -0.4012 -0.2204  0.4558
   55MOL   O12927237   2.864   3.808   2.141 -0.7212  0.2401 -0.0671
   55MOL   C13027238   2.860   3.945   2.112  0.5044  0.3988  0.1659
   55MOL   C13127239   2.767   4.006   2.215  0.6771 -0.7271 -0.6627
   55MOL   C13227240   2.827   3.992   2.351 -0.5141 -0.5332  0.3136
   55MOL   C13327241   2.747   4.063   2.456  0.7654  1.2223  0.4386
   55MOL   C13427242   2.756   4.010   2.598 -0.7436 -0.0600 -0.9035
   55MOL   C13527243   2.904   4.000   2.642  0.4033 -0.5698  0.1047
   55MOL   H13627244   3.015   3.744   2.338  0.5144  1.2189  1.0644
   55MOL   H13727245   3.066   3.888   2.270 -0.7774 -0.0161 -1.6887
   55MOL   H13827246   3.056   3.786   2.046 -0.7115  0.3857  0.5003
   55MOL   H13927247   2.829   3.969   2.011  0.7452  0.7423  0.1744
   55MOL   H14027248   2.954   3.999   2.127 -0.5596  1.5304  3.2366
   55MOL   H14127249   2.670   3.957   2.221 -0.3397  0.6727 -4.2704
   55MOL   H14227250   2.746   4.111   2.195  0.6946 -0.8810 -1.5193
   55MOL   H14327251   2.842   3.888   2.380  1.4507 -0.6996 -1.1185
   55MOL   H14427252   2.932   4.022   2.359 -0.3051 -1.7786  2.6540
   55MOL   H14527253   2.789   4.163   2.466  0.8787  1.3518 -1.1931
   55MOL   H14627254   2.646   4.076   2.420  1.2310  0.5638 -1.1472
   55MOL   H14727255   2.703   4.077   2.666 -1.6382 -0.0959 -1.5636
   55MOL   H14827256   2.693   3.921   2.589 -2.5784  1.2624 -1.4610
   55MOL   H14927257   2.957   4.094   2.625 -1.1585  0.5561  1.2778
   55MOL   H15027258   2.902   3.985   2.750  0.5097  2.0806  0.5166
   55MOL   H15127259   2.961   3.918   2.599  1.4605 -0.1838  0.7590
   55MOL   C15227260   2.956   3.598   2.120  0.0973  0.7153  0.3342
   55MOL   C15327261   2.917   3.561   1.975  0.3814 -0.1394 -0.1045
   55MOL   O15427262   3.029   3.579   1.897 -0.3349  0.4319 -0.0232
   55MOL   C15527263   3.002   3.674   1.790  0.0442 -0.1798 -0.9157
   55MOL   C15627264   3.107   3.661   1.688 -0.5631 -0.3188 -0.4683
   55MOL   C15727265   3.104   3.762   1.570 -0.6525  0.1041  0.0132
   55MOL   C15827266   3.196   3.732   1.455 -0.1586 -0.2130  0.3335
   55MOL   C15927267   3.210   3.852   1.359  0.2414 -0.2039  0.1286
   55MOL   C16027268   3.287   3.970   1.419  0.4518 -0.1318  0.1108
   55MOL   H16127269   3.049   3.545   2.139 -0.6771  0.2179  2.9898
   55MOL   H16227270   2.897   3.549   2.198 -0.0404 -1.3645 -1.0351
   55MOL   H16327271   2.835   3.624   1.940  1.1561  0.8921 -0.1044
   55MOL   H16427272   2.993   3.779   1.818 -2.5753 -0.3852 -0.8568
   55MOL   H16527273   2.912   3.656   1.731  0.0069 -0.1307 -0.8737
   55MOL   H16627274   3.120   3.559   1.652  0.2163  0.1718 -1.5960
   55MOL   H16727275   3.204   3.681   1.732 -0.8154 -0.8258  0.3450
   55MOL   H16827276   3.007   3.779   1.522  1.8475  4.1482 -3.9318
   55MOL   H16927277   3.119   3.860   1.617 -2.0560  0.6051 -0.5501
   55MOL   H17027278   3.297   3.714   1.491 -0.5024 -0.7645  1.0240
   55MOL   H17127279   3.157   3.644   1.404 -0.6895  0.0535  0.2757
   55MOL   H17227280   3.260   3.816   1.270 -0.3183 -0.1282 -0.2163
   55MOL   H17327281   3.112   3.897   1.340  0.9195  0.7555 -1.1237
   55MOL   H17427282   3.386   3.933   1.446  1.2055  0.1600 -2.0994
   55MOL   H17527283   3.296   4.041   1.336 -0.1073 -0.5565 -0.3126
   55MOL   H17627284   3.232   4.019   1.499 -0.9182 -1.1010 -0.2253
   55MOL   C17727285   2.890   3.403   1.962  0.2867 -0.0655  0.3697
   55MOL   C17827286   2.832   3.358   1.829  0.1176  0.2770  0.2106
   55MOL   O17927287   2.802   3.218   1.850  0.0351  0.1241  0.4551
   55MOL   C18027288   2.915   3.135   1.804 -0.1434 -0.4820 -0.0397
   55MOL   C18127289   2.873   2.986   1.835 -0.1418  0.3946 -0.0769
   55MOL   C18227290   2.955   2.880   1.764 -0.7488 -0.5520  0.1518
   55MOL   C18327291   2.905   2.737   1.786 -0.2379  0.7722  0.6345
   55MOL   C18427292   3.001   2.638   1.725 -0.3976 -0.8583 -0.3349
   55MOL   C18527293   2.939   2.502   1.691  0.8259 -0.8868  0.7247
   55MOL   H18627294   2.973   3.335   1.983 -1.2239 -1.9779  0.2454
   55MOL   H18727295   2.822   3.386   2.045 -0.0389 -1.7110 -0.2018
   55MOL   H18827296   2.901   3.362   1.744  1.0387 -0.6928  0.8953
   55MOL   H18927297   3.009   3.154   1.855 -1.4201  1.6848  1.6091
   55MOL   H19027298   2.927   3.142   1.696 -1.5555  1.5340 -0.0957
   55MOL   H19127299   2.773   2.968   1.795  0.0304 -1.4460  0.2867
   55MOL   H19227300   2.856   2.958   1.939  2.7755 -1.9781 -0.1605
   55MOL   H19327301   2.968   2.897   1.657  1.0291  2.9832  0.8294
   55MOL   H19427302   3.059   2.901   1.793 -1.0416  3.2046 -1.2139
   55MOL   H19527303   2.897   2.719   1.893  0.3170 -0.2676  0.5062
   55MOL   H19627304   2.811   2.720   1.733 -0.2478 -3.0766  1.7340
   55MOL   H19727305   3.029   2.687   1.631 -2.2469  0.8374 -0.0499
   55MOL   H19827306   3.093   2.631   1.783  0.3123  3.3886 -0.7942
   55MOL   H19927307   2.853   2.508   1.624  1.9604 -2.4906 -0.9350
   55MOL   H20027308   3.017   2.437   1.651  0.9482  0.0386 -0.5648
   55MOL   H20127309   2.909   2.450   1.782 -0.4794 -1.0050  0.2249
   55MOL   C20227310   2.696   3.421   1.789  0.4722 -0.6056 -0.3032
   55MOL   C20327311   2.637   3.369   1.659  0.0675 -0.3339 -0.6426
   55MOL   O20427312   2.650   3.464   1.557  0.2808 -0.1800 -0.1101
   55MOL   C20527313   2.761   3.459   1.477 -0.5515  0.1153 -0.1368
   55MOL   C20627314   2.732   3.522   1.345  0.2235 -1.0352 -0.4946
   55MOL   C20727315   2.671   3.661   1.356 -0.0005 -0.4198  0.1663
   55MOL   C20827316   2.638   3.718   1.218 -0.1568 -0.0393  0.1150
   55MOL   C20927317   2.583   3.862   1.226  0.2520  0.2548 -0.5023
   55MOL   C21027318   2.691   3.969   1.267  0.3033  0.1749 -0.5054
   55MOL   H21127319   2.625   3.403   1.871 -0.0345 -3.0110 -1.2118
   55MOL   H21227320   2.726   3.524   1.777 -0.5473 -0.4106 -1.2887
   55MOL   H21327321   2.691   3.282   1.622  1.9157  1.8093 -3.1720
   55MOL   H21427322   2.792   3.357   1.454 -1.0356  0.3993 -2.1661
   55MOL   H21527323   2.834   3.510   1.540 -0.7922 -0.4542  0.6128
   55MOL   H21627324   2.657   3.461   1.295  0.0143 -1.1501 -0.0364
   55MOL   H21727325   2.820   3.536   1.281 -0.7265  1.8758 -1.2404
   55MOL   H21827326   2.576   3.670   1.408 -0.5669 -2.0136 -0.5596
   55MOL   H21927327   2.740   3.721   1.417  1.5044 -3.5729  1.7130
   55MOL   H22027328   2.721   3.717   1.148  0.1175 -2.7116  0.4230
   55MOL   H22127329   2.555   3.658   1.181 -0.9207  2.0186 -1.6034
   55MOL   H22227330   2.531   3.882   1.133  0.6741  0.7529 -0.6371
   55MOL   H22327331   2.508   3.873   1.304  1.3076  1.2715  0.3882
   55MOL   H22427332   2.789   3.947   1.225  0.1931 -1.2671 -0.0435
   55MOL   H22527333   2.654   4.068   1.243 -0.9084  0.1055  0.9954
   55MOL   H22627334   2.716   3.960   1.373 -1.5127 -3.9073 -0.3169
   55MOL   C22727335   2.488   3.339   1.675 -0.2964  0.4029  0.2933
   55MOL   C22827336   2.408   3.285   1.555  0.1885 -0.5723 -0.2291
   55MOL   O22927337   2.439   3.144   1.538 -0.2823  0.0621  0.6070
   55MOL   C23027338   2.524   3.112   1.421 -0.1559 -0.4662 -0.3156
   55MOL   C23127339   2.532   2.966   1.412 -0.3141  0.6045  0.4169
   55MOL   C23227340   2.652   2.905   1.495  0.0528 -0.5728  0.2287
   55MOL   C23327341   2.690   2.752   1.464  0.0764 -0.7413 -0.1048
   55MOL   C23427342   2.724   2.726   1.316  0.1685 -0.6643 -1.2413
   55MOL   C23527343   2.789   2.591   1.278  0.4106 -0.1339 -0.0323
   55MOL   H23627344   2.466   3.263   1.750  0.4399  0.7176  0.8289
   55MOL   H23727345   2.441   3.431   1.709 -0.1604  0.9271 -0.9280
   55MOL   H23827346   2.442   3.344   1.470  1.5474  1.5273  1.7274
   55MOL   H23927347   2.624   3.153   1.431  0.1543 -1.0619 -0.9057
   55MOL   H24027348   2.473   3.148   1.331  0.1404 -2.5531 -1.3631
   55MOL   H24127349   2.544   2.935   1.308 -0.5185  0.4320  0.4442
   55MOL   H24227350   2.434   2.923   1.431 -0.7666  0.6182 -1.7432
   55MOL   H24327351   2.746   2.957   1.477 -0.1374  0.1102  1.1641
   55MOL   H24427352   2.631   2.926   1.600  2.3137  0.7285  0.4546
   55MOL   H24527353   2.779   2.719   1.517  0.6303  0.4685 -0.2758
   55MOL   H24627354   2.611   2.690   1.508 -0.4529 -0.0560 -0.0773
   55MOL   H24727355   2.629   2.746   1.267 -0.0510  0.2544 -0.4685
   55MOL   H24827356   2.790   2.806   1.284  0.6966 -0.4575  0.3146
   55MOL   H24927357   2.861   2.548   1.348 -1.5332  0.1373  2.2105
   55MOL   H25027358   2.717   2.510   1.272  0.1095  0.0062  1.4934
   55MOL   H25127359   2.846   2.609   1.187 -0.7979  0.7285 -0.6391
   55MOL   C25227360   2.253   3.312   1.570  0.4082  0.5220  0.5307
   55MOL   C25327361   2.171   3.266   1.443  0.3693 -0.0003 -0.1693
   55MOL   O25427362   2.103   3.385   1.385  0.2239 -0.1627  0.5364
   55MOL   C25527363   2.179   3.457   1.288  0.6143 -0.8271 -0.1607
   55MOL   C25627364   2.094   3.567   1.224  0.0680 -0.4717 -0.1237
   55MOL   C25727365   1.977   3.512   1.140 -0.5064  0.0720  0.0194
   55MOL   C25827366   1.997   3.475   0.997 -0.7851  0.3919  0.0465
   55MOL   C25927367   1.876   3.413   0.930 -0.3941 -0.5135  0.3562
   55MOL   C26027368   1.897   3.350   0.791  0.4660  1.1894 -0.2308
   55MOL   H26127369   2.227   3.258   1.661 -0.3205  0.0983  0.0759
   55MOL   H26227370   2.233   3.414   1.603  1.1699  1.1291 -0.8578
   55MOL   H26327371   2.237   3.217   1.372 -0.6148  0.1118 -1.1677
   55MOL   H26427372   2.235   3.404   1.211 -0.4952 -1.6001 -0.4503
   55MOL   H26527373   2.260   3.507   1.341  1.0068  0.1267 -1.6269
   55MOL   H26627374   2.156   3.635   1.165  0.0059 -0.9368 -0.7234
   55MOL   H26727375   2.053   3.630   1.303 -0.5517 -1.6230  0.4833
   55MOL   H26827376   1.931   3.425   1.187 -0.9069  0.5247  0.4758
   55MOL   H26927377   1.895   3.583   1.139 -0.5363  0.0325 -0.3756
   55MOL   H27027378   2.025   3.565   0.942 -0.7751  0.4379  0.1267
   55MOL   H27127379   2.074   3.398   0.991 -0.7524  0.4436 -0.2268
   55MOL   H27227380   1.831   3.337   0.994 -0.1327 -0.7940  0.2035
   55MOL   H27327381   1.798   3.489   0.923 -0.1277 -0.4519 -2.4192
   55MOL   H27427382   1.902   3.433   0.721  0.9997 -1.0811 -3.0070
   55MOL   H27527383   1.966   3.265   0.785 -2.0525 -0.9085 -0.6409
   55MOL   H27627384   1.809   3.290   0.764  2.5075 -2.3701  0.6268
   55MOL   C27727385   2.057   3.156   1.465  0.1090  0.0990 -0.1586
   55MOL   C27827386   1.987   3.116   1.334  0.1108 -0.6680  0.0860
   55MOL   O27927387   2.085   3.065   1.240 -0.0239 -0.2987 -0.0596
   55MOL   C28027388   2.112   3.147   1.126 -0.1625 -0.3328 -0.3683
   55MOL   C28127389   2.216   3.070   1.036  0.4610 -0.7520 -0.2077
   55MOL   C28227390   2.339   3.004   1.107 -0.1032 -0.0853 -0.0341
   55MOL   C28327391   2.425   2.901   1.027  0.2025  0.5304  0.3725
   55MOL   C28427392   2.349   2.791   0.969 -0.6728 -0.2091 -0.6976
   55MOL   C28527393   2.430   2.671   0.930 -0.3779 -0.3299 -0.0274
   55MOL   H28627394   2.109   3.070   1.508 -1.7488 -1.6750 -1.3739
   55MOL   H28727395   1.986   3.176   1.545 -1.3898  0.0669 -1.4615
   55MOL   H28827396   1.932   3.202   1.296  0.1520 -0.4694  0.4755
   55MOL   H28927397   2.152   3.247   1.142  0.0796 -0.6264  0.9444
   55MOL   H29027398   2.010   3.156   1.090  0.2578 -0.9381 -1.7262
   55MOL   H29127399   2.255   3.128   0.952  0.7943 -0.6732 -0.0030
   55MOL   H29227400   2.168   2.991   0.980  0.7464  0.4827 -2.2629
   55MOL   H29327401   2.400   3.081   1.155 -1.0480  1.7311 -1.6810
   55MOL   H29427402   2.297   2.956   1.195 -0.9262 -0.6856 -0.7500
   55MOL   H29527403   2.474   2.950   0.943 -0.2163 -0.8374 -0.6915
   55MOL   H29627404   2.505   2.869   1.094 -1.0111 -0.6601  1.3031
   55MOL   H29727405   2.288   2.762   1.054  1.7768  0.0839  1.2359
   55MOL   H29827406   2.297   2.844   0.889 -0.3915 -1.2448 -1.5794
   55MOL   H29927407   2.368   2.611   0.864 -2.0230  0.3158  0.8991
   55MOL   H30027408   2.528   2.688   0.886 -0.1859 -0.5586  0.3085
   55MOL   H30127409   2.449   2.621   1.025 -0.2499  0.0625  0.1559
   55MOL   C30227410   1.875   3.010   1.342  0.3067  0.4284 -0.9892
   55MOL   C30327411   1.891   2.883   1.420 -0.0552  0.3490 -0.4826
   55MOL   O30427412   1.892   2.920   1.558  0.5132  0.0021 -0.1061
   55MOL   C30527413   1.805   2.840   1.637 -0.6093  0.4292 -0.3031
   55MOL   C30627414   1.809   2.845   1.790 -0.3926  0.0480 -0.7516
   55MOL   C30727415   1.694   2.767   1.854 -0.6925 -0.2501  0.2676
   55MOL   C30827416   1.705   2.759   2.009  0.1359  0.5074  0.1582
   55MOL   C30927417   1.606   2.664   2.068 -0.4064 -0.4900 -0.7232
   55MOL   C31027418   1.625   2.645   2.223  0.2290 -0.4787 -1.0357
   55MOL   H31127419   1.788   3.065   1.378  0.1337 -0.2187 -0.4119
   55MOL   H31227420   1.858   2.990   1.236 -1.1585 -1.9136 -0.3504
   55MOL   H31327421   1.800   2.829   1.392  0.9698 -0.4534 -2.3952
   55MOL   H31427422   1.820   2.736   1.610 -0.8987  0.5531 -0.9399
   55MOL   H31527423   1.709   2.882   1.607 -1.2730 -0.0514  1.1093
   55MOL   H31627424   1.817   2.950   1.817  1.3616 -0.4029  0.5895
   55MOL   H31727425   1.898   2.796   1.829 -0.7391  0.4501  0.5808
   55MOL   H31827426   1.594   2.798   1.824 -0.4776  0.2971  0.1052
   55MOL   H31927427   1.700   2.669   1.807 -0.3513 -0.1932  0.1928
   55MOL   H32027428   1.804   2.732   2.046 -0.3959 -2.1693 -0.2493
   55MOL   H32127429   1.685   2.861   2.042 -0.9299  0.3780 -0.0747
   55MOL   H32227430   1.504   2.698   2.050 -0.6513 -0.8014  0.0322
   55MOL   H32327431   1.627   2.564   2.029  1.0887 -0.7218  0.6283
   55MOL   H32427432   1.571   2.555   2.254  1.8038 -1.6133 -1.5366
   55MOL   H32527433   1.731   2.625   2.237  0.0793 -1.3478 -1.1105
   55MOL   H32627434   1.584   2.730   2.277 -0.5360 -1.6560  0.2585
   55MOL   C32727435   2.015   2.796   1.398  0.4978  0.2863 -1.0082
   55MOL   C32827436   2.044   2.727   1.259 -0.6284 -0.0458 -0.3695
   55MOL   O32927437   2.137   2.612   1.270  0.2258  0.0408  0.0822
   55MOL   C33027438   2.266   2.644   1.322  0.0765  0.7874 -0.8786
   55MOL   C33127439   2.363   2.521   1.340 -0.3580 -0.2031  0.2329
   55MOL   C33227440   2.317   2.409   1.433 -0.6202 -0.3143 -0.1394
   55MOL   C33327441   2.284   2.447   1.580 -0.6206  0.0008  0.1877
   55MOL   C33427442   2.406   2.493   1.662  0.1837  0.1621  0.6071
   55MOL   C33527443   2.523   2.393   1.676  0.9302 -0.0225 -0.0596
   55MOL   H33627444   2.015   2.713   1.468 -0.8650 -0.0028 -1.3299
   55MOL   H33727445   2.107   2.850   1.421  0.4426 -0.1849  0.3664
   55MOL   H33827446   2.096   2.797   1.193 -1.5395  2.5710  1.6035
   55MOL   H33927447   2.258   2.697   1.417  1.9797  1.1821 -0.9245
   55MOL   H34027448   2.313   2.714   1.253  0.4515 -0.3716 -1.8149
   55MOL   H34127449   2.464   2.557   1.359  0.0878 -0.8805 -0.8251
   55MOL   H34227450   2.385   2.478   1.243  3.3384 -1.1867  1.4238
   55MOL   H34327451   2.231   2.364   1.384  0.1457 -1.3780 -0.5258
   55MOL   H34427452   2.392   2.330   1.427 -0.0723  0.3233 -2.2556
   55MOL   H34527453   2.213   2.530   1.576 -0.4603  0.3070  2.6565
   55MOL   H34627454   2.246   2.363   1.638 -1.5399  1.6403  2.0476
   55MOL   H34727455   2.446   2.587   1.624  1.5973 -0.6800 -0.0353
   55MOL   H34827456   2.368   2.506   1.763  1.4234 -0.4352  1.1714
   55MOL   H34927457   2.479   2.302   1.715  1.9641 -0.9654 -1.0367
   55MOL   H35027458   2.555   2.375   1.573 -0.6992 -1.1485 -0.3919
   55MOL   H35127459   2.605   2.421   1.742  0.8790 -1.3209  0.5737
   55MOL   C35227460   1.923   2.672   1.182 -0.4359  0.6794  0.4211
   55MOL   C35327461   1.953   2.632   1.033 -0.0025 -0.1045 -0.0849
   55MOL   O35427462   1.877   2.709   0.937  0.2469  0.1007 -0.0023
   55MOL   C35527463   1.913   2.847   0.918  0.4561  0.4113  0.1905
   55MOL   C35627464   1.848   2.917   0.796 -0.6141  0.2786 -0.4545
   55MOL   C35727465   1.905   2.862   0.659  0.6434  0.6556 -0.0962
   55MOL   C35827466   1.846   2.937   0.536 -0.0652 -0.2596 -0.8199
   55MOL   C35927467   1.882   3.083   0.515 -0.1638 -0.1347 -0.2544
   55MOL   C36027468   2.031   3.119   0.514 -0.1855 -0.0131  0.3883
   55MOL   H36127469   1.868   2.593   1.233 -0.0712 -0.8534 -1.4990
   55MOL   H36227470   1.859   2.760   1.182  0.6794  1.5045  0.0749
   55MOL   H36327471   2.059   2.651   1.024  0.3014 -1.0469  1.3945
   55MOL   H36427472   2.019   2.866   0.903  0.5756  1.0127  1.6553
   55MOL   H36527473   1.887   2.909   1.004 -1.0983  0.4870 -0.3281
   55MOL   H36627474   1.868   3.024   0.799 -2.5689  0.6725 -0.5453
   55MOL   H36727475   1.739   2.910   0.799 -0.5937  0.3711  1.0353
   55MOL   H36827476   2.012   2.864   0.640  0.4242 -0.7864 -1.5194
   55MOL   H36927477   1.882   2.755   0.655  0.6963  0.4874  2.8247
   55MOL   H37027478   1.866   2.873   0.450 -0.4292 -0.9136 -0.4160
   55MOL   H37127479   1.737   2.932   0.544 -0.2504  0.4778 -2.6780
   55MOL   H37227480   1.835   3.109   0.420  0.7866  1.4505 -0.2934
   55MOL   H37327481   1.823   3.146   0.581  0.4922 -0.0369  0.2392
   55MOL   H37427482   2.018   3.226   0.523  0.0955  0.1289 -0.7954
   55MOL   H37527483   2.090   3.072   0.592  1.7253  0.5422 -0.6888
   55MOL   H37627484   2.077   3.090   0.419 -2.1137 -1.1550 -0.2481
   55MOL   C37727485   1.933   2.480   1.007  0.0241 -0.2270 -0.4517
   55MOL   C37827486   1.944   2.429   0.860 -0.2671  0.2932 -0.2279
   55MOL   O37927487   1.885   2.299   0.855 -0.3879  0.6390 -0.0658
   55MOL   C38027488   1.777   2.277   0.766  0.3297 -0.4396  0.1650
   55MOL   C38127489   1.720   2.138   0.788 -0.2983 -0.3632 -0.0813
   55MOL   C38227490   1.582   2.134   0.722  0.5494  0.3300  0.5341
   55MOL   C38327491   1.532   1.987   0.742  0.5119 -0.0301 -0.2114
   55MOL   C38427492   1.391   1.964   0.696  0.3913  0.7355 -0.8095
   55MOL   C38527493   1.372   1.807   0.706 -0.3718  0.4844 -0.0727
   55MOL   H38627494   1.996   2.423   1.074 -0.5958 -0.5806 -0.1666
   55MOL   H38727495   1.833   2.453   1.041 -0.4961  1.3382 -0.6765
   55MOL   H38827496   1.883   2.505   0.810  1.0928  0.7798 -1.1583
   55MOL   H38927497   1.816   2.277   0.664  1.6221 -0.9517  0.6462
   55MOL   H39027498   1.693   2.343   0.785  0.0551 -0.2515 -1.6052
   55MOL   H39127499   1.708   2.106   0.891  0.6185  0.8818  0.4304
   55MOL   H39227500   1.782   2.059   0.746  0.0759 -0.7522  1.1882
   55MOL   H39327501   1.524   2.208   0.777  0.6003  0.3813  0.5190
   55MOL   H39427502   1.576   2.155   0.615  0.0902 -0.8139  0.3295
   55MOL   H39527503   1.603   1.912   0.708  2.1892  0.4918  2.0376
   55MOL   H39627504   1.534   1.969   0.850 -3.0214 -1.9075 -0.4147
   55MOL   H39727505   1.325   2.014   0.768  0.3796  1.2136 -1.1570
   55MOL   H39827506   1.364   1.991   0.594 -0.8581  1.2452 -0.3526
   55MOL   H39927507   1.439   1.754   0.773  0.3775 -1.5323 -2.3560
   55MOL   H40027508   1.267   1.778   0.719 -0.9377  1.6579 -1.8927
   55MOL   H40127509   1.404   1.762   0.613  2.6733 -0.6071  1.4391
   55MOL   C40227510   2.086   2.444   0.815  0.1234  0.3293  0.5400
   55MOL   C40327511   2.105   2.387   0.674  0.4409 -0.0616  0.9626
   55MOL   O40427512   2.247   2.405   0.642  0.4907  0.0134  0.1757
   55MOL   C40527513   2.326   2.292   0.675  0.0638  0.2391  0.1286
   55MOL   C40627514   2.468   2.327   0.613 -0.2781 -0.5780  0.8902
   55MOL   C40727515   2.573   2.213   0.600  0.2385  0.1535 -0.1923
   55MOL   C40827516   2.699   2.252   0.525 -0.1225  0.5386  0.8809
   55MOL   C40927517   2.814   2.145   0.513 -0.0031 -0.1779 -0.2436
   55MOL   C41027518   2.923   2.188   0.419 -1.0482  0.0298  0.7308
   55MOL   H41127519   2.157   2.401   0.886  1.6750  2.8440  0.5454
   55MOL   H41227520   2.108   2.550   0.814  1.3941  0.0642 -0.8733
   55MOL   H41327521   2.086   2.280   0.686 -0.1019  0.0481  1.0926
   55MOL   H41427522   2.286   2.196   0.642  0.2714 -0.2719  1.3093
   55MOL   H41527523   2.342   2.287   0.783 -3.8461 -0.8138  0.7392
   55MOL   H41627524   2.514   2.412   0.665 -0.4026 -0.7616  1.2964
   55MOL   H41727525   2.460   2.363   0.510  2.3538  1.3603  1.2924
   55MOL   H41827526   2.598   2.172   0.698 -1.2016  1.1492  0.6153
   55MOL   H41927527   2.525   2.125   0.557 -1.5984  1.8925 -1.7746
   55MOL   H42027528   2.676   2.291   0.426  0.5458 -0.9540  0.1049
   55MOL   H42127529   2.739   2.337   0.580 -0.9742 -0.2644  2.7827
   55MOL   H42227530   2.858   2.127   0.611 -1.0837 -1.2551  0.0528
   55MOL   H42327531   2.762   2.058   0.474 -0.0233 -1.2501  2.0798
   55MOL   H42427532   2.881   2.188   0.319  0.2070 -0.4323  0.2002
   55MOL   H42527533   2.955   2.291   0.437  0.9657 -0.7528  1.7427
   55MOL   H42627534   3.006   2.119   0.434 -1.8256 -1.3256 -1.1025
   55MOL   C42727535   2.025   2.454   0.557 -0.4447 -1.2428  0.0938
   55MOL   C42827536   2.014   2.384   0.423 -0.1465 -0.4718 -0.0432
   55MOL   O42927537   1.951   2.258   0.447  0.1722  0.5886  0.3610
   55MOL   C43027538   2.024   2.143   0.393 -0.4208 -0.1075 -0.2018
   55MOL   C43127539   1.996   2.006   0.465  0.1789  0.6964 -0.0185
   55MOL   C43227540   1.857   1.949   0.423  0.1265 -0.4944 -0.3996
   55MOL   C43327541   1.830   1.811   0.487  0.3463  0.1135 -0.5358
   55MOL   C43427542   1.693   1.742   0.461  0.0644 -0.3427 -0.3795
   55MOL   C43527543   1.675   1.623   0.551 -0.0381 -0.4388 -0.4879
   55MOL   H43627544   1.927   2.471   0.600 -0.5974  2.2892 -1.4490
   55MOL   H43727545   2.067   2.554   0.544 -0.9936 -1.3268 -2.6856
   55MOL   H43827546   2.111   2.381   0.374  0.0116  0.2615  0.2197
   55MOL   H43927547   2.132   2.154   0.402 -0.7711  0.7863  3.6820
   55MOL   H44027548   2.003   2.131   0.287 -1.1304  1.8779 -0.2971
   55MOL   H44127549   2.004   2.020   0.573 -1.0017  1.0053  0.0366
   55MOL   H44227550   2.080   1.943   0.436  0.2690  0.3069  1.0714
   55MOL   H44327551   1.778   2.023   0.438  0.6292 -0.1608  0.7051
   55MOL   H44427552   1.859   1.930   0.316 -0.8142  0.6123 -0.6202
   55MOL   H44527553   1.901   1.742   0.443 -0.4975 -0.2421 -1.3660
   55MOL   H44627554   1.859   1.831   0.590 -0.7465  1.5455 -0.4863
   55MOL   H44727555   1.613   1.810   0.490  0.5966  0.0048  0.2843
   55MOL   H44827556   1.674   1.730   0.354 -0.5734  0.4328 -0.3597
   55MOL   H44927557   1.660   1.654   0.654 -0.0418 -0.3362 -0.5195
   55MOL   H45027558   1.584   1.567   0.530  0.4414 -1.4630  0.1033
   55MOL   H45127559   1.759   1.553   0.549 -0.1026 -0.5968  1.4005
   55MOL   C45227560   1.920   2.465   0.320  0.6698 -0.6831 -0.2482
   55MOL   C45327561   1.946   2.613   0.289  0.4268 -0.6689 -0.2050
   55MOL   O45427562   1.868   2.646   0.184  0.4439 -0.3298  0.2480
   55MOL   C45527563   1.740   2.698   0.213 -0.1116 -0.6808 -0.6490
   55MOL   C45627564   1.672   2.723   0.082 -0.7064  0.6704  0.7101
   55MOL   C45727565   1.614   2.607   7.775 -0.2543  0.9625  0.2692
   55MOL   C45827566   1.472   2.561   0.046  0.4020 -0.1199 -0.2508
   55MOL   C45927567   1.414   2.460   7.727  0.0999 -0.1966  0.4851
   55MOL   C46027568   1.484   2.327   7.708 -0.0607 -0.3163  0.3013
   55MOL   H46127569   1.922   2.424   0.219 -2.3694  0.9259 -1.0032
   55MOL   H46227570   1.816   2.453   0.350  0.4725  0.1424 -0.5905
   55MOL   H46327571   1.907   2.653   0.382  0.8329 -0.5875 -0.0670
   55MOL   H46427572   1.754   2.793   0.265 -0.6061 -0.8841 -0.1388
   55MOL   H46527573   1.685   2.636   0.284 -2.0338  0.1827 -1.3552
   55MOL   H46627574   1.739   2.773   0.012 -1.7218 -2.7959 -2.9307
   55MOL   H46727575   1.598   2.801   0.102 -0.3483  1.4487 -0.9063
   55MOL   H46827576   1.604   2.633   7.670  1.5933  2.6007  0.4575
   55MOL   H46927577   1.682   2.521   0.002  0.5295  1.5207 -0.7583
   55MOL   H47027578   1.484   2.513   0.144 -0.5711 -0.7681 -0.4335
   55MOL   H47127579   1.416   2.653   0.057 -0.5215 -0.5908 -0.9107
   55MOL   H47227580   1.306   2.444   7.739  0.6574 -2.5017  2.9872
   55MOL   H47327581   1.424   2.498   7.625 -0.3644  0.3546  0.6424
   55MOL   H47427582   1.430   2.265   7.636  1.9372 -1.4349 -0.2891
   55MOL   H47527583   1.587   2.328   7.673 -0.5271 -1.3422 -1.1495
   55MOL   H47627584   1.490   2.257   0.014 -0.7232 -1.4297 -0.5563
   55MOL   C47727585   2.092   2.641   0.267  0.1288 -0.5082  0.0165
   55MOL   C47827586   2.125   2.780   0.313 -0.5743 -0.5211  0.4073
   55MOL   O47927587   2.271   2.785   0.315  0.6659 -0.0663  0.0249
   55MOL   C48027588   2.328   2.838   0.426  0.0693  0.2924 -1.8379
   55MOL   C48127589   2.482   2.806   0.428 -0.5195 -0.1548 -0.4184
   55MOL   C48227590   2.510   2.660   0.469 -0.5188 -0.4109 -0.5746
   55MOL   C48327591   2.653   2.619   0.419 -0.4358  0.1003 -0.2412
   55MOL   C48427592   2.767   2.671   0.513 -0.0088  0.5638 -0.4383
   55MOL   C48527593   2.917   2.671   0.466  0.5534 -0.0739  0.3909
   55MOL   H48627594   2.155   2.574   0.325  0.6887 -0.6849 -0.7850
   55MOL   H48727595   2.118   2.636   0.161 -1.6023 -0.4243 -0.4240
   55MOL   H48827596   2.075   2.852   0.248 -1.6807 -0.8492  0.8997
   55MOL   H48927597   2.276   2.795   0.512  0.8800  2.6436 -0.1045
   55MOL   H49027598   2.315   2.946   0.425 -0.8664  0.2038 -0.8438
   55MOL   H49127599   2.531   2.876   0.496 -0.1051 -1.5045  0.7033
   55MOL   H49227600   2.521   2.823   0.328  1.2863  0.1497  0.3164
   55MOL   H49327601   2.502   2.644   0.576  1.2067  0.6464 -0.2768
   55MOL   H49427602   2.443   2.592   0.415  0.5112 -1.2730 -0.7687
   55MOL   H49527603   2.661   2.511   0.408 -0.1965 -0.1438  2.0804
   55MOL   H49627604   2.674   2.658   0.319  0.6691  1.0802  0.3619
   55MOL   H49727605   2.750   2.778   0.524  0.2442  0.6728 -1.0759
   55MOL   H49827606   2.763   2.620   0.609 -0.3520  0.0345 -0.7342
   55MOL   H49927607   2.977   2.705   0.550  1.8169 -0.6794 -0.2647
   55MOL   H50027608   2.946   2.570   0.438  1.6591  0.5018 -0.5574
   55MOL   H50127609   2.952   2.739   0.388  1.7405 -3.1199 -1.8403
   55MOL   H50227610   2.082   2.810   0.408  0.4965  0.3415  0.6318
   56MOL     C127611   3.064   0.689   2.080 -0.4483  0.1518 -0.1295
   56MOL     C227612   3.186   0.682   1.992 -0.5522  0.2706 -0.2444
   56MOL     O327613   3.290   0.689   2.092 -1.1137  0.0605 -0.6281
   56MOL     C427614   3.423   0.656   2.051 -0.3655 -0.5849  0.3839
   56MOL     C527615   3.520   0.633   2.169  0.5373 -0.2644 -0.2110
   56MOL     C627616   3.511   0.499   2.254  0.7075  0.3907  0.7424
   56MOL     C727617   3.360   0.448   2.268  0.5054 -0.0419 -0.6021
   56MOL     C827618   3.350   0.340   2.384  0.5932 -1.2050 -0.0372
   56MOL     C927619   3.209   0.282   2.400 -0.1720  0.0319 -0.0081
   56MOL    H1027620   3.047   0.782   2.134 -0.4824 -0.7889  1.4986
   56MOL    H1127621   2.974   0.669   2.021 -0.3946 -1.1629  0.2258
   56MOL    H1227622   3.197   0.585   1.944 -3.4264 -0.4429  0.3977
   56MOL    H1327623   3.460   0.739   1.990 -1.2730 -0.4557  0.0020
   56MOL    H1427624   3.430   0.572   1.983 -1.1470 -0.0747 -0.3384
   56MOL    H1527625   3.508   0.717   2.237 -1.6547 -2.9092  2.7730
   56MOL    H1627626   3.624   0.641   2.137  0.2204 -0.9726 -1.4679
   56MOL    H1727627   3.560   0.417   2.200  1.5354  0.7649  0.9165
   56MOL    H1827628   3.564   0.517   2.347  0.5324  0.4480  0.8301
   56MOL    H1927629   3.303   0.538   2.292 -0.2561 -0.5819 -0.3741
   56MOL    H2027630   3.315   0.415   2.175 -1.6076 -0.8255  0.6602
   56MOL    H2127631   3.368   0.385   2.482 -3.3885 -1.2982  0.8177
   56MOL    H2227632   3.437   0.275   2.386 -0.7376 -2.9895  0.5775
   56MOL    H2327633   3.126   0.351   2.387 -1.1049 -1.2854 -1.2049
   56MOL    H2427634   3.180   0.205   2.328  0.9878  0.5452 -1.0471
   56MOL    H2527635   3.191   0.240   2.499  1.2918  0.6975  0.5457
   56MOL    H2627636   3.067   0.614   2.159 -0.6106  1.0202  0.7036
   56MOL    C2727637   3.205   0.806   1.898 -0.2132 -0.3297  0.0443
   56MOL    C2827638   3.112   0.812   1.770  0.0448 -0.9992  0.8914
   56MOL    O2927639   3.103   0.950   1.728 -0.3572  0.4437  0.3186
   56MOL    C3027640   2.998   1.029   1.788 -0.2755  0.6417  0.4227
   56MOL    C3127641   3.033   1.171   1.771 -0.4738 -0.0981  0.3775
   56MOL    C3227642   2.930   1.263   1.826 -0.1594 -0.3824  0.3286
   56MOL    C3327643   2.966   1.410   1.781  1.0338  0.1420 -0.0690
   56MOL    C3427644   2.847   1.508   1.796 -0.0149 -1.1028  0.2680
   56MOL    C3527645   2.746   1.479   1.914  0.2836  0.0370 -0.2618
   56MOL    H3627646   3.177   0.896   1.954  1.4275  0.6906 -0.7344
   56MOL    H3727647   3.306   0.821   1.860 -0.8712 -0.1184 -1.6556
   56MOL    H3827648   3.010   0.780   1.787 -0.2769 -1.1941 -1.2808
   56MOL    H3927649   2.987   1.003   1.893  2.1334  0.9229  0.7771
   56MOL    H4027650   2.909   1.010   1.726  1.2883 -2.5549 -1.0051
   56MOL    H4127651   3.062   1.196   1.669 -1.1901 -3.0192 -0.5911
   56MOL    H4227652   3.125   1.192   1.825 -1.2401  0.6401  1.4138
   56MOL    H4327653   2.831   1.237   1.788 -2.1616  1.2991  4.0662
   56MOL    H4427654   2.915   1.244   1.932  0.7971 -1.2781  0.2984
   56MOL    H4527655   3.047   1.445   1.845  2.2536 -1.1749 -0.8772
   56MOL    H4627656   2.999   1.421   1.678 -0.3438 -1.7376 -0.7360
   56MOL    H4727657   2.885   1.610   1.805 -0.2486 -1.1813  2.2316
   56MOL    H4827658   2.789   1.516   1.704 -1.9371 -1.7785  1.3907
   56MOL    H4927659   2.671   1.556   1.930  0.3844  0.1469 -0.3124
   56MOL    H5027660   2.702   1.381   1.898 -1.3809  0.6062  0.6768
   56MOL    H5127661   2.808   1.472   2.003 -1.0873  1.6561  0.8568
   56MOL    C5227662   3.178   0.740   1.653 -0.1105  0.3370 -0.1123
   56MOL    C5327663   3.110   0.736   1.512  0.8015  0.2247 -0.0165
   56MOL    O5427664   3.195   0.671   1.418  0.0123 -0.1182 -0.4651
   56MOL    C5527665   3.261   0.761   1.336  0.0541 -0.1901  0.5624
   56MOL    C5627666   3.382   0.678   1.279  0.1652 -0.0788  0.5767
   56MOL    C5727667   3.464   0.632   1.399 -0.9431  0.0092  0.8268
   56MOL    C5827668   3.593   0.564   1.356  0.1054 -0.3596  0.2039
   56MOL    C5927669   3.585   0.450   1.260 -0.0592 -0.5776 -0.2054
   56MOL    C6027670   3.553   0.314   1.328  0.6727  1.0142  1.1561
   56MOL    H6127671   3.182   0.636   1.685  0.3439  0.5408  0.5038
   56MOL    H6227672   3.281   0.776   1.646 -1.0594  3.3805  0.5878
   56MOL    H6327673   3.105   0.841   1.484  2.0674 -0.0117 -1.1700
   56MOL    H6427674   3.301   0.852   1.381 -1.3218  0.5096  0.4071
   56MOL    H6527675   3.196   0.787   1.253 -0.9384 -3.3197  0.3219
   56MOL    H6627676   3.450   0.736   1.217 -0.2487  1.1139  1.1983
   56MOL    H6727677   3.336   0.593   1.229 -3.0529  1.5726  0.6199
   56MOL    H6827678   3.482   0.708   1.475 -0.8385  0.3655  0.4441
   56MOL    H6927679   3.409   0.550   1.446 -1.0599 -1.2739 -1.4688
   56MOL    H7027680   3.653   0.642   1.308  0.5354 -0.3684  0.7231
   56MOL    H7127681   3.658   0.531   1.437 -1.0194 -1.1568  0.7903
   56MOL    H7227682   3.522   0.481   1.176 -0.9994 -0.6500  0.4727
   56MOL    H7327683   3.681   0.430   1.211 -1.0755 -1.9414 -1.7107
   56MOL    H7427684   3.458   0.322   1.381  0.4673  2.4621  0.5736
   56MOL    H7527685   3.559   0.234   1.254 -0.7233  1.2421  0.7940
   56MOL    H7627686   3.636   0.281   1.391  1.0939  0.2967  0.2467
   56MOL    C7727687   2.975   0.658   1.514 -0.8097  0.5222 -0.6500
   56MOL    C7827688   2.918   0.636   1.379 -1.1666 -0.3846 -0.0562
   56MOL    O7927689   2.780   0.636   1.399  0.4499  0.3339 -0.3850
   56MOL    C8027690   2.729   0.773   1.398 -0.5803 -0.0176  0.2816
   56MOL    C8127691   2.583   0.745   1.409  0.6670  0.9093 -0.3928
   56MOL    C8227692   2.516   0.685   1.282  0.3034  0.6100  0.5029
   56MOL    C8327693   2.382   0.625   1.314 -0.4735  0.1960 -0.0625
   56MOL    C8427694   2.372   0.501   1.408  0.3433 -0.1902  0.8793
   56MOL    C8527695   2.228   0.469   1.450 -0.3160  0.2054 -0.4645
   56MOL    H8627696   2.904   0.707   1.580  0.1595  1.7028 -0.4888
   56MOL    H8727697   3.000   0.567   1.569 -1.3982  0.8371  0.1517
   56MOL    H8827698   2.957   0.715   1.315  0.7499 -0.9006  0.4602
   56MOL    H8927699   2.742   0.829   1.306 -1.2030 -0.9334 -0.3632
   56MOL    H9027700   2.760   0.841   1.477 -3.1631  0.0919  1.2199
   56MOL    H9127701   2.527   0.837   1.427 -0.3719  0.0971  0.6041
   56MOL    H9227702   2.561   0.684   1.496 -2.2072  1.7997 -0.4456
   56MOL    H9327703   2.500   0.765   1.210  0.5007 -0.0148 -0.2403
   56MOL    H9427704   2.579   0.614   1.229  0.4825 -0.0595  1.6030
   56MOL    H9527705   2.314   0.699   1.355 -1.6125 -0.6051 -0.4847
   56MOL    H9627706   2.345   0.600   1.214  2.2604 -4.2302 -0.1115
   56MOL    H9727707   2.407   0.416   1.349 -1.6965 -0.3782 -0.1135
   56MOL    H9827708   2.421   0.512   1.505  3.1567  1.4993 -0.6584
   56MOL    H9927709   2.236   0.388   1.523  0.5660  0.4265 -0.3079
   56MOL   H10027710   2.174   0.554   1.491 -0.8711 -0.8473  1.0416
   56MOL   H10127711   2.166   0.424   1.373 -1.3710  1.5310 -0.4031
   56MOL   C10227712   2.959   0.505   1.312  0.9623  0.0179  0.6020
   56MOL   C10327713   2.920   0.497   1.168  0.3015  0.3265  0.3962
   56MOL   O10427714   3.005   0.590   1.097  0.4028 -0.0169 -0.0935
   56MOL   C10527715   2.949   0.663   0.996  0.0720 -0.7275  0.5111
   56MOL   C10627716   3.069   0.727   0.932 -0.0119 -0.4013  0.0094
   56MOL   C10727717   3.150   0.621   0.869 -0.1608  0.3259 -0.4743
   56MOL   C10827718   3.285   0.663   0.803  0.1821  0.1790 -0.4041
   56MOL   C10927719   3.359   0.556   0.719 -1.2929 -0.4053  0.4112
   56MOL   C11027720   3.398   0.436   0.809  0.3558  0.4719 -0.8315
   56MOL   H11127721   3.062   0.473   1.327  0.2714 -1.6363  1.9908
   56MOL   H11227722   2.897   0.429   1.360  0.6794 -0.1092  0.0336
   56MOL   H11327723   2.817   0.533   1.157 -0.3477 -0.6863  2.6823
   56MOL   H11427724   2.878   0.735   1.038  0.7287 -0.2076  0.7379
   56MOL   H11527725   2.892   0.608   0.921  1.1484 -0.0866 -0.8010
   56MOL   H11627726   3.125   0.781   1.009 -0.9702  0.1750  0.3144
   56MOL   H11727727   3.033   0.798   0.858 -2.1685 -2.2037 -0.7201
   56MOL   H11827728   3.173   0.541   0.940  1.0946  1.4958  0.4818
   56MOL   H11927729   3.096   0.575   0.786  0.8806  0.8809 -1.4600
   56MOL   H12027730   3.272   0.754   0.743  1.6564  0.9043  0.3312
   56MOL   H12127731   3.355   0.705   0.876 -0.5833  0.5775  0.1136
   56MOL   H12227732   3.298   0.525   0.635 -0.8916 -0.2640  0.0630
   56MOL   H12327733   3.453   0.602   0.686 -1.6174  1.6788  2.2333
   56MOL   H12427734   3.318   0.363   0.821  1.5069 -0.8127 -0.8068
   56MOL   H12527735   3.489   0.383   0.782  0.5327  1.1225 -1.5355
   56MOL   H12627736   3.415   0.470   0.911 -0.9709  1.0181 -0.7799
   56MOL   C12727737   2.940   0.362   1.102  0.1072  0.0556  0.2850
   56MOL   C12827738   2.818   0.265   1.102 -0.3537  0.2038 -0.9240
   56MOL   O12927739   2.818   0.210   1.232  0.0020 -0.0988  0.6123
   56MOL   C13027740   2.707   0.252   1.322  0.1192 -0.2921  0.1381
   56MOL   C13127741   2.733   0.206   1.466  0.1874 -0.7401  0.0055
   56MOL   C13227742   2.612   0.214   1.564  0.5025  0.1046  0.2868
   56MOL   C13327743   2.480   0.143   1.518 -0.5078 -0.0157  0.7039
   56MOL   C13427744   2.360   0.147   1.626 -0.3241 -0.0063 -0.0053
   56MOL   C13527745   2.233   0.079   1.565  0.5211 -0.1402  0.8204
   56MOL   H13627746   2.969   0.379   0.998 -1.5530  1.2913 -0.0043
   56MOL   H13727747   3.026   0.314   1.148 -0.2433  0.5156  1.4262
   56MOL   H13827748   2.730   0.315   1.063  0.0271 -0.1077 -2.1938
   56MOL   H13927749   2.625   0.204   1.270  0.8291 -0.6474 -0.6677
   56MOL   H14027750   2.677   0.356   1.315  0.8143 -0.0929  0.0628
   56MOL   H14127751   2.810   0.275   1.502  0.5422 -0.9453 -0.3671
   56MOL   H14227752   2.774   0.106   1.456 -1.0393 -1.2039 -0.5596
   56MOL   H14327753   2.632   0.171   1.662  2.9047  2.2105  0.7666
   56MOL   H14427754   2.588   0.318   1.584 -0.4760  0.1303 -0.9229
   56MOL   H14527755   2.442   0.191   1.428  3.0000 -0.7806 -1.2813
   56MOL   H14627756   2.507   0.042   1.487  2.5317  0.5827  1.2207
   56MOL   H14727757   2.374   0.092   1.720  1.4823 -0.6174 -0.6086
   56MOL   H14827758   2.359   0.249   1.662  2.7878  1.5077 -3.8294
   56MOL   H14927759   2.239   7.749   1.547  0.8003  0.0695 -0.3383
   56MOL   H15027760   2.143   0.102   1.623  0.6174  0.4888  0.7239
   56MOL   H15127761   2.216   0.129   1.470  2.3986  0.1382  0.6024
   56MOL   C15227762   2.826   0.154   1.004  0.1967 -0.0224  0.4361
   56MOL   C15327763   2.945   0.059   1.007 -0.3744  0.0819 -0.2215
   56MOL   O15427764   2.900   7.705   0.997 -0.0058 -0.2599  0.1325
   56MOL   C15527765   2.847   7.648   1.117  0.1262  0.0820 -0.2695
   56MOL   C15627766   2.780   7.515   1.081  0.1007 -0.8134  1.1163
   56MOL   C15727767   2.732   7.450   1.203 -0.3101  0.2111 -0.2246
   56MOL   C15827768   2.700   7.299   1.186  0.2157  0.0396 -0.1845
   56MOL   C15927769   2.603   7.264   1.078 -0.4542 -0.5920 -0.1452
   56MOL   C16027770   2.464   7.316   1.095  0.0812 -0.4963 -0.0776
   56MOL   H16127771   2.739   0.091   1.025 -0.4336  0.5305 -0.4499
   56MOL   H16227772   2.817   0.196   0.904 -0.0295  0.6476  0.7346
   56MOL   H16327773   3.001   0.059   1.100  2.4677 -1.6827 -1.8615
   56MOL   H16427774   2.786   7.714   1.178 -1.8560 -3.2029  1.4886
   56MOL   H16527775   2.935   7.625   1.177  1.9299 -2.4284 -3.6702
   56MOL   H16627776   2.862   7.451   1.049  0.8718  0.6368  0.1353
   56MOL   H16727777   2.702   7.534   1.006 -0.5410 -0.2957  1.9105
   56MOL   H16827778   2.794   7.451   1.293 -3.3781 -1.1955  1.9909
   56MOL   H16927779   2.640   7.500   1.232 -0.7373  0.0499 -1.3030
   56MOL   H17027780   2.789   7.236   1.176  0.9571  0.6121  2.3849
   56MOL   H17127781   2.646   7.269   1.276 -0.0456 -0.8421 -0.6290
   56MOL   H17227782   2.644   7.301   0.984  1.2723 -1.1539  0.3589
   56MOL   H17327783   2.590   7.157   1.064 -0.3607 -0.5490 -0.5661
   56MOL   H17427784   2.424   7.281   1.190  2.8895  2.0309  2.1162
   56MOL   H17527785   2.472   7.425   1.093  1.5684 -0.6315 -1.9589
   56MOL   H17627786   2.394   7.283   1.018 -0.1022  0.0691 -0.1579
   56MOL   C17727787   3.043   0.072   0.885 -0.3598  0.3127  0.5913
   56MOL   C17827788   2.994   0.033   0.748  0.3387  0.3918 -0.1919
   56MOL   O17927789   3.083   0.096   0.654 -0.2010  0.7705 -0.1555
   56MOL   C18027790   3.216   0.054   0.639 -0.5515 -0.5175 -0.1554
   56MOL   C18127791   3.282   0.140   0.526  0.6220 -0.6226 -0.0866
   56MOL   C18227792   3.427   0.113   0.496 -0.3288  0.0379  0.0954
   56MOL   C18327793   3.490   0.221   0.404 -0.3130 -0.1564  0.0866
   56MOL   C18427794   3.634   0.185   0.366  0.4098 -0.5936 -0.3565
   56MOL   C18527795   3.633   0.080   0.249 -0.0513 -0.0546 -0.5723
   56MOL   H18627796   3.065   0.178   0.884  2.1513 -0.1799  0.2369
   56MOL   H18727797   3.138   0.019   0.901 -0.4660 -0.6207 -1.6486
   56MOL   H18827798   2.891   0.066   0.740 -0.7145 -3.0271 -1.7835
   56MOL   H18927799   3.227   7.731   0.597  1.3587  0.5209 -2.2458
   56MOL   H19027800   3.287   0.062   0.722 -1.3217 -3.3065  0.8312
   56MOL   H19127801   3.284   0.242   0.565  2.4125  0.1024 -1.9640
   56MOL   H19227802   3.215   0.132   0.440 -0.4362 -0.3707  0.6982
   56MOL   H19327803   3.485   0.109   0.589 -1.3208 -0.7280  0.6801
   56MOL   H19427804   3.454   0.013   0.461  0.3174 -0.6908  2.5444
   56MOL   H19527805   3.430   0.237   0.313 -1.1073  0.6176  0.7277
   56MOL   H19627806   3.488   0.312   0.465  0.1360  0.3134 -0.5902
   56MOL   H19727807   3.696   0.268   0.333  0.4178 -0.8303 -0.9437
   56MOL   H19827808   3.686   0.134   0.448  1.7320  2.4994  0.8180
   56MOL   H19927809   3.718   0.014   0.265 -0.0726 -0.1159 -0.7093
   56MOL   H20027810   3.551   0.008   0.249  0.9473 -1.2154 -1.1359
   56MOL   H20127811   3.634   0.137   0.156 -1.9951  1.3428  0.2161
   56MOL   C20227812   2.991   7.661   0.718 -0.2036 -0.1018 -0.2086
   56MOL   C20327813   2.969   7.611   0.571 -0.1354  0.3800 -0.5890
   56MOL   O20427814   2.837   7.641   0.540  0.0660  0.3897 -0.0295
   56MOL   C20527815   2.808   7.766   0.480  0.7016 -0.5059 -0.2939
   56MOL   C20627816   2.663   0.030   0.496  0.4827 -0.8710 -0.3030
   56MOL   C20727817   2.613   0.047   0.644  0.3298  0.1035 -0.5061
   56MOL   C20827818   2.595   7.701   0.739 -0.1758 -0.3220 -0.7130
   56MOL   C20927819   2.488   7.603   0.681  0.5519 -0.9809  0.5615
   56MOL   C21027820   2.422   7.520   0.796  0.1303  0.2734 -0.6005
   56MOL   H21127821   3.089   7.627   0.752  0.6211  2.7861  0.4691
   56MOL   H21227822   2.915   7.611   0.778  0.9742  0.3207  1.7079
   56MOL   H21327823   3.034   7.654   0.495 -0.1943 -2.4879 -2.3341
   56MOL   H21427824   2.825   7.758   0.373  2.1909  1.9857 -0.2795
   56MOL   H21527825   2.865   0.070   0.526 -0.0810  0.9539 -1.8475
   56MOL   H21627826   2.592   7.741   0.448 -0.5084 -0.0226 -0.0137
   56MOL   H21727827   2.640   0.123   0.443 -2.1907 -2.4623 -2.0310
   56MOL   H21827828   2.690   0.112   0.687  1.1550 -1.6090  0.6641
   56MOL   H21927829   2.522   0.107   0.635  1.7269  1.9805 -2.5513
   56MOL   H22027830   2.690   7.655   0.768  0.2547  1.5827  0.9708
   56MOL   H22127831   2.557   7.735   0.835  1.8880  1.0867 -0.3627
   56MOL   H22227832   2.420   7.663   0.621  1.8750  0.5356  0.5309
   56MOL   H22327833   2.539   7.536   0.612  0.5151 -1.9839  1.4957
   56MOL   H22427834   2.391   7.425   0.754 -0.0238  0.3419 -0.6425
   56MOL   H22527835   2.494   7.501   0.875 -0.7573 -0.0121  0.1433
   56MOL   H22627836   2.339   7.578   0.837  0.5066 -0.9670  1.9842
   56MOL   C22727837   2.974   7.459   0.572 -0.3981 -0.3392 -0.3156
   56MOL   C22827838   3.002   7.400   0.433  0.2287  0.2211 -0.0614
   56MOL   O22927839   3.130   7.453   0.383  0.4902 -0.0768  0.3523
   56MOL   C23027840   3.133   7.521   0.260 -0.1366  0.2185 -0.1032
   56MOL   C23127841   3.275   7.559   0.236 -0.4170 -0.3573  0.1770
   56MOL   C23227842   3.364   7.440   0.189 -0.1980  0.0904  0.3070
   56MOL   C23327843   3.492   7.465   0.107 -0.3376 -0.0416  0.4700
   56MOL   C23427844   3.595   7.343   0.115  0.3179  0.1757 -0.2418
   56MOL   C23527845   3.565   7.226   0.026  0.2900 -0.3321 -0.1756
   56MOL   H23627846   3.062   7.434   0.632 -1.3396 -1.3872  0.6643
   56MOL   H23727847   2.886   7.415   0.620  0.5090 -1.6598  0.1629
   56MOL   H23827848   2.917   7.431   0.371  0.0290 -1.1254 -0.4723
   56MOL   H23927849   3.072   7.611   0.271 -2.0752 -1.0853  0.1948
   56MOL   H24027850   3.092   7.470   0.173  0.5755  2.6225 -1.8991
   56MOL   H24127851   3.314   7.605   0.326  0.6388  0.8132 -0.8487
   56MOL   H24227852   3.290   7.641   0.165  0.4513  1.9218  2.9318
   56MOL   H24327853   3.385   7.376   0.275 -0.8287  1.6518  1.6472
   56MOL   H24427854   3.293   7.379   0.131 -1.4859 -0.5880  2.5233
   56MOL   H24527855   3.459   7.485   0.005 -1.2198  0.0979  0.7795
   56MOL   H24627856   3.551   7.551   0.138  1.3105 -1.4512  1.3233
   56MOL   H24727857   3.692   7.383   0.089  0.6847 -0.8029 -0.4258
   56MOL   H24827858   3.611   7.310   0.218  0.5936  0.3629 -0.2263
   56MOL   H24927859   3.480   7.183   0.080  0.0797 -0.2979 -0.4772
   56MOL   H25027860   3.553   7.253   7.698 -0.5970 -0.8189 -0.2131
   56MOL   H25127861   3.648   7.155   0.028 -1.1545 -2.0916 -0.3960
   56MOL   C25227862   3.020   7.248   0.434  1.3924  0.2392 -0.1458
   56MOL   C25327863   2.986   7.182   0.297  0.6694 -0.3197 -0.3350
   56MOL   O25427864   2.845   7.192   0.274 -0.3085  0.0289 -0.3791
   56MOL   C25527865   2.811   7.190   0.138 -0.1132 -0.0641  0.0886
   56MOL   C25627866   2.662   7.187   0.129  0.4744 -0.4355  0.1196
   56MOL   C25727867   2.584   7.309   0.161  1.0495 -0.0025  0.8601
   56MOL   C25827868   2.443   7.285   0.217 -0.5908 -0.6911 -0.1913
   56MOL   C25927869   2.446   7.283   0.365  0.6147 -0.3029  0.6812
   56MOL   C26027870   2.315   7.263   0.430  0.0376  0.1279  0.3707
   56MOL   H26127871   3.125   7.237   0.462  1.6382  1.0871 -0.7283
   56MOL   H26227872   2.967   7.204   0.519  1.0530 -0.9381 -0.9517
   56MOL   H26327873   3.039   7.237   0.219 -0.8877  1.0039 -0.4844
   56MOL   H26427874   2.841   7.091   0.101 -1.8379  0.1263 -1.9099
   56MOL   H26527875   2.859   7.263   0.073  0.2641 -0.4122 -0.0298
   56MOL   H26627876   2.625   7.110   0.196 -0.2854  0.3296  0.5877
   56MOL   H26727877   2.638   7.166   0.025  0.7587  0.4174 -0.1223
   56MOL   H26827878   2.643   7.371   0.228  0.8377  0.3114  0.7629
   56MOL   H26927879   2.570   7.358   0.064 -1.4380 -0.5588  0.9065
   56MOL   H27027880   2.389   7.375   0.185 -1.8745 -1.2524  0.3901
   56MOL   H27127881   2.391   7.201   0.172 -1.0578 -0.9889  0.8880
   56MOL   H27227882   2.515   7.204   0.397 -0.0908 -2.0891 -2.0058
   56MOL   H27327883   2.493   7.377   0.394 -0.3901  0.5781 -0.4650
   56MOL   H27427884   2.313   7.285   0.537  1.5176 -0.3681  0.5207
   56MOL   H27527885   2.245   7.330   0.382  0.5736  0.9314  0.6875
   56MOL   H27627886   2.276   7.163   0.410 -3.9098  0.4759  5.2593
   56MOL   C27727887   3.020   7.034   0.301 -0.5998  0.0792  0.1643
   56MOL   C27827888   3.165   6.990   0.267  0.1966  0.1023  0.2603
   56MOL   O27927889   3.209   7.041   0.143  0.4285  0.3391 -0.2663
   56MOL   C28027890   3.153   6.982   0.032  0.0529 -0.7078 -0.3352
   56MOL   C28127891   3.213   7.043   7.680  0.3427 -0.7491  0.4357
   56MOL   C28227892   3.153   7.182   7.665  0.2960  0.0467  0.0709
   56MOL   C28327893   3.198   7.265   7.542 -0.1699 -0.2315  0.8009
   56MOL   C28427894   3.146   7.209   7.407  0.0601 -0.5903 -0.3091
   56MOL   C28527895   3.159   7.308   7.294  0.4342  0.5650  0.6734
   56MOL   H28627896   3.014   7.004   0.405 -1.3590 -1.4454 -0.2917
   56MOL   H28727897   2.954   6.966   0.246 -0.1004  0.2755 -0.6849
   56MOL   H28827898   3.163   6.882   0.264 -2.2752  0.1028  0.4403
   56MOL   H28927899   3.046   6.996   0.047  0.0914  0.8852 -1.4689
   56MOL   H29027900   3.170   6.874   0.029 -1.9918 -1.0355 -0.9031
   56MOL   H29127901   3.200   6.987   7.587  0.0413 -0.3414  0.2300
   56MOL   H29227902   3.319   7.057   7.704  0.5838  0.4455 -1.2487
   56MOL   H29327903   3.044   7.174   7.664  0.3075 -0.4965  1.5890
   56MOL   H29427904   3.187   7.238   7.752  1.0114 -1.0707  0.5141
   56MOL   H29527905   3.159   7.363   7.570 -1.4630 -1.3020  2.8943
   56MOL   H29627906   3.306   7.267   7.532 -0.3013 -0.0714 -0.6421
   56MOL   H29727907   3.193   7.113   7.383 -0.7867 -0.5166 -2.3520
   56MOL   H29827908   3.041   7.179   7.415  0.3451 -1.3958  0.5191
   56MOL   H29927909   3.122   7.405   7.327  1.0548  0.9779  0.1731
   56MOL   H30027910   3.266   7.319   7.275  0.0037  0.7650 -1.8810
   56MOL   H30127911   3.110   7.271   7.203  1.3986  1.6548 -0.3164
   56MOL   C30227912   3.273   7.038   0.361 -0.2832 -0.0029 -0.4501
   56MOL   C30327913   3.415   6.983   0.329  0.0382 -0.2212 -0.9344
   56MOL   O30427914   3.407   6.839   0.314 -0.5720  0.7618 -0.2133
   56MOL   C30527915   3.432   6.799   0.180 -0.4515  0.3735 -0.4167
   56MOL   C30627916   3.400   6.652   0.181  0.0400  1.1785 -0.4272
   56MOL   C30727917   3.489   6.577   0.285  0.2530 -0.4104  0.3006
   56MOL   C30827918   3.456   6.420   0.286 -0.5026 -0.4533 -0.1512
   56MOL   C30927919   3.548   6.361   0.399  0.4737 -0.6755  0.8970
   56MOL   C31027920   3.562   6.214   0.392  0.3691 -0.5939  0.0137
   56MOL   H31127921   3.278   7.147   0.358 -0.6648 -0.0106 -1.3018
   56MOL   H31227922   3.234   7.020   0.462  0.5795  0.1296 -0.0897
   56MOL   H31327923   3.447   7.031   0.236  0.1229  1.7338  0.0658
   56MOL   H31427924   3.537   6.813   0.154 -0.4002  0.0328 -0.3951
   56MOL   H31527925   3.372   6.856   0.109 -1.1741  0.1383 -0.0017
   56MOL   H31627926   3.424   6.609   0.084  1.9575  4.1819 -1.3671
   56MOL   H31727927   3.295   6.643   0.211 -0.2276  0.3474 -1.5874
   56MOL   H31827928   3.590   6.585   0.244  0.5845 -2.7487  0.5751
   56MOL   H31927929   3.483   6.619   0.385 -0.2465  1.0224 -0.3203
   56MOL   H32027930   3.348   6.414   0.297 -0.7597  2.8631 -0.2737
   56MOL   H32127931   3.471   6.377   0.187 -1.7477 -0.7213 -0.2316
   56MOL   H32227932   3.652   6.393   0.394 -0.0261  1.0147  0.9147
   56MOL   H32327933   3.511   6.385   0.499  0.4313  0.9198  0.5240
   56MOL   H32427934   3.471   6.163   0.424 -0.1270  0.3613  0.1205
   56MOL   H32527935   3.587   6.178   0.292  1.2066  0.0093  0.0003
   56MOL   H32627936   3.630   6.174   0.467  0.2274 -1.4850 -0.3184
   56MOL   C32727937   3.524   7.013   0.439 -0.2556 -0.8474 -0.8000
   56MOL   C32827938   3.674   6.987   0.412  0.1375  0.3425 -0.4112
   56MOL   O32927939   3.738   7.067   0.511  0.3792  0.1387 -0.0389
   56MOL   C33027940   3.859   7.137   0.469  0.0425  0.2517  0.6436
   56MOL   C33127941   3.927   7.205   0.588  0.2927  0.4041 -0.3638
   56MOL   C33227942   3.963   7.123   0.717 -0.0899 -0.6168  0.1447
   56MOL   C33327943   3.979   7.212   0.837  0.0943 -0.3908  0.1488
   56MOL   C33427944   4.015   7.134   0.961 -0.7489 -0.3562 -0.2470
   56MOL   C33527945   4.010   7.207   1.093  0.3821  0.4865 -0.1580
   56MOL   H33627946   3.485   6.971   0.532 -1.1472  1.3079 -0.1856
   56MOL   H33727947   3.512   7.117   0.467 -1.4411 -0.9336 -0.9732
   56MOL   H33827948   3.690   7.020   0.309  0.5801 -1.7098 -1.0186
   56MOL   H33927949   3.820   7.208   0.396  0.2278  0.9778  1.2390
   56MOL   H34027950   3.929   7.067   0.424 -1.4483 -1.7807  1.3907
   56MOL   H34127951   3.862   7.287   0.619 -0.7199  0.4781 -2.5943
   56MOL   H34227952   4.014   7.261   0.552 -0.5324  0.3708 -2.4644
   56MOL   H34327953   3.894   7.041   0.735 -1.4986  0.2829 -1.0737
   56MOL   H34427954   4.056   7.070   0.699 -0.9189 -1.5830 -1.4205
   56MOL   H34527955   4.062   7.281   0.822  0.6441 -1.2514 -0.9005
   56MOL   H34627956   3.883   7.262   0.847 -0.6769 -1.8771  0.1649
   56MOL   H34727957   3.945   7.051   0.968 -1.1043 -0.0804 -0.5144
   56MOL   H34827958   4.118   7.098   0.951 -0.3730  0.3646  0.9836
   56MOL   H34927959   3.911   7.251   1.084  0.5709  0.7337 -1.1155
   56MOL   H35027960   4.031   7.140   1.175  1.8054 -1.2172 -1.8608
   56MOL   H35127961   4.093   7.278   1.098  1.0660 -0.3565  0.5672
   56MOL   C35227962   3.724   6.846   0.423 -0.7354 -0.4617  0.3342
   56MOL   C35327963   3.842   6.810   0.333  0.5449 -0.3689 -0.3268
   56MOL   O35427964   3.807   6.818   0.195  0.4975  0.1979  0.1205
   56MOL   C35527965   3.899   6.894   0.111 -0.5721 -0.3570  0.0649
   56MOL   C35627966   3.834   6.872   7.749  0.1077  0.3557  0.3744
   56MOL   C35727967   3.847   6.726   7.709  0.3145  0.5469 -0.2482
   56MOL   C35827968   3.807   6.699   7.569 -0.3981  0.0650  0.0642
   56MOL   C35927969   3.845   6.553   7.536 -0.1719 -0.3428  0.4491
   56MOL   C36027970   3.800   6.514   7.399  0.4313  0.1089  0.2645
   56MOL   H36127971   3.737   6.848   0.531 -0.3758  1.5193  0.2668
   56MOL   H36227972   3.642   6.776   0.406 -0.1867 -1.5541  2.0950
   56MOL   H36327973   3.925   6.877   0.355  0.2497 -0.2099  0.3084
   56MOL   H36427974   4.001   6.858   0.126  0.0923  1.3203 -0.3566
   56MOL   H36527975   3.891   7.000   0.135  1.8023 -0.1903  0.3255
   56MOL   H36627976   3.882   6.928   7.669 -0.4927  0.2627 -0.0488
   56MOL   H36727977   3.727   6.894   7.746  0.1784  0.7560  0.6927
   56MOL   H36827978   3.952   6.700   7.724  1.1765  2.8215 -1.9842
   56MOL   H36927979   3.781   6.669   7.774  0.5460  0.5780  0.0140
   56MOL   H37027980   3.703   6.724   7.547 -0.5425  0.1225  0.7980
   56MOL   H37127981   3.863   6.751   7.492  2.3970 -3.3826 -0.3566
   56MOL   H37227982   3.953   6.552   7.549  0.0568  1.4004 -1.2547
   56MOL   H37327983   3.802   6.486   7.611 -1.7145  2.4889  2.2029
   56MOL   H37427984   3.849   6.563   7.315 -0.1583  0.3849  0.0774
   56MOL   H37527985   3.800   6.408   7.376 -0.6877  0.8096 -3.3017
   56MOL   H37627986   3.696   6.542   7.380 -0.0864 -1.8502  0.0615
   56MOL   C37727987   3.890   6.664   0.362 -0.9284  0.4039 -0.7047
   56MOL   C37827988   3.989   6.603   0.264  0.7279 -0.1505 -0.1582
   56MOL   O37927989   3.965   6.459   0.271 -0.0912 -0.3573  0.0905
   56MOL   C38027990   3.878   6.407   0.173 -0.3156 -0.4830  0.0938
   56MOL   C38127991   3.884   6.252   0.189 -0.4765 -0.2402 -0.4889
   56MOL   C38227992   3.816   6.173   0.078  0.9587 -0.2120 -0.7963
   56MOL   C38327993   3.912   6.161   7.731 -0.4338 -0.3470 -0.6766
   56MOL   C38427994   3.842   6.103   7.609 -0.4125  0.0712 -0.1370
   56MOL   C38527995   3.837   5.949   7.618 -0.8892  0.5784 -0.1452
   56MOL   H38627996   3.940   6.658   0.459  0.2940  2.0027 -1.1941
   56MOL   H38727997   3.800   6.606   0.379 -1.6580  1.8447  0.4839
   56MOL   H38827998   3.962   6.646   0.168 -2.1494  1.8166  1.4515
   56MOL   H38927999   3.909   6.438   0.073 -1.3791  1.7548  0.4152
   56MOL   H39028000   3.777   6.438   0.198  0.0860  0.8241  0.1600
   56MOL   H39128001   3.828   6.227   0.279  0.2891 -0.0142  0.0536
   56MOL   H39228002   3.987   6.225   0.209 -1.0748 -0.0078  3.4587
   56MOL   H39328003   3.779   6.076   0.111 -0.5295  0.2702 -0.9894
   56MOL   H39428004   3.720   6.214   0.046 -0.1550  0.0416  2.6959
   56MOL   H39528005   3.953   6.255   7.692  0.3844  1.0052  3.2085
   56MOL   H39628006   3.996   6.097   7.757 -1.4928 -1.2591  0.5359
   56MOL   H39728007   3.741   6.142   7.592 -0.1023  0.1721 -1.8425
   56MOL   H39828008   3.898   6.128   7.519 -0.8262 -0.5041 -0.5623
   56MOL   H39928009   3.787   5.912   7.529 -0.5424  0.7336 -0.4022
   56MOL   H40028010   3.931   5.895   7.626 -0.6196  0.8683 -1.3085
   56MOL   H40128011   3.774   5.929   7.705 -1.4742  1.1885 -0.4269
   56MOL   C40228012   4.138   6.627   0.295  0.1196  0.5151 -1.4143
   56MOL   C40328013   4.241   6.599   0.186 -0.2939 -0.2132 -0.0570
   56MOL   O40428014   4.195   6.663   0.067 -0.1462  0.0941  0.0205
   56MOL   C40528015   4.301   6.723   7.762 -0.0278  0.4122  0.3181
   56MOL   C40628016   4.232   6.758   7.626 -0.4530  0.3212 -0.3503
   56MOL   C40728017   4.325   6.816   7.513  0.5760 -0.1392 -0.1199
   56MOL   C40828018   4.248   6.884   7.395  0.1819  0.5691  0.2718
   56MOL   C40928019   4.339   6.893   7.273 -0.2154  0.3948  0.0787
   56MOL   C41028020   4.432   7.014   7.265 -0.3277  0.0851 -0.2285
   56MOL   H41128021   4.175   6.592   0.391  1.0420  0.0018 -1.9441
   56MOL   H41228022   4.145   6.735   0.313 -1.4345  0.2449  1.0019
   56MOL   H41328023   4.334   6.645   0.221 -1.0433  0.1053  1.5194
   56MOL   H41428024   4.369   6.643   7.735 -3.2484 -2.9980  1.8551
   56MOL   H41528025   4.358   6.806   0.025 -0.6535  0.6610  0.6927
   56MOL   H41628026   4.154   6.832   7.642 -1.6280 -0.4782 -2.2909
   56MOL   H41728027   4.173   6.677   7.584 -0.9935  1.1556 -1.2283
   56MOL   H41828028   4.407   6.877   7.552  0.2037  0.5552 -0.4102
   56MOL   H41928029   4.369   6.725   7.472  0.3521  0.2980 -1.3512
   56MOL   H42028030   4.168   6.816   7.365  2.0337 -1.5360 -0.0366
   56MOL   H42128031   4.211   6.981   7.429  0.7976  0.2086  2.0435
   56MOL   H42228032   4.406   6.806   7.271  0.7406  1.0261  2.5656
   56MOL   H42328033   4.285   6.901   7.179  0.8199  1.0229 -0.4680
   56MOL   H42428034   4.502   7.002   7.182  0.6964 -1.8455  0.8807
   56MOL   H42528035   4.375   7.105   7.245 -1.0532 -0.2103  0.4691
   56MOL   H42628036   4.493   7.029   7.354  0.4061  0.8998 -0.8562
   56MOL   C42728037   4.252   6.452   0.147 -0.3244 -0.1488 -0.4562
   56MOL   C42828038   4.338   6.358   0.236 -0.1381  0.0951 -0.2917
   56MOL   O42928039   4.470   6.398   0.238  0.4959  0.2199  0.1339
   56MOL   C43028040   4.552   6.374   0.123 -0.0067  0.2287  0.5775
   56MOL   C43128041   4.672   6.470   0.130  0.0194 -0.0845  0.6260
   56MOL   C43228042   4.635   6.618   0.140 -1.1695  0.2269 -0.2047
   56MOL   C43328043   4.756   6.712   0.144 -0.1465 -0.0838 -0.1441
   56MOL   C43428044   4.728   6.854   0.171  0.1576 -0.8327  0.8674
   56MOL   C43528045   4.818   6.941   0.084 -0.4767  0.4260 -0.1149
   56MOL   H43628046   4.156   6.408   0.120 -0.0445  0.9831 -3.3861
   56MOL   H43728047   4.294   6.455   0.047  1.1651  0.6380  0.1747
   56MOL   H43828048   4.352   6.257   0.197  1.9952 -0.1070  0.8872
   56MOL   H43928049   4.504   6.393   0.027  1.8992 -1.2462 -0.7063
   56MOL   H44028050   4.585   6.271   0.106 -1.1030 -0.0446  0.0664
   56MOL   H44128051   4.742   6.445   0.049 -0.2796 -1.9096  0.9114
   56MOL   H44228052   4.726   6.442   0.221 -0.4143 -1.6781  0.4036
   56MOL   H44328053   4.574   6.641   0.053 -2.4852 -1.6867  0.1800
   56MOL   H44428054   4.572   6.625   0.229 -0.3928 -0.9532  0.4419
   56MOL   H44528055   4.839   6.675   0.204 -1.7608 -0.6233  1.8315
   56MOL   H44628056   4.789   6.713   0.040  1.8422  2.3640  0.4751
   56MOL   H44728057   4.633   6.870   0.121  1.0271 -0.9716 -0.8815
   56MOL   H44828058   4.731   6.881   0.276 -0.1865  1.1336  0.3958
   56MOL   H44928059   4.776   7.040   0.063 -2.1056 -0.3075 -0.3272
   56MOL   H45028060   4.922   6.963   0.110 -0.7242 -1.0340  2.1460
   56MOL   H45128061   4.836   6.904   7.760 -1.4756  0.5789 -0.3573
   56MOL   C45228062   4.293   6.341   0.384  0.0639  0.2997  0.7034
   56MOL   C45328063   4.331   6.208   0.455 -0.6751  0.8117  0.0885
   56MOL   O45428064   4.319   6.207   0.597  0.0500 -0.2822 -0.1255
   56MOL   C45528065   4.192   6.235   0.648 -0.1728 -1.1129 -0.7581
   56MOL   C45628066   4.074   6.143   0.620 -0.0162  0.0563  0.1865
   56MOL   C45728067   4.085   6.017   0.707 -0.2565 -0.1228 -0.1906
   56MOL   C45828068   3.984   5.916   0.670 -0.2036 -0.8264 -0.6555
   56MOL   C45928069   3.980   5.781   0.756 -0.1076  0.1564 -0.4288
   56MOL   C46028070   3.900   5.651   0.721  0.3386 -1.0723  0.0403
   56MOL   H46128071   4.340   6.422   0.440  0.9290 -0.5408  1.2168
   56MOL   H46228072   4.184   6.343   0.390 -0.1268 -2.8890 -0.8512
   56MOL   H46328073   4.275   6.129   0.407  2.3724 -0.8575 -0.8829
   56MOL   H46428074   4.158   6.331   0.609  1.0062  0.1760  1.3135
   56MOL   H46528075   4.212   6.245   0.755  1.5561  0.8960 -1.2306
   56MOL   H46628076   4.073   6.124   0.513 -0.1358 -1.4051  0.4346
   56MOL   H46728077   3.981   6.197   0.637 -0.0029 -0.2524  1.2996
   56MOL   H46828078   4.183   5.968   0.702 -0.5070 -0.5321 -1.0200
   56MOL   H46928079   4.073   6.041   0.813 -1.6206 -2.8700  0.3395
   56MOL   H47028080   3.887   5.958   0.694  0.0300 -1.8864  2.3668
   56MOL   H47128081   3.980   5.890   0.564 -0.9013 -0.8135 -0.6349
   56MOL   H47228082   4.082   5.744   0.771 -0.6567 -1.1993  0.0251
   56MOL   H47328083   3.942   5.811   0.853 -1.7968  3.0242 -1.8952
   56MOL   H47428084   3.794   5.659   0.699  0.2811 -0.7790  0.4192
   56MOL   H47528085   3.934   5.599   0.632  0.0151 -0.1322 -0.6509
   56MOL   H47628086   3.918   5.582   0.803  0.6117 -1.0440  0.0063
   56MOL   C47728087   4.481   6.170   0.430  0.5469 -0.1684  0.7357
   56MOL   C47828088   4.511   6.031   0.486  1.1303  0.0599 -0.1583
   56MOL   O47928089   4.492   5.930   0.379  0.2301  0.2163 -0.3588
   56MOL   C48028090   4.511   5.798   0.426 -0.3016  0.2127  0.0932
   56MOL   C48128091   4.387   5.732   0.494 -0.7341  0.1009  0.0402
   56MOL   C48228092   4.282   5.700   0.388 -0.4097  0.3773 -0.6228
   56MOL   C48328093   4.193   5.820   0.355  0.7105 -0.6278  0.0199
   56MOL   C48428094   4.073   5.806   0.269 -0.3683 -0.2993  0.1512
   56MOL   C48528095   4.111   5.770   0.133  0.4383  0.5133 -0.5607
   56MOL   H48628096   4.512   6.176   0.326 -1.5587  4.0299  0.2738
   56MOL   H48728097   4.548   6.242   0.476  0.2901 -0.5319  1.6958
   56MOL   H48828098   4.616   6.030   0.514  1.2098  0.8641 -0.4095
   56MOL   H48928099   4.595   5.795   0.495 -1.3838 -0.0176  1.4280
   56MOL   H49028100   4.539   5.740   0.338 -2.1425  2.3827 -1.9924
   56MOL   H49128101   4.344   5.799   0.569 -1.8939 -1.0241  0.4080
   56MOL   H49228102   4.408   5.637   0.544  0.5706  0.3285 -0.0707
   56MOL   H49328103   4.334   5.662   0.300  0.3717 -2.2792  0.9401
   56MOL   H49428104   4.224   5.618   0.429  1.3876  0.3694  1.9981
   56MOL   H49528105   4.165   5.847   0.457 -0.0161 -2.4717  0.3337
   56MOL   H49628106   4.254   5.902   0.317 -0.0996  0.9114  1.9486
   56MOL   H49728107   4.008   5.731   0.315  0.4392 -0.9285  0.2857
   56MOL   H49828108   4.025   5.904   0.275 -0.1192 -0.2439  1.3067
   56MOL   H49928109   4.026   5.775   0.065  0.3319 -0.2865 -0.4905
   56MOL   H50028110   4.179   5.844   0.092 -1.2910  1.6329 -1.4619
   56MOL   H50128111   4.156   5.672   0.117 -0.3752 -0.0568  0.5900
   56MOL   H50228112   4.458   5.997   0.575 -0.7042 -2.5175 -2.1878
   57MOL     C128113   5.399   3.542   5.238  0.3575 -0.0367 -0.6762
   57MOL     C228114   5.325   3.618   5.125  0.3825 -0.3705 -0.6762
   57MOL     O328115   5.393   3.575   5.010  0.0739  0.0309 -0.7008
   57MOL     C428116   5.340   3.463   4.944 -0.5988 -0.8574  0.1374
   57MOL     C528117   5.458   3.398   4.875  0.2033 -0.6802 -0.1325
   57MOL     C628118   5.507   3.467   4.743 -0.1306  0.7177  0.0292
   57MOL     C728119   5.651   3.416   4.702 -0.2444  0.0496 -0.0457
   57MOL     C828120   5.718   3.498   4.593  0.2399 -0.5835  0.8613
   57MOL     C928121   5.669   3.463   4.447 -0.2453  0.3775 -0.6221
   57MOL    H1028122   5.428   3.439   5.218  0.2398 -0.0045 -1.0134
   57MOL    H1128123   5.490   3.601   5.249 -0.5423  0.8986  2.3405
   57MOL    H1228124   5.222   3.583   5.123 -0.1120  0.9832  0.4804
   57MOL    H1328125   5.246   3.489   4.895  0.8223  0.8777 -1.7983
   57MOL    H1428126   5.313   3.392   5.021 -1.6502  0.7901  1.3331
   57MOL    H1528127   5.434   3.294   4.856  1.4827 -0.7357 -1.6536
   57MOL    H1628128   5.546   3.386   4.938  2.1693  0.0520 -2.6388
   57MOL    H1728129   5.433   3.442   4.667  3.3020  0.2928 -3.2954
   57MOL    H1828130   5.506   3.573   4.770  2.2007  0.6967  0.2999
   57MOL    H1928131   5.723   3.413   4.784 -0.7302  4.2859  0.6724
   57MOL    H2028132   5.624   3.317   4.668  3.3692 -0.5253 -1.4867
   57MOL    H2128133   5.824   3.475   4.604  0.1567 -1.7192 -0.5642
   57MOL    H2228134   5.700   3.605   4.601 -1.1307 -0.6498 -1.1343
   57MOL    H2328135   5.704   3.542   4.381 -0.2619  1.0797  0.2041
   57MOL    H2428136   5.702   3.366   4.411  1.0639  0.3924  0.5191
   57MOL    H2528137   5.560   3.454   4.440 -0.2456 -0.3449  0.2417
   57MOL    H2628138   5.358   3.541   5.339  1.3079  1.8405 -0.2438
   57MOL    C2728139   5.330   3.776   5.132  1.0258 -0.1708  0.1559
   57MOL    C2828140   5.208   3.843   5.054 -1.0757 -1.0205 -0.1453
   57MOL    O2928141   5.092   3.800   5.123  0.2174 -0.8308 -0.4481
   57MOL    C3028142   4.967   3.850   5.080  0.3379  0.6347  0.1396
   57MOL    C3128143   4.853   3.801   5.167  0.3003 -0.4970 -0.0161
   57MOL    C3228144   4.842   3.646   5.181  0.1228  0.3221 -0.1543
   57MOL    C3328145   4.697   3.594   5.205 -0.2524  0.4830  1.1346
   57MOL    C3428146   4.704   3.443   5.236 -0.3357 -0.2208  0.5645
   57MOL    C3528147   4.578   3.373   5.271 -0.2092 -0.1162  0.1338
   57MOL    H3628148   5.323   3.801   5.238  0.9716  0.5789 -0.0200
   57MOL    H3728149   5.423   3.815   5.091  2.4112 -0.7663  2.6411
   57MOL    H3828150   5.208   3.799   4.954  0.2707 -2.5653  0.5055
   57MOL    H3928151   4.960   3.813   4.978 -0.6643 -0.5996  0.6502
   57MOL    H4028152   4.947   3.957   5.067 -1.5791  0.4751  1.5689
   57MOL    H4128153   4.754   3.835   5.137  0.5837  1.8027  1.5021
   57MOL    H4228154   4.870   3.838   5.268  0.0011 -0.6537  0.0925
   57MOL    H4328155   4.887   3.587   5.101 -0.6822  1.5288 -1.5191
   57MOL    H4428156   4.883   3.619   5.278  0.4812  0.3836 -0.2904
   57MOL    H4528157   4.651   3.646   5.289 -1.5313 -0.1737  0.8509
   57MOL    H4628158   4.633   3.611   5.118 -0.0305  1.0993  1.0905
   57MOL    H4728159   4.738   3.385   5.149  1.4727  1.2482  0.2561
   57MOL    H4828160   4.774   3.424   5.317 -0.9189 -0.7304  0.9547
   57MOL    H4928161   4.524   3.428   5.348  0.8821  0.4441  0.5082
   57MOL    H5028162   4.515   3.366   5.181 -2.5874  0.1369  1.7223
   57MOL    H5128163   4.612   3.276   5.307 -0.5504 -1.7085 -3.6096
   57MOL    C5228164   5.230   3.997   5.042 -0.2066 -0.8255  0.2153
   57MOL    C5328165   5.228   4.059   5.177  0.0678  0.4173 -0.7796
   57MOL    O5428166   5.354   4.036   5.238  0.1985 -0.1633  0.3314
   57MOL    C5528167   5.361   4.051   5.378 -0.2568 -1.0895  1.0438
   57MOL    C5628168   5.498   4.004   5.424 -0.9130  0.4800  0.2375
   57MOL    C5728169   5.529   4.062   5.561 -0.0671 -0.1490 -0.2808
   57MOL    C5828170   5.656   4.010   5.622 -0.9039 -0.0432 -1.1216
   57MOL    C5928171   5.676   4.081   5.756  0.2817  0.0444 -0.1741
   57MOL    C6028172   5.798   4.042   5.845 -0.1580 -0.3076 -0.4454
   57MOL    H6128173   5.151   4.038   4.980  0.7009 -0.4338 -0.7109
   57MOL    H6228174   5.322   4.021   4.988 -0.5667 -0.5673 -0.2904
   57MOL    H6328175   5.148   4.018   5.239  0.6602 -1.4801 -1.2281
   57MOL    H6428176   5.285   3.987   5.422 -2.1432  0.1021 -0.3948
   57MOL    H6528177   5.347   4.157   5.398  3.6529 -0.5317  1.1804
   57MOL    H6628178   5.576   4.023   5.350  0.0144 -0.0190  1.0741
   57MOL    H6728179   5.496   3.895   5.431 -1.8454  0.5653  1.5529
   57MOL    H6828180   5.534   4.170   5.547  1.2736 -0.2165 -0.3652
   57MOL    H6928181   5.449   4.048   5.633  0.0298 -1.0149 -0.3358
   57MOL    H7028182   5.661   3.903   5.643  1.6644 -0.0393 -1.4999
   57MOL    H7128183   5.739   4.025   5.554  1.0323  0.5348  1.2791
   57MOL    H7228184   5.662   4.188   5.740  0.4862  0.1988  0.6301
   57MOL    H7328185   5.587   4.053   5.814 -1.1489 -2.1015 -3.2851
   57MOL    H7428186   5.879   4.109   5.816  0.4525 -0.6358  0.4901
   57MOL    H7528187   5.784   4.052   5.952  2.5345  0.8621 -0.1607
   57MOL    H7628188   5.823   3.938   5.825  1.0416 -0.1291  0.1096
   57MOL    C7728189   5.199   4.211   5.181 -0.5621 -0.9426  0.2454
   57MOL    C7828190   5.100   4.268   5.286  0.1560  0.9264  0.1725
   57MOL    O7928191   4.975   4.201   5.254 -0.0740 -0.0654  0.1832
   57MOL    C8028192   4.876   4.222   5.360 -0.3771  0.5180 -0.0154
   57MOL    C8128193   4.777   4.104   5.366  0.4767  0.0766  0.5060
   57MOL    C8228194   4.656   4.116   5.464  0.0450 -0.1882 -0.4960
   57MOL    C8328195   4.571   3.995   5.469 -0.1973  0.3993  0.2082
   57MOL    C8428196   4.431   4.028   5.502 -0.1376  0.7709 -0.6637
   57MOL    C8528197   4.346   3.907   5.522 -0.5613  0.0379 -0.4582
   57MOL    H8628198   5.159   4.244   5.085 -0.1583  0.4649  0.5614
   57MOL    H8728199   5.297   4.257   5.189 -0.4589 -0.8596 -1.2472
   57MOL    H8828200   5.120   4.220   5.382 -0.2825  0.2677 -0.0571
   57MOL    H8928201   4.812   4.310   5.355  1.2031  1.7168  0.7511
   57MOL    H9028202   4.919   4.239   5.459  0.7823  1.8157 -0.7254
   57MOL    H9128203   4.839   4.018   5.394  0.7218  0.0599 -0.0863
   57MOL    H9228204   4.733   4.077   5.270  2.1954 -2.5762  0.3894
   57MOL    H9328205   4.677   4.142   5.568 -1.0503  0.9163 -0.5262
   57MOL    H9428206   4.595   4.197   5.424  1.3324  1.3068  0.4939
   57MOL    H9528207   4.583   3.945   5.373 -0.2643  0.2427  0.2839
   57MOL    H9628208   4.606   3.927   5.546  0.3217  0.9862  0.5042
   57MOL    H9728209   4.427   4.095   5.588  2.1912  0.9808 -0.6829
   57MOL    H9828210   4.384   4.090   5.426 -1.7678  1.4177  0.8371
   57MOL    H9928211   4.250   3.933   5.566 -0.1912  0.6294 -0.0004
   57MOL   H10028212   4.333   3.859   5.425 -1.6639 -1.5441  0.4445
   57MOL   H10128213   4.389   3.829   5.585  0.8841  0.9666 -0.2719
   57MOL   C10228214   5.093   4.423   5.292 -0.7924  0.0953  0.5547
   57MOL   C10328215   5.222   4.499   5.330 -0.0632  0.2896  0.1650
   57MOL   O10428216   5.205   4.634   5.306  0.8146 -0.8534  0.2812
   57MOL   C10528217   5.252   4.692   5.187 -0.7461  0.1726 -0.3770
   57MOL   C10628218   5.226   4.840   5.198  0.1095 -0.3563 -0.0559
   57MOL   C10728219   5.232   4.906   5.059  0.7529 -0.1021  0.2084
   57MOL   C10828220   5.214   5.059   5.051  0.0788 -0.2198 -0.5278
   57MOL   C10928221   5.065   5.106   5.050  0.0319 -0.1063 -0.3511
   57MOL   C11028222   5.003   5.090   4.911 -0.2809 -0.8825 -0.2578
   57MOL   H11128223   5.061   4.460   5.195 -0.4722  2.0061  1.1555
   57MOL   H11228224   5.024   4.454   5.370 -2.4679 -0.2861 -0.7679
   57MOL   H11328225   5.306   4.458   5.275  0.7656  1.5260  0.4926
   57MOL   H11428226   5.209   4.645   5.098 -1.2482 -0.3979  0.1572
   57MOL   H11528227   5.359   4.675   5.171 -0.6203  1.4076 -0.8975
   57MOL   H11628228   5.305   4.885   5.258 -1.1875 -0.1872  1.5764
   57MOL   H11728229   5.131   4.857   5.249 -0.4601  0.8663 -1.4762
   57MOL   H11828230   5.329   4.878   5.018  0.2581 -0.6848 -0.5717
   57MOL   H11928231   5.164   4.852   4.994  1.4030 -0.0767 -0.4988
   57MOL   H12028232   5.262   5.117   5.129 -1.7944 -0.3883  0.7910
   57MOL   H12128233   5.268   5.088   4.961  2.1039 -1.7373  0.1632
   57MOL   H12228234   4.999   5.051   5.116  0.0080  0.0440 -0.2502
   57MOL   H12328235   5.047   5.211   5.076 -1.0318 -0.6689  1.2203
   57MOL   H12428236   5.006   4.986   4.881  0.1791 -0.9518  0.0284
   57MOL   H12528237   4.897   5.118   4.904  0.1234  0.2217 -2.6704
   57MOL   H12628238   5.050   5.147   4.831  3.5005 -2.2173  0.9476
   57MOL   C12728239   5.241   4.483   5.476 -0.2872 -0.1261 -0.1703
   57MOL   C12828240   5.388   4.510   5.508  0.2629 -0.0507 -0.4820
   57MOL   O12928241   5.465   4.401   5.457  0.1567  0.5388 -0.7715
   57MOL   C13028242   5.568   4.460   5.378  0.1176 -0.9664 -0.4429
   57MOL   C13128243   5.646   4.348   5.315  0.0847  0.3743 -0.4733
   57MOL   C13228244   5.730   4.390   5.196  0.1220  0.3623  0.0160
   57MOL   C13328245   5.819   4.277   5.134 -0.5943 -0.2430  0.5097
   57MOL   C13428246   5.832   4.291   4.976 -0.1309  0.0123 -0.4633
   57MOL   C13528247   5.938   4.201   4.918 -0.2310 -0.1976 -0.2857
   57MOL   H13628248   5.166   4.535   5.536 -1.3042 -0.4797 -1.1278
   57MOL   H13728249   5.214   4.383   5.511  0.2114  0.1118  0.9257
   57MOL   H13828250   5.414   4.610   5.472  0.8942 -1.0633 -2.9277
   57MOL   H13928251   5.639   4.532   5.420  0.9122 -1.3044 -1.1915
   57MOL   H14028252   5.523   4.521   5.300 -1.5049 -1.3390  0.1864
   57MOL   H14128253   5.575   4.270   5.286  0.9971 -0.3861 -0.6856
   57MOL   H14228254   5.708   4.291   5.385  1.6644  2.8302  0.1836
   57MOL   H14328255   5.657   4.410   5.118  0.5856  0.6273 -0.3496
   57MOL   H14428256   5.792   4.478   5.210  0.4467  0.5350 -2.4466
   57MOL   H14528257   5.918   4.290   5.177 -0.8794 -0.3066  1.1888
   57MOL   H14628258   5.778   4.180   5.164  0.0411 -0.6167  0.1692
   57MOL   H14728259   5.737   4.274   4.926  1.3173  1.2875 -3.7791
   57MOL   H14828260   5.845   4.397   4.953  0.1722  0.6457  2.3654
   57MOL   H14928261   6.031   4.199   4.975 -0.5896  1.3859  0.3666
   57MOL   H15028262   5.904   4.098   4.923 -2.3192  0.5080  0.8132
   57MOL   H15128263   5.960   4.236   4.817  0.5785  0.2772  0.0477
   57MOL   C15228264   5.405   4.495   5.669  0.0505  0.3588 -0.0748
   57MOL   C15328265   5.527   4.561   5.732  0.3513 -0.4856 -0.1150
   57MOL   O15428266   5.519   4.703   5.709  0.3610 -0.4793  0.1143
   57MOL   C15528267   5.644   4.765   5.714  0.5137  0.7679 -0.1737
   57MOL   C15628268   5.609   4.919   5.698  0.9912  0.4777  0.4406
   57MOL   C15728269   5.537   4.942   5.567  0.0057 -0.1960 -0.0473
   57MOL   C15828270   5.525   5.085   5.525 -0.4794 -0.1157  0.8487
   57MOL   C15928271   5.483   5.089   5.377 -0.6436  0.3922 -0.2257
   57MOL   C16028272   5.468   5.230   5.321 -0.2600 -0.0504 -0.2992
   57MOL   H16128273   5.324   4.552   5.715 -0.9655 -1.2837  0.2076
   57MOL   H16228274   5.397   4.390   5.694  0.9515 -0.2122 -2.0936
   57MOL   H16328275   5.605   4.518   5.668 -0.1885  0.4300 -1.3936
   57MOL   H16428276   5.717   4.727   5.643  1.8772  4.0765 -0.6530
   57MOL   H16528277   5.685   4.754   5.815  3.1017 -0.2876 -1.2780
   57MOL   H16628278   5.699   4.980   5.692 -1.0696  3.7035  0.8647
   57MOL   H16728279   5.556   4.946   5.789  1.1510  4.7757 -0.6155
   57MOL   H16828280   5.604   4.890   5.498  1.4437 -0.3090  1.4095
   57MOL   H16928281   5.445   4.885   5.561 -0.6198  0.7454  0.5065
   57MOL   H17028282   5.443   5.140   5.572 -0.2706  1.8689 -1.0548
   57MOL   H17128283   5.618   5.138   5.542  0.0717  0.4203 -3.2245
   57MOL   H17228284   5.548   5.028   5.314 -1.6167  0.7037 -1.5542
   57MOL   H17328285   5.387   5.039   5.383 -1.2286  1.6771  1.4689
   57MOL   H17428286   5.441   5.227   5.215 -3.9638 -0.8172  0.6056
   57MOL   H17528287   5.390   5.281   5.376  0.6739 -0.3094  1.3048
   57MOL   H17628288   5.559   5.290   5.333 -0.8980  0.7390  0.6473
   57MOL   C17728289   5.543   4.529   5.878 -0.6949  0.4605 -0.1117
   57MOL   C17828290   5.672   4.446   5.901  0.0305 -0.0417  1.0124
   57MOL   O17928291   5.778   4.525   5.845  0.2106  0.2994  0.1279
   57MOL   C18028292   5.870   4.459   5.766 -0.0054  0.1240  0.0628
   57MOL   C18128293   5.847   4.459   5.614  0.0874  0.7031 -0.1992
   57MOL   C18228294   5.960   4.381   5.543  0.0902 -0.4202  0.3316
   57MOL   C18328295   6.099   4.450   5.554 -0.0771  0.1668  0.2046
   57MOL   C18428296   6.193   4.392   5.443  0.0525  0.4045 -0.2303
   57MOL   C18528297   6.334   4.437   5.449  0.5648 -0.0160 -0.6753
   57MOL   H18628298   5.555   4.617   5.941  1.1844  0.9269 -1.0572
   57MOL   H18728299   5.452   4.482   5.914  0.2640 -0.2815  1.3568
   57MOL   H18828300   5.659   4.356   5.842 -0.3493 -0.7286  2.1148
   57MOL   H18928301   5.890   4.357   5.797 -0.8274 -0.5354 -1.5050
   57MOL   H19028302   5.964   4.514   5.771 -0.2896  0.8243 -1.9417
   57MOL   H19128303   5.843   4.561   5.577  1.6493  0.9671  0.2998
   57MOL   H19228304   5.756   4.401   5.598  0.9628 -0.8296  0.2180
   57MOL   H19328305   5.966   4.278   5.579  0.6496 -0.5327 -0.0806
   57MOL   H19428306   5.937   4.362   5.439 -0.6168 -3.6512  1.0299
   57MOL   H19528307   6.076   4.552   5.523  2.1052  1.0949  1.5800
   57MOL   H19628308   6.149   4.448   5.650 -0.3175  0.7267  0.3456
   57MOL   H19728309   6.197   4.284   5.460  1.5646  0.9014  2.9305
   57MOL   H19828310   6.140   4.408   5.349 -1.0459  0.8727  0.4592
   57MOL   H19928311   6.380   4.413   5.545 -0.4426  1.1095  0.0979
   57MOL   H20028312   6.390   4.399   5.363 -0.5091  0.3655 -1.5441
   57MOL   H20128313   6.352   4.543   5.435  0.7809  0.2536  1.4474
   57MOL   C20228314   5.708   4.425   6.049  0.8180  0.2923 -1.1776
   57MOL   C20328315   5.630   4.317   6.122 -0.3025  0.0210  0.3908
   57MOL   O20428316   5.494   4.347   6.122 -0.1140  0.5965 -0.2909
   57MOL   C20528317   5.398   4.240   6.120 -0.3467  0.5779 -0.3992
   57MOL   C20628318   5.251   4.293   6.122 -0.1283  0.3546  0.7923
   57MOL   C20728319   5.206   4.372   6.001  0.4815  0.4974 -0.5375
   57MOL   C20828320   5.072   4.325   5.947 -0.2213  0.2426 -0.4384
   57MOL   C20928321   5.051   4.404   5.817  0.2075 -0.3085  0.0133
   57MOL   C21028322   5.024   4.554   5.817 -0.2854  0.3464  0.6517
   57MOL   H21128323   5.815   4.405   6.048  0.9561  0.6715  1.5097
   57MOL   H21228324   5.692   4.515   6.109 -0.0204 -0.4641 -0.2557
   57MOL   H21328325   5.648   4.231   6.058 -0.1108  0.0999  0.3383
   57MOL   H21428326   5.416   4.178   6.208 -0.9298  3.7557  2.0606
   57MOL   H21528327   5.403   4.183   6.027  1.0797 -0.1158  0.0956
   57MOL   H21628328   5.234   4.337   6.220  1.0091  0.2122  1.0610
   57MOL   H21728329   5.186   4.206   6.133  1.3713 -0.9284 -0.2772
   57MOL   H21828330   5.200   4.476   6.030 -0.4077  0.6203 -1.1247
   57MOL   H21928331   5.276   4.366   5.918 -0.0085  0.1450 -0.9352
   57MOL   H22028332   5.052   4.218   5.938 -2.5315  0.6559 -0.5985
   57MOL   H22128333   4.990   4.357   6.011  0.1955  1.6833 -0.6153
   57MOL   H22228334   5.133   4.391   5.746 -0.0911  3.0121 -1.0105
   57MOL   H22328335   4.957   4.364   5.779  0.8158 -1.7445 -0.0231
   57MOL   H22428336   4.987   4.590   5.721  0.0233 -0.1800  0.3309
   57MOL   H22528337   4.961   4.595   5.896 -0.2909  0.6610  0.4827
   57MOL   H22628338   5.116   4.600   5.850  0.1100  0.4087 -0.5043
   57MOL   C22728339   5.670   4.294   6.272 -0.0280  0.7232  0.3715
   57MOL   C22828340   5.777   4.190   6.298 -0.1512 -0.4476 -0.2020
   57MOL   O22928341   5.735   4.070   6.231  0.1591 -0.7483  0.1438
   57MOL   C23028342   5.648   3.986   6.307  0.2242 -0.3610 -0.4142
   57MOL   C23128343   5.602   3.862   6.227  0.4083 -0.2062 -0.2958
   57MOL   C23228344   5.529   3.893   6.093  0.2490 -0.8023  0.3470
   57MOL   C23328345   5.524   3.764   6.010 -1.1234 -0.9336 -0.0185
   57MOL   C23428346   5.424   3.757   5.898  0.6726 -0.2232  0.0466
   57MOL   C23528347   5.430   3.626   5.824 -0.6234 -0.4704 -0.3075
   57MOL   H23628348   5.692   4.392   6.313 -3.3939  0.9661  1.7567
   57MOL   H23728349   5.580   4.263   6.325 -0.8475  0.2887 -1.2329
   57MOL   H23828350   5.792   4.174   6.405  0.7392 -2.1678 -0.5637
   57MOL   H23928351   5.566   4.048   6.342  0.8287  0.1357  0.1391
   57MOL   H24028352   5.697   3.952   6.398  0.5661  0.6079 -0.2345
   57MOL   H24128353   5.541   3.795   6.287  1.4269  0.6422  1.7653
   57MOL   H24228354   5.691   3.816   6.183  1.4644  2.0649 -0.6431
   57MOL   H24328355   5.431   3.926   6.128  0.5793  0.3673  0.1807
   57MOL   H24428356   5.571   3.977   6.037  0.4364  0.1264  1.8493
   57MOL   H24528357   5.624   3.751   5.972 -1.1073  0.6543 -0.5510
   57MOL   H24628358   5.512   3.676   6.074  1.0297 -1.2177  0.0083
   57MOL   H24728359   5.325   3.764   5.943  0.3450 -2.0169 -0.3981
   57MOL   H24828360   5.435   3.835   5.823 -0.4058 -2.0909 -2.0942
   57MOL   H24928361   5.532   3.619   5.785 -1.6006 -2.2934 -2.6361
   57MOL   H25028362   5.414   3.555   5.905  0.1801 -1.0804 -0.6808
   57MOL   H25128363   5.352   3.622   5.748 -0.0725 -4.3382 -0.7747
   57MOL   C25228364   5.908   4.238   6.223 -0.0013  0.8580  0.1448
   57MOL   C25328365   6.034   4.155   6.271 -0.3372 -0.3361  0.3143
   57MOL   O25428366   6.040   4.164   6.413  0.3927  0.1305 -0.2064
   57MOL   C25528367   6.028   4.037   6.469  0.1187 -0.2484  0.0493
   57MOL   C25628368   5.985   4.049   6.623 -0.4622 -0.3213  0.5966
   57MOL   C25728369   5.929   3.926   6.692  0.5716  0.1544  0.9193
   57MOL   C25828370   6.030   3.813   6.727  0.0028  0.6869 -0.7308
   57MOL   C25928371   6.088   3.825   6.863 -0.3256  0.6480  0.7518
   57MOL   C26028372   6.172   3.695   6.905  0.0976  0.2383 -0.1483
   57MOL   H26128373   5.905   4.222   6.115  2.3258 -1.3835  0.3674
   57MOL   H26228374   5.938   4.341   6.245  2.0015 -0.2150  2.7014
   57MOL   H26328375   6.036   4.053   6.232  1.3804 -0.8709  1.7001
   57MOL   H26428376   6.125   3.989   6.455 -0.3266 -0.8256 -1.0844
   57MOL   H26528377   5.959   3.973   6.414 -0.6351  0.7722 -0.2256
   57MOL   H26628378   5.913   4.129   6.640 -1.0311 -0.7222  0.1145
   57MOL   H26728379   6.078   4.087   6.665  0.5640  0.6518 -2.4285
   57MOL   H26828380   5.886   3.965   6.784  1.8471  2.3371  0.6248
   57MOL   H26928381   5.845   3.890   6.634  0.3274  2.3679 -0.1305
   57MOL   H27028382   5.977   3.720   6.707  0.1837 -0.0965  2.1562
   57MOL   H27128383   6.109   3.817   6.652 -0.8404 -1.0900 -1.7584
   57MOL   H27228384   6.157   3.908   6.871  0.4023  0.1844 -0.7311
   57MOL   H27328385   6.002   3.837   6.930 -0.5785 -2.6281  1.1023
   57MOL   H27428386   6.100   3.613   6.904 -0.1804  0.4503 -2.9412
   57MOL   H27528387   6.251   3.676   6.833  0.5508 -1.5654  0.8169
   57MOL   H27628388   6.218   3.707   7.003  2.3866 -1.3300 -1.0011
   57MOL   C27728389   6.169   4.216   6.234 -0.1444  0.0432  0.5959
   57MOL   C27828390   6.220   4.204   6.081 -1.0824  0.1242 -0.4780
   57MOL   O27928391   6.291   4.320   6.045 -0.2640  0.6533  0.2588
   57MOL   C28028392   6.230   4.390   5.943 -0.0681 -0.7765  0.4439
   57MOL   C28128393   6.294   4.524   5.920  0.4970  0.2188 -0.4984
   57MOL   C28228394   6.429   4.503   5.857  0.3154  0.3119  0.9048
   57MOL   C28328395   6.482   4.632   5.807  0.9439 -0.3380 -0.3286
   57MOL   C28428396   6.623   4.604   5.733  0.7233 -0.1997 -0.0287
   57MOL   C28528397   6.699   4.734   5.706  0.3493 -0.0648  0.1746
   57MOL   H28628398   6.171   4.316   6.279  0.9030 -0.2645  1.2324
   57MOL   H28728399   6.246   4.171   6.296 -1.7196 -3.2175  0.2549
   57MOL   H28828400   6.138   4.179   6.014 -2.0604 -0.7382  1.0101
   57MOL   H28928401   6.127   4.402   5.978 -1.0781 -0.4749 -2.5093
   57MOL   H29028402   6.212   4.338   5.849 -4.5673 -0.0109  0.7846
   57MOL   H29128403   6.300   4.576   6.016  0.0192  1.2216 -0.9955
   57MOL   H29228404   6.232   4.581   5.849  2.4531  0.1997 -2.2654
   57MOL   H29328405   6.496   4.462   5.933 -1.8176 -0.3265  2.5047
   57MOL   H29428406   6.425   4.424   5.783  1.4599  1.7382 -0.7079
   57MOL   H29528407   6.418   4.692   5.742  1.0552  2.7009  2.2252
   57MOL   H29628408   6.516   4.691   5.892  1.2691 -1.1493  0.1015
   57MOL   H29728409   6.690   4.550   5.801  0.9991  1.6681  1.2301
   57MOL   H29828410   6.615   4.541   5.645 -0.9111  0.7908 -0.6118
   57MOL   H29928411   6.635   4.787   5.637  0.3249  0.3345  0.5036
   57MOL   H30028412   6.714   4.786   5.801 -0.3867  1.1705 -0.3735
   57MOL   H30128413   6.793   4.712   5.655  0.8854  2.2429  0.1388
   57MOL   C30228414   6.318   4.082   6.066 -0.4921  0.8520  0.0662
   57MOL   C30328415   6.348   4.058   5.912  0.3824 -0.0095  0.1233
   57MOL   O30428416   6.240   3.987   5.847 -0.6658  0.1609 -0.4967
   57MOL   C30528417   6.196   4.035   5.716  0.6650  0.6582 -0.0263
   57MOL   C30628418   6.118   3.913   5.662 -0.2851 -0.4101  0.4593
   57MOL   C30728419   6.064   3.939   5.528  0.7284 -0.2529 -0.6253
   57MOL   C30828420   6.161   3.983   5.422  0.2500 -0.2649 -0.4437
   57MOL   C30928421   6.085   3.989   5.284 -0.3054 -0.2529  0.2936
   57MOL   C31028422   6.177   4.047   5.174 -0.0328 -0.4866  0.9523
   57MOL   H31128423   6.407   4.090   6.130  0.0808 -3.6339  0.0074
   57MOL   H31228424   6.264   3.993   6.097  0.0224 -0.1761 -1.9118
   57MOL   H31328425   6.358   4.151   5.856 -1.4171  1.0032  1.4329
   57MOL   H31428426   6.260   4.069   5.635 -1.9409 -0.8493 -2.8429
   57MOL   H31528427   6.130   4.120   5.730 -0.1012  0.3157 -1.4874
   57MOL   H31628428   6.037   3.874   5.724 -0.0087  0.5933  1.4471
   57MOL   H31728429   6.181   3.826   5.642 -0.1961 -0.2884  0.2113
   57MOL   H31828430   6.000   3.856   5.497  1.3284 -1.5981  1.6059
   57MOL   H31928431   5.992   4.016   5.555 -1.5129 -2.0647 -1.1667
   57MOL   H32028432   6.213   4.078   5.428 -1.0373  0.4635 -0.6994
   57MOL   H32128433   6.234   3.901   5.420  2.5274  1.7099 -1.0608
   57MOL   H32228434   6.045   3.894   5.249 -1.6765  0.2670  0.4494
   57MOL   H32328435   6.005   4.060   5.301  1.5458  1.8267  0.5419
   57MOL   H32428436   6.151   4.144   5.133  1.7529 -0.5119 -0.3168
   57MOL   H32528437   6.283   4.053   5.198 -0.4456  0.0625  2.7445
   57MOL   H32628438   6.168   3.981   5.088  1.5607  1.5530 -0.8142
   57MOL   C32728439   6.472   3.959   5.874 -0.9381  0.0309 -1.1747
   57MOL   C32828440   6.606   4.030   5.837  0.3433  0.4692 -0.7695
   57MOL   O32928441   6.594   4.089   5.712  0.1416  0.3199  0.2313
   57MOL   C33028442   6.619   3.996   5.604 -0.9105 -0.0142  0.0125
   57MOL   C33128443   6.590   4.051   5.467  0.6467  0.0599 -0.1920
   57MOL   C33228444   6.684   4.001   5.359  0.3228 -0.0362 -0.0973
   57MOL   C33328445   6.662   4.066   5.221 -0.3266  0.5650  0.2716
   57MOL   C33428446   6.752   4.016   5.110  0.0374 -0.1592  0.7308
   57MOL   C33528447   6.896   4.058   5.138  0.0178 -0.1058 -0.2520
   57MOL   H33628448   6.443   3.884   5.799 -1.0169  1.4617 -2.6013
   57MOL   H33728449   6.497   3.906   5.966  1.0746  0.5306 -1.4101
   57MOL   H33828450   6.675   3.946   5.838 -0.1447  0.0523 -1.7590
   57MOL   H33928451   6.552   3.911   5.619  0.0117 -1.0318 -1.4713
   57MOL   H34028452   6.722   3.964   5.623  0.4725  3.6118 -1.0792
   57MOL   H34128453   6.601   4.159   5.477 -2.4723  0.4415 -0.2050
   57MOL   H34228454   6.490   4.041   5.426  0.6490 -1.4522  0.1399
   57MOL   H34328455   6.787   4.011   5.394 -0.3075  0.5098  1.6895
   57MOL   H34428456   6.669   3.895   5.342  0.3863  0.1075 -1.0955
   57MOL   H34528457   6.555   4.053   5.203 -0.3352 -0.0221  0.7515
   57MOL   H34628458   6.663   4.174   5.237 -2.3921  0.6271  0.1922
   57MOL   H34728459   6.741   3.908   5.105  0.5560 -0.1245 -1.9294
   57MOL   H34828460   6.718   4.061   5.017  0.7788 -0.6138  0.2315
   57MOL   H34928461   6.923   4.000   5.226  0.6092  1.7801  0.8628
   57MOL   H35028462   6.953   4.014   5.056 -1.0361 -2.9867  0.5362
   57MOL   H35128463   6.910   4.166   5.145 -2.5787  0.2980 -0.9284
   57MOL   C35228464   6.652   4.135   5.935  0.4459  0.6972  0.8290
   57MOL   C35328465   6.803   4.166   5.917  0.1929  0.2761 -0.2404
   57MOL   O35428466   6.875   4.059   5.977 -0.4878 -0.4180 -0.3513
   57MOL   C35528467   6.952   3.981   5.888  0.5825 -0.4401  0.0800
   57MOL   C35628468   7.051   3.898   5.970  0.5119 -0.2891 -0.1062
   57MOL   C35728469   6.977   3.783   6.049 -0.1352 -0.2262 -0.2222
   57MOL   C35828470   7.066   3.707   6.142 -0.4931 -0.3100 -0.1468
   57MOL   C35928471   7.017   3.565   6.191 -0.1468 -0.2901  0.1598
   57MOL   C36028472   7.056   3.526   6.332  1.0121  0.4437 -0.0935
   57MOL   H36128473   6.588   4.223   5.930 -0.6209  0.1123  3.6005
   57MOL   H36228474   6.646   4.103   6.039 -1.9758 -0.3620  0.3988
   57MOL   H36328475   6.838   4.173   5.814  1.6746  0.4900  0.2637
   57MOL   H36428476   6.998   4.035   5.806  0.7501 -2.1494 -0.9642
   57MOL   H36528477   6.885   3.917   5.831 -0.7809  0.1817  0.9522
   57MOL   H36628478   7.105   3.967   6.035 -0.7961  1.2400 -0.6163
   57MOL   H36728479   7.124   3.853   5.903  0.8362 -1.1266  0.7982
   57MOL   H36828480   6.897   3.825   6.109 -0.0960  0.5865 -0.7285
   57MOL   H36928481   6.928   3.722   5.973 -0.0484 -1.9519  1.0940
   57MOL   H37028482   7.165   3.697   6.098 -0.0606  3.2381 -0.1398
   57MOL   H37128483   7.099   3.768   6.226  0.3661 -0.3199 -0.4753
   57MOL   H37228484   6.908   3.559   6.182 -0.2229  1.0829  0.1448
   57MOL   H37328485   7.052   3.491   6.119 -0.7179 -0.9830  0.5837
   57MOL   H37428486   7.024   3.601   6.405  1.5032  0.3666  0.2019
   57MOL   H37528487   7.032   3.428   6.371  1.8957 -0.1472 -1.0294
   57MOL   H37628488   7.164   3.537   6.346  0.7043  1.8785  1.3088
   57MOL   C37728489   6.834   4.300   5.983  0.4219 -0.2442 -0.1088
   57MOL   C37828490   6.987   4.335   5.995  0.3055  0.8666 -0.3846
   57MOL   O37928491   7.011   4.449   6.079 -0.5879 -0.2649 -0.0976
   57MOL   C38028492   7.022   4.412   6.218 -0.7325  0.2721  0.7887
   57MOL   C38128493   7.039   4.535   6.296  1.0299  0.1504 -0.5415
   57MOL   C38228494   7.070   4.528   6.445 -0.4040 -0.0512  0.5519
   57MOL   C38328495   7.075   4.667   6.512  0.0093  0.5234  0.2521
   57MOL   C38428496   7.199   4.750   6.465 -0.0374 -0.2148 -1.1185
   57MOL   C38528497   7.226   4.873   6.557 -0.5487 -0.4669 -0.1817
   57MOL   H38628498   6.778   4.379   5.932  0.4470 -1.1365 -1.5415
   57MOL   H38728499   6.787   4.300   6.081  1.1982  0.7379  0.2711
   57MOL   H38828500   7.026   4.244   6.042 -1.4824  0.5564  0.5794
   57MOL   H38928501   7.111   4.349   6.228 -0.7410 -0.2495 -1.9355
   57MOL   H39028502   6.937   4.353   6.251 -0.6318 -0.7012 -0.6391
   57MOL   H39128503   6.960   4.608   6.280 -0.4386 -1.0404  1.0494
   57MOL   H39228504   7.133   4.573   6.254  1.2320 -1.0991 -1.2297
   57MOL   H39328505   6.998   4.473   6.505  0.1494 -1.0490  0.3198
   57MOL   H39428506   7.164   4.474   6.458  0.5646  1.4294 -0.0547
   57MOL   H39528507   6.982   4.715   6.482 -1.1445 -0.9303  1.3644
   57MOL   H39628508   7.066   4.661   6.621 -0.7676 -1.4643  0.1117
   57MOL   H39728509   7.279   4.680   6.486  0.7338  1.5189  2.0873
   57MOL   H39828510   7.182   4.786   6.364 -1.4897  0.6115 -0.5927
   57MOL   H39928511   7.130   4.922   6.573 -0.3373  0.0091 -0.3749
   57MOL   H40028512   7.250   4.843   6.659 -1.5149 -2.3848 -0.4923
   57MOL   H40128513   7.298   4.941   6.513 -1.7039  0.2937 -0.9458
   57MOL   C40228514   7.051   4.363   5.854 -0.5312 -0.2938 -0.1655
   57MOL   C40328515   7.205   4.378   5.854 -0.0532  0.0242 -0.1399
   57MOL   O40428516   7.244   4.416   5.718  0.0388 -0.3908 -0.1075
   57MOL   C40528517   7.292   4.544   5.718 -0.3676 -0.4543 -0.0875
   57MOL   C40628518   7.302   4.584   5.571  0.4741 -0.3444  0.5739
   57MOL   C40728519   7.381   4.719   5.557 -0.1557 -0.3802  0.1709
   57MOL   C40828520   7.343   4.804   5.434 -0.1516  0.1132  0.5233
   57MOL   C40928521   7.427   4.926   5.389 -0.0169  0.1346 -0.3451
   57MOL   C41028522   7.363   5.021   5.279 -0.0856 -0.5192  0.0002
   57MOL   H41128523   6.999   4.444   5.803  1.9006 -0.0091 -2.3363
   57MOL   H41228524   7.022   4.291   5.777  4.1288  0.4596 -2.8350
   57MOL   H41328525   7.248   4.448   5.925 -2.7512 -1.7778  3.4100
   57MOL   H41428526   7.388   4.549   5.769 -0.0053  1.0544 -0.8804
   57MOL   H41528527   7.231   4.613   5.776 -0.3340  0.2912 -0.9175
   57MOL   H41628528   7.204   4.607   5.531  0.2777  0.5071  1.5141
   57MOL   H41728529   7.353   4.505   5.516  1.0782  1.0238 -0.8729
   57MOL   H41828530   7.350   4.778   5.643 -1.1302 -0.8440  0.1362
   57MOL   H41928531   7.488   4.701   5.567 -0.2241 -0.2017  1.2540
   57MOL   H42028532   7.339   4.733   5.351 -1.0766 -0.5836  1.1502
   57MOL   H42128533   7.238   4.832   5.440 -0.2735 -0.5651  1.8873
   57MOL   H42228534   7.456   4.983   5.478 -0.8618  1.5115 -0.9467
   57MOL   H42328535   7.525   4.896   5.352 -0.1062 -0.0239 -0.4488
   57MOL   H42428536   7.438   5.090   5.242  1.4688 -0.7845  2.5741
   57MOL   H42528537   7.315   4.975   5.192 -0.4601  0.4361 -0.3013
   57MOL   H42628538   7.274   5.066   5.322 -0.2851  0.2492 -1.2073
   57MOL   C42728539   7.265   4.239   5.882 -0.0736  0.0116  0.1187
   57MOL   C42828540   7.418   4.241   5.905  0.3221 -0.8293  0.4415
   57MOL   O42928541   7.428   4.307   6.032 -0.6581 -0.1047  0.0425
   57MOL   C43028542   7.530   4.405   6.031 -0.6962 -0.2905 -0.3796
   57MOL   C43128543   7.537   4.475   6.163  0.0505  0.1154  0.0733
   57MOL   C43228544   7.409   4.552   6.224  0.3924 -0.7679  0.1251
   57MOL   C43328545   7.364   4.675   6.141  0.0972 -0.6367 -0.3030
   57MOL   C43428546   7.475   4.779   6.143 -0.2035 -0.3699  0.3186
   57MOL   C43528547   7.437   4.899   6.057  0.5580  0.2257 -0.1691
   57MOL   H43628548   7.220   4.194   5.970 -2.6932  0.8600 -0.7351
   57MOL   H43728549   7.243   4.167   5.803 -0.4539  2.2209 -1.8492
   57MOL   H43828550   7.476   4.291   5.827  0.4367 -0.9882  0.4247
   57MOL   H43928551   7.530   4.477   5.949 -0.2116  0.3652  0.1927
   57MOL   H44028552   7.628   4.359   6.017 -0.4253 -0.2560  1.3626
   57MOL   H44128553   7.621   4.545   6.167  0.3253 -0.3499  2.8604
   57MOL   H44228554   7.576   4.393   6.223 -0.8294  1.3060  2.3126
   57MOL   H44328555   7.328   4.478   6.222 -1.6823  1.3818  1.7266
   57MOL   H44428556   7.441   4.577   6.325  2.6441 -0.5396 -0.6167
   57MOL   H44528557   7.338   4.651   6.037  1.6330  1.0731 -1.1077
   57MOL   H44628558   7.269   4.713   6.180  1.2439 -0.1655  2.0973
   57MOL   H44728559   7.497   4.803   6.247 -0.8473  0.8981  0.1693
   57MOL   H44828560   7.558   4.732   6.090 -1.9740 -2.4964 -0.6792
   57MOL   H44928561   7.335   4.934   6.070  0.2440  0.2511 -2.4351
   57MOL   H45028562   7.502   4.984   6.073  1.5340 -0.5352 -0.0307
   57MOL   H45128563   7.443   4.867   5.953  0.8848  0.4796 -0.2281
   57MOL   C45228564   7.467   4.096   5.900 -0.0613 -0.2399  0.1824
   57MOL   C45328565   7.604   4.062   5.964 -0.0925 -0.1056 -0.0212
   57MOL   O45428566   7.704   4.114   5.881 -0.4121  0.3535  0.9509
   57MOL   C45528567   0.066   4.102   5.931 -0.0672  0.2894 -0.3106
   57MOL   C45628568   0.146   4.203   5.851 -0.1778 -0.0997  0.5167
   57MOL   C45728569   0.172   4.164   5.709 -1.3030  0.6415 -0.0238
   57MOL   C45828570   0.246   4.274   5.636 -0.0762 -0.1775 -0.6631
   57MOL   C45928571   0.298   4.248   5.489  1.0280  0.4439 -0.5469
   57MOL   C46028572   0.359   4.372   5.438 -0.0234 -0.0148 -0.1216
   57MOL   H46128573   7.390   4.044   5.957  0.7969  0.4160  1.9936
   57MOL   H46228574   7.473   4.061   5.797 -0.7740  1.4016 -0.4256
   57MOL   H46328575   7.603   4.103   6.065  1.6949 -0.1346  0.0239
   57MOL   H46428576   0.097   4.000   5.913 -2.5586 -0.8002  1.3027
   57MOL   H46528577   0.065   4.123   6.038  0.8012  4.8039 -1.0855
   57MOL   H46628578   0.248   4.211   5.889  0.1604  0.9294 -0.5936
   57MOL   H46728579   0.099   4.301   5.858 -0.1900  0.0434 -1.5068
   57MOL   H46828580   0.237   4.077   5.702 -2.7415 -0.7244  3.0693
   57MOL   H46928581   0.083   4.138   5.652  0.2400 -2.2819 -1.2227
   57MOL   H47028582   0.171   4.353   5.634 -1.0138 -0.9405  2.1060
   57MOL   H47128583   0.335   4.304   5.691  0.8227 -0.1657 -2.1065
   57MOL   H47228584   0.376   4.173   5.484 -0.0612 -0.6157 -1.6841
   57MOL   H47328585   0.215   4.222   5.424 -0.5418  1.0969  1.1347
   57MOL   H47428586   0.286   4.450   5.418 -0.6635  0.0152  2.2400
   57MOL   H47528587   0.437   4.417   5.499 -0.5096 -0.4288  0.8064
   57MOL   H47628588   0.402   4.372   5.337 -0.4381 -1.4491 -0.3193
   57MOL   C47728589   7.623   3.913   5.998  0.2376  0.5629  0.0217
   57MOL   C47828590   7.641   3.818   5.870  0.4146 -0.5621  0.0875
   57MOL   O47928591   7.665   3.684   5.906  0.4319  0.2530 -0.4703
   57MOL   C48028592   0.018   3.665   5.944  0.6301  0.8716  0.4673
   57MOL   C48128593   0.048   3.515   5.955 -0.0515  0.1017 -0.5321
   57MOL   C48228594   0.008   3.450   5.819 -0.0862 -0.2204 -0.2462
   57MOL   C48328595   0.014   3.300   5.811 -0.0483  0.1572  0.2199
   57MOL   C48428596   7.731   3.239   5.684  0.4418  0.1906  0.5101
   57MOL   C48528597   0.002   3.089   5.683 -0.4859  0.4348 -0.5026
   57MOL   H48628598   7.709   3.904   6.065  0.2012  2.3751  0.3129
   57MOL   H48728599   7.540   3.878   6.058 -0.8737 -1.1673 -2.4120
   57MOL   H48828600   7.541   3.820   5.826  0.6322  0.4523 -0.3732
   57MOL   H48928601   0.031   3.713   6.041 -0.9793  1.4103  0.4332
   57MOL   H49028602   0.084   3.712   5.872 -0.5087 -0.2864 -1.3646
   57MOL   H49128603   7.760   3.473   6.032  1.7774  0.9873  1.5442
   57MOL   H49228604   0.150   3.503   5.990 -0.8324 -0.3297  1.6717
   57MOL   H49328605   7.681   3.471   5.796 -0.9031 -0.1970  3.2672
   57MOL   H49428606   0.083   3.491   5.752 -0.5639 -0.0684 -0.6888
   57MOL   H49528607   0.116   3.264   5.822 -0.1094 -0.5727 -1.4813
   57MOL   H49628608   7.730   3.256   5.890 -1.0279  1.1992  0.0612
   57MOL   H49728609   7.622   3.250   5.687  0.7647  3.5114  1.8078
   57MOL   H49828610   7.767   3.284   5.592 -0.7429  0.5527  0.2155
   57MOL   H49928611   7.744   3.049   5.588 -1.5406  1.9740 -0.7881
   57MOL   H50028612   0.110   3.079   5.685 -0.4925  0.4551  0.6057
   57MOL   H50128613   7.722   3.030   5.755 -2.6485  0.2529 -2.3007
   57MOL   H50228614   7.714   3.865   5.804  0.6773 -0.3840  0.5041
   58MOL     C128615   5.395   0.362   2.123  0.2400 -0.2050 -0.0031
   58MOL     C228616   5.261   0.443   2.126 -0.0222  0.2859  0.6975
   58MOL     O328617   5.285   0.563   2.200  0.1339 -0.3591  0.3834
   58MOL     C428618   5.198   0.671   2.166 -0.2690  0.1143  0.0654
   58MOL     C528619   5.229   0.798   2.230  0.3581 -0.3736 -0.1778
   58MOL     C628620   5.130   0.913   2.201  0.0783  0.2465 -0.1636
   58MOL     C728621   5.164   1.040   2.277 -0.1984  0.6639 -0.2464
   58MOL     C828622   5.059   1.153   2.263 -0.0991  0.7305  0.1770
   58MOL     C928623   5.108   1.287   2.332 -0.2167 -0.3229  0.2791
   58MOL    H1028624   5.384   0.268   2.069  0.1811  0.5294 -1.2923
   58MOL    H1128625   5.470   0.416   2.066  0.1831 -1.8625 -1.6851
   58MOL    H1228626   5.240   0.458   2.020 -1.6708 -2.1018  0.6340
   58MOL    H1328627   5.098   0.654   2.205 -0.8167  1.2237 -0.8366
   58MOL    H1428628   5.193   0.687   2.058  1.2537 -0.3521 -0.0887
   58MOL    H1528629   5.329   0.826   2.199  0.9030 -0.5276  1.4230
   58MOL    H1628630   5.222   0.792   2.338  1.4160  1.1809 -0.0087
   58MOL    H1728631   5.110   0.906   2.094 -1.4757 -1.8289  0.2188
   58MOL    H1828632   5.037   0.873   2.242  2.2091 -2.0736  2.6445
   58MOL    H1928633   5.187   1.016   2.381 -1.8833  1.6978  0.3958
   58MOL    H2028634   5.259   1.079   2.241 -0.1466  0.7380 -0.0321
   58MOL    H2128635   4.968   1.116   2.309  0.3372 -0.6105 -0.0391
   58MOL    H2228636   5.036   1.173   2.158  2.0071 -1.2077 -0.6887
   58MOL    H2328637   5.116   1.279   2.441  1.4653 -0.1450  0.1691
   58MOL    H2428638   5.199   1.325   2.286  0.5036  0.2384  2.1166
   58MOL    H2528639   5.037   1.370   2.339  0.9220  0.7275 -0.5629
   58MOL    H2628640   5.424   0.348   2.227 -1.4792 -1.4751  0.3388
   58MOL    C2728641   5.142   0.367   2.183  0.3758  0.1036  0.4083
   58MOL    C2828642   5.112   0.220   2.140  0.7489 -0.0569 -0.4455
   58MOL    O2928643   5.001   0.170   2.216  0.3954  0.3871  0.5118
   58MOL    C3028644   5.036   0.115   2.339  0.9228 -0.6072 -0.0335
   58MOL    C3128645   4.906   0.115   2.422  0.2959 -0.2079 -0.3290
   58MOL    C3228646   4.870   0.259   2.470  0.3059  0.4053 -0.7872
   58MOL    C3328647   4.741   0.251   2.566  0.1182 -0.4099  0.2447
   58MOL    C3428648   4.716   0.376   2.644 -1.2262  0.1849 -0.7826
   58MOL    C3528649   4.576   0.366   2.721  0.5017 -0.5186 -0.3348
   58MOL    H3628650   5.143   0.376   2.291  0.7805 -0.8939  0.4924
   58MOL    H3728651   5.058   0.429   2.153  0.2893 -0.5816 -0.8064
   58MOL    H3828652   5.203   0.165   2.166 -0.1473 -0.4218  2.0591
   58MOL    H3928653   5.109   0.172   2.396  0.7403 -1.0986  0.7106
   58MOL    H4028654   5.065   0.013   2.314  1.1931 -1.0070  1.8399
   58MOL    H4128655   4.911   0.046   2.506 -1.7677  0.8717  0.7369
   58MOL    H4228656   4.821   0.081   2.363 -0.4903 -1.7478  1.6042
   58MOL    H4328657   4.951   0.304   2.527  2.2420 -0.8675 -2.4943
   58MOL    H4428658   4.862   0.317   2.378 -0.8856  1.8704  0.2099
   58MOL    H4528659   4.652   0.247   2.504  0.0732 -1.6910  0.3740
   58MOL    H4628660   4.737   0.164   2.632 -0.0993  0.4919  1.4404
   58MOL    H4728661   4.797   0.386   2.715 -0.6071 -3.1822 -0.8959
   58MOL    H4828662   4.719   0.459   2.573 -1.9263  1.9487  1.2153
   58MOL    H4928663   4.537   0.458   2.765 -1.2077 -2.8081  3.1189
   58MOL    H5028664   4.501   0.327   2.653 -0.6275  1.0586 -0.0159
   58MOL    H5128665   4.579   0.297   2.805 -0.7427  1.8580  1.7456
   58MOL    C5228666   5.073   0.192   1.994 -0.7568  0.6272  0.6009
   58MOL    C5328667   5.193   0.174   1.890  0.9745 -0.3563  0.1841
   58MOL    O5428668   5.252   0.054   1.912 -0.3529 -0.0457 -0.1885
   58MOL    C5528669   5.387   0.044   1.867  0.5714 -0.4669  0.0318
   58MOL    C5628670   5.441   7.672   1.878  0.7279 -0.2659 -0.5399
   58MOL    C5728671   5.402   7.577   1.757 -0.5781  0.3386 -0.1394
   58MOL    C5828672   5.490   7.455   1.751  0.3340  0.0304  0.5823
   58MOL    C5928673   5.448   7.341   1.659  0.1767  0.1237  0.1062
   58MOL    C6028674   5.549   7.226   1.628 -0.2877  0.4654 -0.3576
   58MOL    H6128675   5.003   0.270   1.965 -0.9395 -0.1307 -1.0623
   58MOL    H6228676   5.013   0.101   1.991 -0.7144  0.5526  1.9562
   58MOL    H6328677   5.260   0.259   1.900 -0.0260  0.7351 -2.0333
   58MOL    H6428678   5.436   0.118   1.930 -3.1267  2.7082 -0.6135
   58MOL    H6528679   5.390   0.076   1.763 -0.1664 -0.7845 -0.0900
   58MOL    H6628680   5.407   7.638   1.976  2.1416  2.5204  0.9586
   58MOL    H6728681   5.550   7.677   1.878  0.6708  1.5354 -1.7961
   58MOL    H6828682   5.298   7.549   1.769 -0.0497 -1.5072  0.3808
   58MOL    H6928683   5.410   7.631   1.663 -0.0764 -0.0409 -0.3209
   58MOL    H7028684   5.591   7.486   1.724  0.1700  0.4050  0.4090
   58MOL    H7128685   5.504   7.420   1.854  0.6742  0.3862  0.6570
   58MOL    H7228686   5.352   7.303   1.694 -0.6121 -0.4495 -2.5181
   58MOL    H7328687   5.422   7.382   1.561  1.7031 -0.9010 -0.7548
   58MOL    H7428688   5.641   7.261   1.580  0.3117 -0.0184  0.4205
   58MOL    H7528689   5.589   7.170   1.713  1.8683  0.2214 -1.4904
   58MOL    H7628690   5.513   7.153   1.556  1.8556 -1.0958  0.0967
   58MOL    C7728691   5.129   0.154   1.745 -0.5822 -0.3747 -0.4037
   58MOL    C7828692   5.076   0.281   1.675  0.2929 -0.0248 -0.5917
   58MOL    O7928693   5.052   0.232   1.543 -0.1576 -0.2092  0.2305
   58MOL    C8028694   4.916   0.250   1.509  0.4437 -0.8366 -0.2485
   58MOL    C8128695   4.870   0.177   1.379  0.3309 -0.3036 -0.0866
   58MOL    C8228696   4.718   0.181   1.345  0.6898 -0.0860 -0.4450
   58MOL    C8328697   4.621   0.126   1.451 -0.2127 -0.4468 -0.3627
   58MOL    C8428698   4.476   0.130   1.402 -0.5021  0.0899  0.5425
   58MOL    C8528699   4.377   0.087   1.510 -0.0966 -0.2209 -0.5084
   58MOL    H8628700   5.045   0.085   1.753 -0.2234 -0.7226  0.4130
   58MOL    H8728701   5.199   0.103   1.680  0.4316 -0.4268  0.7217
   58MOL    H8828702   4.990   0.318   1.730 -0.8978 -1.8635 -1.1735
   58MOL    H8928703   4.880   0.353   1.510  3.4671  0.4139 -4.0616
   58MOL    H9028704   4.870   0.199   1.593  1.8602 -0.6462  0.6599
   58MOL    H9128705   4.892   0.070   1.385  0.3792 -0.4846 -3.0514
   58MOL    H9228706   4.929   0.214   1.296  1.9878  1.5728  1.8660
   58MOL    H9328707   4.682   0.281   1.318 -1.7002 -1.2304 -1.6294
   58MOL    H9428708   4.702   0.123   1.255  0.4030  0.6634 -0.8897
   58MOL    H9528709   4.647   0.022   1.468 -3.7292 -1.5099 -1.0891
   58MOL    H9628710   4.632   0.184   1.542  0.7628  1.0509 -1.3983
   58MOL    H9728711   4.448   0.226   1.359 -0.8874  0.0188  0.6358
   58MOL    H9828712   4.460   0.060   1.320 -1.4541  0.0551  0.7540
   58MOL    H9928713   4.274   0.099   1.475  0.3118 -1.7595 -2.3206
   58MOL   H10028714   4.381   7.761   1.545 -0.1990  0.2057  0.7701
   58MOL   H10128715   4.387   0.152   1.596 -1.5164  0.1787 -0.6341
   58MOL   C10228716   5.172   0.399   1.652  0.5030 -0.1719 -0.1069
   58MOL   C10328717   5.122   0.526   1.573  0.3467  0.5744  0.1488
   58MOL   O10428718   5.190   0.639   1.617  0.3696 -0.1351 -0.0705
   58MOL   C10528719   5.140   0.705   1.730 -0.2897  0.7188  0.2834
   58MOL   C10628720   5.241   0.801   1.794 -0.5230  0.2852 -0.4115
   58MOL   C10728721   5.376   0.727   1.836 -0.4929 -0.2617 -0.1383
   58MOL   C10828722   5.470   0.833   1.889 -0.5218 -0.5424  0.5442
   58MOL   C10928723   5.620   0.792   1.877  0.0150 -0.0684  0.2365
   58MOL   C11028724   5.666   0.674   1.965  0.2393  0.3716  0.2853
   58MOL   H11128725   5.207   0.432   1.750 -0.8101 -1.0904  0.6720
   58MOL   H11228726   5.249   0.353   1.591  1.2457  1.0765 -0.1418
   58MOL   H11328727   5.014   0.539   1.569  0.2373 -0.2864  0.3381
   58MOL   H11428728   5.109   0.629   1.801  0.0881 -0.1100 -0.4300
   58MOL   H11528729   5.054   0.767   1.706 -0.6672 -0.4254 -1.3899
   58MOL   H11628730   5.194   0.860   1.873  0.1662  0.5720 -0.2127
   58MOL   H11728731   5.259   0.877   1.718  1.3807  0.8804  0.5970
   58MOL   H11828732   5.352   0.658   1.917 -0.6172 -0.5003 -0.3788
   58MOL   H11928733   5.407   0.666   1.751  0.3616  0.1818 -0.1444
   58MOL   H12028734   5.453   0.928   1.839 -0.9438 -0.4019  0.9548
   58MOL   H12128735   5.452   0.849   1.995  0.8761 -0.5770  0.8013
   58MOL   H12228736   5.647   0.773   1.773 -0.5342 -0.6552  0.1969
   58MOL   H12328737   5.674   0.879   1.916 -1.3212  0.2879  1.3024
   58MOL   H12428738   5.627   0.577   1.933  1.9894  0.0509 -0.9171
   58MOL   H12528739   5.772   0.649   1.962  0.2155  0.1556  1.1150
   58MOL   H12628740   5.653   0.699   2.070  1.3882 -0.9962  0.7786
   58MOL   C12728741   5.155   0.508   1.420 -0.3283  0.1439 -0.3391
   58MOL   C12828742   5.096   0.622   1.332  0.5129 -0.1917 -0.2974
   58MOL   O12928743   4.951   0.615   1.334 -0.8546 -0.6713 -0.0149
   58MOL   C13028744   4.888   0.743   1.330  0.4511  0.0187  0.2255
   58MOL   C13128745   4.734   0.730   1.342 -0.6050 -0.7352  0.1918
   58MOL   C13228746   4.694   0.646   1.459 -0.0463 -0.0593  0.2477
   58MOL   C13328747   4.548   0.660   1.484 -0.4021 -0.2637  0.0991
   58MOL   C13428748   4.490   0.559   1.588  0.2177 -0.6945 -0.2745
   58MOL   C13528749   4.333   0.571   1.590 -0.0594  0.0422  0.4813
   58MOL   H13628750   5.264   0.512   1.417 -0.2055 -0.5350  2.1991
   58MOL   H13728751   5.131   0.409   1.382 -0.8913  0.2467 -0.2637
   58MOL   H13828752   5.121   0.709   1.392 -1.2605  0.6304 -0.7140
   58MOL   H13928753   4.916   0.790   1.236  0.5863  0.2911  0.4036
   58MOL   H14028754   4.922   0.808   1.410 -1.4087  1.4510 -0.1004
   58MOL   H14128755   4.697   0.683   1.251 -3.3779 -1.1675  1.4641
   58MOL   H14228756   4.683   0.827   1.346 -2.1369 -1.4956 -0.2033
   58MOL   H14328757   4.715   0.540   1.445 -1.1277 -0.2496  0.0299
   58MOL   H14428758   4.753   0.671   1.547 -2.2565  0.0157  1.7468
   58MOL   H14528759   4.516   0.757   1.522  1.7042 -0.0136  1.3140
   58MOL   H14628760   4.500   0.631   1.391 -0.9683 -1.0486  0.6310
   58MOL   H14728761   4.517   0.456   1.564  1.4356 -0.9017  1.7939
   58MOL   H14828762   4.530   0.582   1.687 -1.3228 -0.4708  0.3116
   58MOL   H14928763   4.298   0.671   1.567 -0.2575  0.6868  3.4512
   58MOL   H15028764   4.289   0.516   1.507 -0.7024  1.3402 -0.0438
   58MOL   H15128765   4.294   0.539   1.687  1.0798 -0.9270  0.6437
   58MOL   C15228766   5.156   0.650   1.191 -0.1253  0.6934  0.3371
   58MOL   C15328767   5.082   0.598   1.065  0.6452  0.0549  0.2871
   58MOL   O15428768   5.158   0.615   0.950 -0.0859 -0.2234 -0.3761
   58MOL   C15528769   5.149   0.738   0.876 -0.3140  0.2735  0.4187
   58MOL   C15628770   5.091   0.715   0.734 -0.1977  0.5700 -0.2148
   58MOL   C15728771   5.176   0.614   0.659  0.5309  0.3690 -0.6498
   58MOL   C15828772   5.118   0.554   0.537  0.5222 -0.0103 -0.4621
   58MOL   C15928773   5.220   0.477   0.455  0.0212  0.5097  0.1679
   58MOL   C16028774   5.171   0.418   0.321 -0.0708 -0.1972  0.1407
   58MOL   H16128775   5.180   0.755   1.177  0.5543  0.8029  2.1985
   58MOL   H16228776   5.253   0.603   1.179 -0.0123  0.6112  1.5081
   58MOL   H16328777   4.983   0.644   1.062  1.4808  1.8735 -0.5757
   58MOL   H16428778   5.255   0.765   0.870 -0.1232 -0.4216  0.6423
   58MOL   H16528779   5.088   0.808   0.933 -2.6032  0.8404 -2.6154
   58MOL   H16628780   5.087   0.814   0.689  0.3270  1.6158  1.9651
   58MOL   H16728781   4.988   0.680   0.730 -0.4675  1.2841  0.3433
   58MOL   H16828782   5.269   0.668   0.639  1.0398  0.2448  1.2997
   58MOL   H16928783   5.204   0.534   0.728 -2.6832 -0.2568 -0.0181
   58MOL   H17028784   5.048   0.481   0.578  0.9012 -0.4432 -0.5733
   58MOL   H17128785   5.064   0.622   0.472  0.2767  2.1189  1.9195
   58MOL   H17228786   5.317   0.526   0.459 -0.2376  0.8895  1.7850
   58MOL   H17328787   5.248   0.385   0.507  0.1173  1.6629  2.2045
   58MOL   H17428788   5.237   0.338   0.288 -1.3368 -1.2587  0.1309
   58MOL   H17528789   5.075   0.381   0.358  0.1117  1.0985  1.9517
   58MOL   H17628790   5.159   0.482   0.233  1.5980 -0.0538  0.0137
   58MOL   C17728791   5.058   0.453   1.062 -0.2520 -0.2135  0.2497
   58MOL   C17828792   4.943   0.403   0.970 -0.0054  0.1866  0.6048
   58MOL   O17928793   4.912   0.269   1.002  0.1533  0.3477 -0.9676
   58MOL   C18028794   4.969   0.164   0.919  0.5736  0.2415 -0.1176
   58MOL   C18128795   4.932   0.182   0.766  0.4012 -0.0318 -0.0331
   58MOL   C18228796   4.969   0.061   0.678  0.2207 -0.1692  0.4053
   58MOL   C18328797   4.907   0.085   0.543  0.3234  0.3277  1.0865
   58MOL   C18428798   4.910   7.735   0.455 -0.7137 -0.3252  1.0962
   58MOL   C18528799   4.879   7.752   0.302  0.0611 -0.0787  0.6882
   58MOL   H18628800   5.153   0.400   1.049  0.6284  1.0253  1.5608
   58MOL   H18728801   5.017   0.422   1.158 -0.1689 -1.1951 -0.0212
   58MOL   H18828802   4.976   0.418   0.867  1.5213  2.6640  1.3996
   58MOL   H18928803   4.939   0.067   0.957 -2.1688  1.4018  0.7963
   58MOL   H19028804   5.077   0.163   0.931  0.2617  0.0329  3.1815
   58MOL   H19128805   4.979   0.268   0.718  0.7007 -0.6669 -0.8967
   58MOL   H19228806   4.824   0.197   0.761  0.5444  0.2604 -2.8084
   58MOL   H19328807   5.076   0.045   0.669 -0.1371 -1.3230 -2.1850
   58MOL   H19428808   4.925   7.745   0.712 -0.3153  0.9209  2.8409
   58MOL   H19528809   4.806   0.123   0.555 -0.2542 -0.2826 -1.5157
   58MOL   H19628810   4.960   0.167   0.495  0.4958 -0.7173 -0.5414
   58MOL   H19728811   5.010   7.690   0.463  0.4668  2.1039  0.5410
   58MOL   H19828812   4.849   7.653   0.493  0.5230 -2.0040 -0.3909
   58MOL   H19928813   4.867   7.656   0.252 -1.9165  0.9707 -0.9770
   58MOL   H20028814   4.785   0.031   0.297  0.6799  0.9000 -0.1208
   58MOL   H20128815   4.964   0.020   0.251 -0.2838 -1.6142 -1.3037
   58MOL   C20228816   4.816   0.478   0.977  0.3500  0.4778 -0.4556
   58MOL   C20328817   4.702   0.445   0.880  0.3678  0.8454 -0.1450
   58MOL   O20428818   4.664   0.303   0.902  0.6321  0.2888 -0.0604
   58MOL   C20528819   4.534   0.286   0.957 -0.2034  0.0176  0.7160
   58MOL   C20628820   4.507   0.136   0.951 -0.0616 -0.3082 -0.1016
   58MOL   C20728821   4.356   0.106   0.971  0.0493 -0.4422  0.2494
   58MOL   C20828822   4.316   7.743   1.008 -0.5494 -0.4429  0.0652
   58MOL   C20928823   4.158   7.726   1.015 -0.1449 -0.1743  0.3378
   58MOL   C21028824   4.101   7.575   1.013  0.3234  0.4050  0.4926
   58MOL   H21128825   4.765   0.476   1.074 -0.8134 -0.3395 -1.0703
   58MOL   H21228826   4.835   0.582   0.949  0.2864  1.0272  1.4557
   58MOL   H21328827   4.613   0.506   0.895  0.9802  1.4362  1.1444
   58MOL   H21428828   4.457   0.345   0.908 -1.4756 -1.0551  1.4028
   58MOL   H21528829   4.535   0.319   1.061 -2.2211 -1.5144  1.2434
   58MOL   H21628830   4.571   0.085   1.023 -0.0337  1.0334  0.8318
   58MOL   H21728831   4.534   0.090   0.855  1.8641 -2.2658  1.3300
   58MOL   H21828832   4.325   0.162   1.059 -0.6901  1.4194 -1.1599
   58MOL   H21928833   4.296   0.139   0.886  0.0190 -0.0594  0.4179
   58MOL   H22028834   4.353   7.663   0.943 -0.4086  1.3399 -2.1139
   58MOL   H22128835   4.357   7.709   1.103  0.0161 -1.2142 -0.4449
   58MOL   H22228836   4.112   7.759   1.108 -2.5265  0.2235 -0.9363
   58MOL   H22328837   4.108   0.003   0.935 -0.8451 -0.4066  0.6145
   58MOL   H22428838   4.148   7.520   1.094  1.1263 -0.0458 -0.2799
   58MOL   H22528839   3.994   7.565   1.033  0.0241  0.3883 -1.0777
   58MOL   H22628840   4.129   7.528   0.919  0.3244 -1.7705  1.5404
   58MOL   C22728841   4.726   0.462   0.730  0.0911 -0.3985 -0.1079
   58MOL   C22828842   4.685   0.597   0.673 -0.2421 -1.0541 -0.0698
   58MOL   O22928843   4.758   0.693   0.747 -0.7423  0.1916 -0.2037
   58MOL   C23028844   4.684   0.799   0.800 -0.0058  0.1585  0.5801
   58MOL   C23128845   4.783   0.889   0.885  0.2800 -0.3648  0.0901
   58MOL   C23228846   4.718   1.001   0.960  0.3711  0.1459 -0.3036
   58MOL   C23328847   4.639   0.969   1.091  0.5126  0.6207  0.9942
   58MOL   C23428848   4.546   1.079   1.132 -1.1055  0.4339  0.4109
   58MOL   C23528849   4.501   1.067   1.278  0.2843  0.5983  0.4226
   58MOL   H23628850   4.832   0.444   0.712 -0.1531 -1.4109 -0.5598
   58MOL   H23728851   4.673   0.385   0.674 -2.0951  0.7631  0.2943
   58MOL   H23828852   4.577   0.611   0.670 -0.1724  0.0943  2.2900
   58MOL   H23928853   4.603   0.759   0.862 -1.8133  1.1645 -1.0983
   58MOL   H24028854   4.633   0.861   0.727  0.1369 -0.6886 -0.2491
   58MOL   H24128855   4.850   0.929   0.810  0.3536  0.0271  0.3626
   58MOL   H24228856   4.845   0.829   0.953  1.4252  0.1020 -0.5377
   58MOL   H24328857   4.793   1.079   0.976  1.4642 -0.9428 -0.0870
   58MOL   H24428858   4.653   1.052   0.888 -1.2559  1.7995  2.2403
   58MOL   H24528859   4.597   0.870   1.079 -1.4637  1.8870 -3.2584
   58MOL   H24628860   4.708   0.966   1.176  0.0338 -0.2378  1.3539
   58MOL   H24728861   4.578   1.179   1.103  1.4380 -0.8442 -1.3328
   58MOL   H24828862   4.460   1.066   1.066  0.4343 -0.9227 -1.3906
   58MOL   H24928863   4.461   0.966   1.273  0.5581  0.4323  1.4744
   58MOL   H25028864   4.588   1.061   1.343  0.4603  3.1582  0.4701
   58MOL   H25128865   4.430   1.139   1.320 -0.8393 -0.3221  0.1357
   58MOL   C25228866   4.730   0.597   0.529 -0.1414 -0.7106  0.5445
   58MOL   C25328867   4.708   0.731   0.457 -0.2875  0.7317 -0.1559
   58MOL   O25428868   4.679   0.692   0.326 -0.0387  0.0775  0.2903
   58MOL   C25528869   4.557   0.754   0.283  0.1598  0.4223 -0.4747
   58MOL   C25628870   4.540   0.749   0.129  0.7657 -0.1884 -0.2800
   58MOL   C25728871   4.664   0.809   0.056  0.0751  0.0540 -0.0668
   58MOL   C25828872   4.673   0.768   7.690  0.3481 -0.5754  0.3026
   58MOL   C25928873   4.787   0.841   7.617  0.4665  0.0131 -0.0208
   58MOL   C26028874   4.922   0.769   7.629 -0.0768 -0.4808  0.0823
   58MOL   H26128875   4.829   0.555   0.517  0.0113 -0.1068 -0.3702
   58MOL   H26228876   4.659   0.530   0.480 -1.2209 -0.0948  1.2435
   58MOL   H26328877   4.633   0.793   0.506 -0.2322  0.8806 -0.2588
   58MOL   H26428878   4.566   0.859   0.308  1.9142 -0.1612  1.5135
   58MOL   H26528879   4.471   0.713   0.337 -0.2572 -1.3245 -2.4087
   58MOL   H26628880   4.455   0.808   0.097  1.1238  0.2793 -0.3720
   58MOL   H26728881   4.513   0.650   0.094  2.3174 -1.0089  0.7654
   58MOL   H26828882   4.664   0.917   0.069 -0.7713 -0.0050  0.4510
   58MOL   H26928883   4.759   0.783   0.103 -1.2495 -1.8695  1.6559
   58MOL   H27028884   4.698   0.663   7.675  0.5111 -0.3851 -0.7474
   58MOL   H27128885   4.577   0.795   7.646  0.0696 -0.4726  0.9634
   58MOL   H27228886   4.756   0.841   7.512  0.2906  1.0853  0.0231
   58MOL   H27328887   4.789   0.944   7.652 -1.5524 -0.4567  1.5630
   58MOL   H27428888   5.002   0.817   7.572 -0.1028 -1.5622 -0.8859
   58MOL   H27528889   4.965   0.782   7.729  0.1357 -4.2427  0.5500
   58MOL   H27628890   4.922   0.662   7.607  1.3156 -0.2951 -0.8761
   58MOL   C27728891   4.840   0.816   0.464 -0.6148 -0.0480  0.2575
   58MOL   C27828892   4.827   0.952   0.385 -0.1968  0.5993 -0.3202
   58MOL   O27928893   4.715   1.019   0.437 -0.4362 -0.0420 -0.1829
   58MOL   C28028894   4.676   1.135   0.361 -0.4359 -0.2827 -0.1976
   58MOL   C28128895   4.545   1.186   0.414  0.2377 -0.0258  0.6827
   58MOL   C28228896   4.502   1.303   0.329  0.3441 -0.8012 -0.8599
   58MOL   C28328897   4.363   1.353   0.365  0.8086 -0.4049 -0.2392
   58MOL   C28428898   4.296   1.441   0.256 -0.3899 -0.0652  0.1163
   58MOL   C28528899   4.149   1.480   0.279 -0.0800  0.0939  0.2013
   58MOL   H28628900   4.870   0.839   0.567 -1.0250  0.2778  0.3034
   58MOL   H28728901   4.924   0.756   0.428  0.0994  0.6222  0.7745
   58MOL   H28828902   4.802   0.927   0.282  0.4262 -1.2899 -0.0221
   58MOL   H28928903   4.662   1.104   0.257  0.0953  1.5687 -0.8499
   58MOL   H29028904   4.749   1.215   0.351 -1.5925  0.7575 -0.4612
   58MOL   H29128905   4.559   1.200   0.521  0.1941  1.7982  0.4568
   58MOL   H29228906   4.468   1.109   0.405  0.9232 -0.6515  0.1693
   58MOL   H29328907   4.574   1.384   0.344  1.5337 -1.8364 -0.8999
   58MOL   H29428908   4.506   1.277   0.223 -0.1590 -2.9948 -0.3723
   58MOL   H29528909   4.300   1.271   0.401  0.6928  0.3846  1.3882
   58MOL   H29628910   4.376   1.404   0.460  1.2641 -1.4013  0.2428
   58MOL   H29728911   4.355   1.530   0.235 -0.4847 -0.0845 -0.2433
   58MOL   H29828912   4.315   1.389   0.162 -0.7519 -1.6733  0.9132
   58MOL   H29928913   4.119   1.551   0.202 -0.0889 -0.1665 -0.0356
   58MOL   H30028914   4.088   1.391   0.266 -0.5569  0.2557  1.2611
   58MOL   H30128915   4.125   1.521   0.377  0.9176 -1.3139  1.0705
   58MOL   C30228916   4.958   1.031   0.393 -0.2134 -0.2385  0.0192
   58MOL   C30328917   5.063   1.030   0.279 -0.5844  0.2151 -0.1271
   58MOL   O30428918   5.002   1.052   0.153  0.0718  0.1303  0.4684
   58MOL   C30528919   4.983   1.187   0.131 -0.2745  0.0622  0.3227
   58MOL   C30628920   4.873   1.197   0.024 -0.3984  0.8018 -0.4520
   58MOL   C30728921   4.827   1.340   0.001 -0.0304 -0.0193  0.1336
   58MOL   C30828922   4.690   1.371   7.722 -0.6134  0.1009 -0.4899
   58MOL   C30928923   4.690   1.518   7.677 -0.2052 -0.1840 -0.4336
   58MOL   C31028924   4.559   1.568   7.624  0.0455 -0.6512 -0.2540
   58MOL   H31128925   4.926   1.135   0.402 -2.3202 -0.6686 -2.2601
   58MOL   H31228926   5.015   1.020   0.486 -0.5521 -0.5629  0.1874
   58MOL   H31328927   5.129   1.113   0.305 -0.5798 -1.3022  5.5693
   58MOL   H31428928   5.076   1.216   0.082  0.4473 -2.8136 -0.1243
   58MOL   H31528929   4.961   1.244   0.221 -1.6886 -1.1166  0.7528
   58MOL   H31628930   4.787   1.136   0.051 -0.1023  0.9629  0.8797
   58MOL   H31728931   4.923   1.165   7.710  1.5837 -0.6061  1.0897
   58MOL   H31828932   4.841   1.386   0.099 -1.7797  0.8841 -0.0336
   58MOL   H31928933   4.906   1.385   7.719  0.9021 -0.8111  0.7481
   58MOL   H32028934   4.687   1.312   7.630  2.2905  0.2684 -0.7445
   58MOL   H32128935   4.606   1.338   0.006  0.3107 -2.4808 -0.5294
   58MOL   H32228936   4.734   1.579   7.755 -0.2356 -1.4272  0.5713
   58MOL   H32328937   4.762   1.530   7.596  1.8614  0.8700  1.4923
   58MOL   H32428938   4.487   1.566   7.706  0.9854  1.5005  0.6636
   58MOL   H32528939   4.565   1.669   7.583 -2.1701 -0.0140  0.8986
   58MOL   H32628940   4.528   1.499   7.546  0.2823 -0.2967 -0.6654
   58MOL   C32728941   5.154   0.899   0.271 -0.1615  0.4947  0.3142
   58MOL   C32828942   5.272   0.922   0.176 -0.1421  0.5413  0.4814
   58MOL   O32928943   5.374   1.001   0.243 -0.2323 -1.0727  0.6066
   58MOL   C33028944   5.389   1.133   0.191  0.5835  0.2549  0.1724
   58MOL   C33128945   5.525   1.200   0.224  0.2489 -0.2703  0.0964
   58MOL   C33228946   5.556   1.328   0.147 -0.6805  0.2926  0.5768
   58MOL   C33328947   5.693   1.396   0.184 -0.2903 -0.1907 -0.0153
   58MOL   C33428948   5.741   1.480   0.071  0.0072  0.6347 -0.4270
   58MOL   C33528949   5.656   1.592   0.019 -0.7372  0.0204  0.0801
   58MOL   H33628950   5.093   0.816   0.236 -0.8032  1.1559 -0.1549
   58MOL   H33728951   5.190   0.862   0.367 -2.1087 -0.0516  0.8688
   58MOL   H33828952   5.231   0.957   0.082  0.5897 -0.8497 -0.3563
   58MOL   H33928953   5.300   1.195   0.204 -0.1680 -0.4778 -1.3924
   58MOL   H34028954   5.390   1.106   0.085 -0.7766  0.2821  0.1518
   58MOL   H34128955   5.597   1.120   0.206 -0.4367 -0.2106 -3.1851
   58MOL   H34228956   5.524   1.218   0.332  0.5405  0.8806 -0.0867
   58MOL   H34328957   5.554   1.305   0.040 -0.3781  0.5706  0.5101
   58MOL   H34428958   5.476   1.400   0.134 -0.6266  0.2756  0.1441
   58MOL   H34528959   5.692   1.456   0.275  0.5001 -1.3932  0.7977
   58MOL   H34628960   5.762   1.315   0.207 -0.1701  1.2419  5.2745
   58MOL   H34728961   5.827   1.536   0.107 -0.7776  1.0806  0.7511
   58MOL   H34828962   5.771   1.405   7.774 -1.0348  0.8960 -1.1306
   58MOL   H34928963   5.604   1.638   0.104 -0.7110  0.1281  0.0383
   58MOL   H35028964   5.717   1.669   7.749 -2.7630  1.2902 -0.5275
   58MOL   H35128965   5.588   1.556   7.720  1.2778 -2.2966 -0.6809
   58MOL   C35228966   5.333   0.779   0.142  0.2687  0.5534  0.2926
   58MOL   C35328967   5.425   0.789   0.022 -0.3219  0.2727  0.3621
   58MOL   O35428968   5.386   0.698   7.689 -0.2249 -0.8022  0.3518
   58MOL   C35528969   5.387   0.565   7.709 -0.3320  0.1901  0.7332
   58MOL   C35628970   5.332   0.505   7.584  0.8300 -0.5294 -0.5419
   58MOL   C35728971   5.187   0.546   7.555  0.2774 -0.6142  0.2623
   58MOL   C35828972   5.127   0.501   7.423  0.7566 -0.1128 -0.2986
   58MOL   C35928973   5.149   0.593   7.300  0.4881 -0.0290 -0.2818
   58MOL   C36028974   5.291   0.639   7.278  0.7223  0.1651 -0.2101
   58MOL   H36128975   5.377   0.728   0.227  0.9983  0.3505 -0.2067
   58MOL   H36228976   5.250   0.721   0.102  1.7109 -0.9975 -0.4913
   58MOL   H36328977   5.425   0.889   7.757 -1.2395  1.8733  3.9797
   58MOL   H36428978   5.316   0.532   0.008 -1.9235 -0.3246 -0.9174
   58MOL   H36528979   5.483   0.524   7.736  0.1215  1.4228  1.0428
   58MOL   H36628980   5.346   0.397   7.589  1.9898 -0.5155 -2.8109
   58MOL   H36728981   5.399   0.545   7.508  0.8406  0.4672 -0.0227
   58MOL   H36828982   5.119   0.513   7.634 -1.6886 -2.3582 -2.0481
   58MOL   H36928983   5.181   0.654   7.557  0.4749 -0.5733 -0.8899
   58MOL   H37028984   5.188   0.416   7.391  0.8600 -0.4444  0.7521
   58MOL   H37128985   5.023   0.467   7.430  0.0551  1.4520 -2.6078
   58MOL   H37228986   5.124   0.536   7.210 -0.6776  2.5239 -1.6591
   58MOL   H37328987   5.073   0.671   7.294 -0.2861 -0.7246  0.4463
   58MOL   H37428988   5.297   0.712   7.197  0.0208 -0.3017 -0.6933
   58MOL   H37528989   5.327   0.688   7.369  0.3902  0.8947 -0.4670
   58MOL   H37628990   5.349   0.552   7.247 -1.5763  0.1020 -4.7552
   58MOL   C37728991   5.577   0.761   0.062 -0.1412  0.3979  0.0487
   58MOL   C37828992   5.686   0.756   7.729  0.2082  0.6018 -0.0327
   58MOL   O37928993   5.802   0.702   0.011  0.1016  0.0976  0.0670
   58MOL   C38028994   5.875   0.617   7.709  0.0521  0.3849 -1.2368
   58MOL   C38128995   6.008   0.595   7.774 -0.0896 -0.0840  0.5300
   58MOL   C38228996   6.105   0.515   7.681  0.6225  0.2359 -0.1360
   58MOL   C38328997   6.259   0.528   7.727  0.2741 -0.3279 -0.1066
   58MOL   C38428998   6.364   0.452   7.630 -0.1440  0.1704 -0.1964
   58MOL   C38528999   6.502   0.434   7.682 -0.0621 -0.0178  0.3283
   58MOL   H38629000   5.603   0.838   0.133 -0.8491  0.3197  0.4004
   58MOL   H38729001   5.588   0.667   0.116  1.0279  0.3207 -0.3031
   58MOL   H38829002   5.636   0.692   7.656  0.6437  1.2649 -0.9226
   58MOL   H38929003   5.902   0.666   7.616 -0.4310  2.5740 -0.2551
   58MOL   H39029004   5.816   0.526   7.700 -1.6359  1.6837 -3.6508
   58MOL   H39129005   6.014   0.543   0.092  1.3207  0.6157  0.8533
   58MOL   H39229006   6.065   0.685   0.024  1.4133 -0.1051 -2.3590
   58MOL   H39329007   6.076   0.412   7.703  0.4337  0.3374  0.0890
   58MOL   H39429008   6.097   0.541   7.575  0.4510 -3.0707 -0.9867
   58MOL   H39529009   6.299   0.629   7.736 -0.1893 -0.2987  1.7116
   58MOL   H39629010   6.274   0.491   0.051  1.8390 -1.2206 -0.6544
   58MOL   H39729011   6.330   0.349   7.621  0.8726 -0.1916  0.1103
   58MOL   H39829012   6.362   0.491   7.528 -1.3697 -2.1182 -1.0773
   58MOL   H39929013   6.545   0.383   7.596  0.0124  0.6070 -0.0054
   58MOL   H40029014   6.565   0.520   7.706  2.2376 -1.3445 -0.6753
   58MOL   H40129015   6.494   0.371   7.771 -0.2845  0.7143  0.8259
   58MOL   C40229016   5.719   0.891   7.660  0.2523  0.2791 -0.3577
   58MOL   C40329017   5.624   0.955   7.559  0.7762  0.8287  0.1639
   58MOL   O40429018   5.671   0.937   7.424  0.3671 -0.4430  0.1350
   58MOL   C40529019   5.688   0.807   7.375 -0.3278 -0.4606  0.2813
   58MOL   C40629020   5.684   0.790   7.217 -0.5772  0.2505 -0.7866
   58MOL   C40729021   5.759   0.671   7.168  0.0359  0.3330 -0.0855
   58MOL   C40829022   5.786   0.651   7.016  0.0205 -0.9024  0.1174
   58MOL   C40929023   5.699   0.539   6.959 -0.0177 -0.8755  0.0265
   58MOL   C41029024   5.545   0.568   6.960  0.2662  0.4579  0.5832
   58MOL   H41129025   5.816   0.886   7.612  1.0693 -3.0835  1.4724
   58MOL   H41229026   5.734   0.963   7.741  0.3260  1.9789 -1.8577
   58MOL   H41329027   5.527   0.906   7.566  1.3036 -0.1217  0.8633
   58MOL   H41429028   5.610   0.743   7.415  0.3008 -0.1387  2.0896
   58MOL   H41529029   5.784   0.765   7.406  0.6769 -1.4131 -3.8021
   58MOL   H41629030   5.743   0.868   7.169 -0.0351 -0.0287 -0.5889
   58MOL   H41729031   5.583   0.802   7.180  0.0364  2.8446 -1.7174
   58MOL   H41829032   5.855   0.684   7.217  0.0093 -0.5598  0.2192
   58MOL   H41929033   5.723   0.572   7.198  2.1925 -0.1094  1.1114
   58MOL   H42029034   5.786   0.747   6.964  3.4232 -1.1345 -0.4151
   58MOL   H42129035   5.888   0.614   7.003  0.2941  0.1434 -0.8500
   58MOL   H42229036   5.721   0.538   6.852  4.4153  0.1059  0.8599
   58MOL   H42329037   5.716   0.444   7.010  1.2754 -0.2920  0.6868
   58MOL   H42429038   5.472   0.495   6.925  0.1976  1.6355 -1.8090
   58MOL   H42529039   5.519   0.595   7.063 -2.5958 -1.8549  0.5420
   58MOL   H42629040   5.522   0.646   6.888  0.1240 -0.5097 -0.4216
   58MOL   C42729041   5.588   1.107   7.586  0.3356 -0.6523  0.2922
   58MOL   C42829042   5.499   1.179   7.476  0.0591  0.4405  0.2969
   58MOL   O42929043   5.371   1.115   7.471  0.0469  0.1149 -0.2765
   58MOL   C43029044   5.354   1.035   7.354  0.2265 -0.2447 -0.2390
   58MOL   C43129045   5.204   0.989   7.353 -0.1895 -0.3122  0.0871
   58MOL   C43229046   5.094   1.096   7.346 -0.0624 -0.0436 -0.0283
   58MOL   C43329047   4.952   1.039   7.371  0.6330  0.2535  0.0540
   58MOL   C43429048   4.853   1.155   7.362 -0.6117  0.1015  0.3647
   58MOL   C43529049   4.701   1.124   7.381  0.2327 -0.0030  0.5632
   58MOL   H43629050   5.551   1.112   7.689  1.7281 -0.5897  0.8025
   58MOL   H43729051   5.682   1.161   7.600 -0.1896 -0.4214  3.2548
   58MOL   H43829052   5.548   1.168   7.379  1.5257 -2.2531  1.2821
   58MOL   H43929053   5.411   0.943   7.369  0.1953  0.0058  1.6227
   58MOL   H44029054   5.372   1.081   7.258 -0.0918  0.9460  0.2635
   58MOL   H44129055   5.194   0.932   7.446  0.4460 -2.9003 -1.3915
   58MOL   H44229056   5.189   0.925   7.266 -0.0227 -0.8830  0.4772
   58MOL   H44329057   5.119   1.155   7.434 -0.1271  1.1136 -0.7826
   58MOL   H44429058   5.096   1.151   7.252  0.0375 -3.6279 -2.2372
   58MOL   H44529059   4.930   0.957   7.303  1.6335 -1.0872  1.3027
   58MOL   H44629060   4.951   0.991   7.470  0.0880  2.0059  0.9133
   58MOL   H44729061   4.885   1.233   7.431 -0.4566  0.8933 -0.5859
   58MOL   H44829062   4.861   1.201   7.264  0.0475  2.8215  1.6595
   58MOL   H44929063   4.666   1.054   7.305 -1.8271  1.1807  0.4009
   58MOL   H45029064   4.684   1.068   7.473  0.3057  0.1653  0.6788
   58MOL   H45129065   4.642   1.214   7.370  1.8982  1.1833  1.1407
   58MOL   C45229066   5.485   1.328   7.505 -0.0705  0.1483  0.3133
   58MOL   C45329067   5.450   1.418   7.387  0.0664 -0.5939  0.4120
   58MOL   O45429068   5.573   1.468   7.329 -0.5106 -0.4652  0.2064
   58MOL   C45529069   5.578   1.468   7.186  0.8150  0.2527 -0.6655
   58MOL   C45629070   5.713   1.523   7.148  0.3191 -0.6312 -0.5478
   58MOL   C45729071   5.733   1.666   7.210  0.1204 -0.1104 -0.2359
   58MOL   C45829072   5.874   1.736   7.184 -0.4408  0.0526  0.4380
   58MOL   C45929073   5.876   1.879   7.243  0.0495  0.2097  0.7409
   58MOL   C46029074   6.008   1.949   7.211  0.1685 -0.2920 -0.1280
   58MOL   H46129075   5.412   1.340   7.585  0.4466 -2.7454  1.2983
   58MOL   H46229076   5.575   1.361   7.558  0.1952  0.8890 -0.5802
   58MOL   H46329077   5.391   1.364   7.314 -0.4449  0.8212 -0.2471
   58MOL   H46429078   5.501   1.526   7.135 -0.4319  0.1562  1.0333
   58MOL   H46529079   5.564   1.365   7.155  1.1895  0.1449 -0.4776
   58MOL   H46629080   5.735   1.532   7.042  0.4761  1.2928 -0.3650
   58MOL   H46729081   5.791   1.458   7.189  1.3443  1.1736  0.4371
   58MOL   H46829082   5.654   1.730   7.171 -1.4769 -1.6014  0.5385
   58MOL   H46929083   5.722   1.677   7.318 -2.8028  2.9143 -0.7563
   58MOL   H47029084   5.950   1.667   7.221  2.5473  2.2593 -1.3872
   58MOL   H47129085   5.886   1.732   7.076 -2.5182  1.5485  0.1142
   58MOL   H47229086   5.796   1.945   7.209 -0.3649 -0.9172 -0.5184
   58MOL   H47329087   5.859   1.881   7.351  1.3009  0.2331  0.9410
   58MOL   H47429088   6.088   1.899   7.265  1.0224 -1.1084 -2.1072
   58MOL   H47529089   6.049   1.937   7.111  2.2469  0.6081  0.5815
   58MOL   H47629090   6.010   2.051   7.250 -0.7354 -0.2293 -0.2365
   58MOL   C47729091   5.360   1.532   7.431  0.2062 -0.5584 -0.1175
   58MOL   C47829092   5.218   1.494   7.472 -0.1743 -0.2612  0.4206
   58MOL   O47929093   5.130   1.606   7.446 -0.5735 -0.1675 -0.1477
   58MOL   C48029094   4.997   1.586   7.479  0.0824 -0.1172  0.4236
   58MOL   C48129095   4.912   1.706   7.426  0.7740  0.0726 -0.1955
   58MOL   C48229096   4.918   1.740   7.279  0.0815 -0.2586 -0.3153
   58MOL   C48329097   4.818   1.844   7.232  0.7982 -0.0675 -0.0582
   58MOL   C48429098   4.683   1.780   7.209  0.3377 -0.1810 -0.1956
   58MOL   C48529099   4.577   1.879   7.168 -0.1452 -0.1942  0.7234
   58MOL   H48629100   5.409   1.593   7.507 -0.4245  2.2948 -1.9098
   58MOL   H48729101   5.348   1.603   7.349  0.2149 -0.4552 -0.0294
   58MOL   H48829102   5.180   1.417   7.405  0.2469 -1.5776  1.6963
   58MOL   H48929103   4.987   1.587   7.587  0.6052  0.0983  0.4726
   58MOL   H49029104   4.968   1.490   7.435  1.0474  0.2788 -1.1394
   58MOL   H49129105   4.931   1.793   7.490 -0.3099 -0.1329  0.4154
   58MOL   H49229106   4.809   1.675   7.439  1.3056 -2.5005 -1.6957
   58MOL   H49329107   5.011   1.787   7.246  0.2868 -1.0383 -0.8807
   58MOL   H49429108   4.908   1.648   7.220  1.7157 -0.1904 -0.7460
   58MOL   H49529109   4.810   1.929   7.299 -1.8146 -0.9766  0.8369
   58MOL   H49629110   4.857   1.885   7.139  2.1901  0.0622  0.5592
   58MOL   H49729111   4.683   1.698   7.137  1.0008 -0.2770 -0.0897
   58MOL   H49829112   4.648   1.734   7.301  1.3595  0.2824  0.4225
   58MOL   H49929113   4.609   1.925   7.075 -1.9410  1.8873  1.1210
   58MOL   H50029114   4.484   1.828   7.145  0.6040 -0.4056 -1.9448
   58MOL   H50129115   4.566   1.963   7.236 -0.7089 -1.5193  2.3026
   58MOL   H50229116   5.214   1.467   7.577  0.6265  2.6882  1.2703
   59MOL     C129117   6.512   3.509   5.455  0.0453 -0.2235  0.1410
   59MOL     C229118   6.437   3.470   5.577  0.7854 -0.6948 -0.4950
   59MOL     O329119   6.295   3.466   5.552  0.3546  0.1002 -0.1573
   59MOL     C429120   6.235   3.335   5.542  0.0714 -0.9128 -0.0276
   59MOL     C529121   6.096   3.344   5.471  0.7053  0.0984 -0.5250
   59MOL     C629122   6.012   3.461   5.525  0.1540 -0.7498  0.3406
   59MOL     C729123   5.859   3.442   5.529  0.6418  0.3864  0.0581
   59MOL     C829124   5.795   3.580   5.528 -0.5636 -0.4660 -0.2971
   59MOL     C929125   5.640   3.550   5.541 -0.1038  0.0362  0.5007
   59MOL    H1029126   6.614   3.544   5.468  0.1639 -0.0598 -1.1521
   59MOL    H1129127   6.514   3.421   5.391  0.5514  0.0225 -0.1754
   59MOL    H1229128   6.466   3.371   5.613 -0.0352 -0.4532  0.8796
   59MOL    H1329129   6.229   3.282   5.637 -1.5341 -0.9713 -0.1463
   59MOL    H1429130   6.297   3.272   5.478  1.5624 -1.9307  2.3666
   59MOL    H1529131   6.045   3.248   5.476  0.1424  0.4682  0.9495
   59MOL    H1629132   6.116   3.374   5.368 -1.9806  0.4232 -0.9821
   59MOL    H1729133   6.041   3.497   5.624 -0.0175 -0.3001  0.2253
   59MOL    H1829134   6.047   3.552   5.477  1.1643 -1.2915  0.0266
   59MOL    H1929135   5.834   3.387   5.438  1.3200  0.7833 -0.3708
   59MOL    H2029136   5.829   3.385   5.616 -1.8218 -0.5096 -1.3050
   59MOL    H2129137   5.808   3.629   5.431  0.1973 -1.6154 -0.7757
   59MOL    H2229138   5.835   3.643   5.608 -1.5638 -0.3738  0.1346
   59MOL    H2329139   5.614   3.489   5.627 -0.8935 -2.3901 -1.3981
   59MOL    H2429140   5.589   3.645   5.553 -3.1257 -1.5511  0.5527
   59MOL    H2529141   5.603   3.498   5.453  0.0355 -1.9627  1.5768
   59MOL    H2629142   6.458   3.581   5.394  1.3353  1.0648  0.4993
   59MOL    C2729143   6.471   3.578   5.688  0.2086  0.8168  0.0716
   59MOL    C2829144   6.410   3.560   5.826 -0.3050  0.7047 -0.2165
   59MOL    O2929145   6.480   3.631   5.926 -0.3443  0.5387 -0.1062
   59MOL    C3029146   6.518   3.550   6.034  0.3617 -0.1826  0.1685
   59MOL    C3129147   6.556   3.647   6.149 -0.5616 -0.6451 -0.8493
   59MOL    C3229148   6.443   3.709   6.229 -0.2198 -0.2338 -0.1497
   59MOL    C3329149   6.496   3.821   6.314  0.5443 -0.0816 -0.1857
   59MOL    C3429150   6.375   3.898   6.378 -0.0374  0.3465  0.8306
   59MOL    C3529151   6.420   4.022   6.445 -0.1403 -0.3226 -0.3071
   59MOL    H3629152   6.579   3.586   5.693  0.3256 -1.7193  2.5036
   59MOL    H3729153   6.448   3.678   5.651 -1.8998  0.4942  0.4608
   59MOL    H3829154   6.426   3.454   5.848 -0.7116  0.7937  0.5279
   59MOL    H3929155   6.599   3.492   5.990  1.1610  0.3016  0.9898
   59MOL    H4029156   6.452   3.469   6.067  0.0812 -0.6905 -1.6134
   59MOL    H4129157   6.616   3.725   6.103 -0.7700  0.5668  0.8821
   59MOL    H4229158   6.617   3.597   6.225  0.1558  1.2150 -0.1826
   59MOL    H4329159   6.357   3.741   6.169 -1.6897 -0.2046  1.9022
   59MOL    H4429160   6.398   3.636   6.296 -1.2589 -0.2626 -0.8637
   59MOL    H4529161   6.574   3.786   6.382  0.1891 -0.9139 -0.2076
   59MOL    H4629162   6.552   3.899   6.263  1.3135 -1.0343 -0.8087
   59MOL    H4729163   6.295   3.932   6.312  1.0547 -2.4823 -2.0911
   59MOL    H4829164   6.325   3.838   6.454  1.2314 -2.1157 -0.2178
   59MOL    H4929165   6.500   4.003   6.516 -1.6688 -2.9390  0.7614
   59MOL    H5029166   6.461   4.094   6.373  1.5152 -1.2492 -0.3233
   59MOL    H5129167   6.341   4.068   6.504  1.2000  0.3201  1.0454
   59MOL    C5229168   6.261   3.606   5.835 -0.4741  0.4239 -0.5516
   59MOL    C5329169   6.182   3.539   5.948  0.7839  0.4125  0.3777
   59MOL    O5429170   6.056   3.608   5.963  0.2377 -0.0278 -0.2288
   59MOL    C5529171   6.065   3.733   6.016 -0.2637  0.7395 -0.2732
   59MOL    C5629172   5.950   3.745   6.124  0.7234 -0.3787 -0.2106
   59MOL    C5729173   5.986   3.667   6.256  0.0421  0.7454  0.3553
   59MOL    C5829174   5.884   3.652   6.370 -0.4185 -0.1692 -0.9021
   59MOL    C5929175   5.802   3.519   6.361 -0.7862  0.0022  0.0110
   59MOL    C6029176   5.677   3.524   6.452 -0.6572  0.2502  0.3528
   59MOL    H6129177   6.208   3.576   5.744 -1.9234  1.9021 -0.2292
   59MOL    H6229178   6.256   3.715   5.839 -1.2331  0.4214 -1.3770
   59MOL    H6329179   6.245   3.551   6.037  0.4300  1.2475  0.5217
   59MOL    H6429180   6.060   3.803   5.933 -0.3561 -0.3673 -1.2203
   59MOL    H6529181   6.154   3.751   6.077 -0.4938  0.4091  0.1691
   59MOL    H6629182   5.853   3.706   6.092 -0.2311 -0.5423  2.7129
   59MOL    H6729183   5.929   3.849   6.147 -2.8728 -1.3416  1.3097
   59MOL    H6829184   6.001   3.562   6.228  1.9873  1.5952 -1.9306
   59MOL    H6929185   6.081   3.699   6.297  1.2753 -0.4280 -1.5195
   59MOL    H7029186   5.937   3.643   6.464 -1.4896  0.6435 -0.2112
   59MOL    H7129187   5.814   3.736   6.375 -2.2602 -1.6393 -1.1112
   59MOL    H7229188   5.777   3.495   6.257 -0.3919 -0.0821 -0.0654
   59MOL    H7329189   5.860   3.432   6.390 -2.5745 -1.0876  0.3496
   59MOL    H7429190   5.616   3.436   6.432  0.8808 -0.3655 -1.9194
   59MOL    H7529191   5.715   3.529   6.554 -0.7367 -0.4644  0.4187
   59MOL    H7629192   5.618   3.614   6.440  0.6098  0.9410 -0.9502
   59MOL    C7729193   6.155   3.385   5.921 -0.1845 -0.1689  0.7208
   59MOL    C7829194   6.116   3.302   6.045  0.2724 -0.5487  0.1574
   59MOL    O7929195   6.221   3.313   6.140  0.2349  0.0067  0.0366
   59MOL    C8029196   6.182   3.280   6.276 -0.0943  0.0592  0.1274
   59MOL    C8129197   6.298   3.318   6.366  0.7004  0.0615  0.1963
   59MOL    C8229198   6.426   3.235   6.332 -0.4537 -0.0079 -0.6636
   59MOL    C8329199   6.562   3.281   6.391  1.0943 -0.0356  1.1288
   59MOL    C8429200   6.688   3.222   6.333  0.2611 -0.6375  0.0916
   59MOL    C8529201   6.819   3.287   6.379 -0.6074 -0.1742 -0.2650
   59MOL    H8629202   6.241   3.336   5.875 -1.6696  0.2897 -2.7246
   59MOL    H8729203   6.078   3.370   5.844  2.3872 -2.0313 -1.5878
   59MOL    H8829204   6.028   3.352   6.086  1.8709  2.3791  0.1772
   59MOL    H8929205   6.162   3.176   6.302 -0.2166  0.2274  0.7206
   59MOL    H9029206   6.099   3.340   6.312  1.5920  1.9135  1.0030
   59MOL    H9129207   6.270   3.312   6.471 -1.8151 -0.2609 -0.4762
   59MOL    H9229208   6.320   3.424   6.358  1.6051 -0.0680  0.8402
   59MOL    H9329209   6.396   3.134   6.360 -2.8268  1.3122  1.7672
   59MOL    H9429210   6.442   3.222   6.225  3.3535 -1.7696 -0.0010
   59MOL    H9529211   6.570   3.388   6.371  2.0843 -0.1532  0.8725
   59MOL    H9629212   6.565   3.268   6.499  0.0454  1.4604  1.3650
   59MOL    H9729213   6.692   3.113   6.345 -2.6279 -0.7342  0.3399
   59MOL    H9829214   6.687   3.230   6.224 -0.4371  0.1796  0.1574
   59MOL    H9929215   6.900   3.238   6.325 -0.3903 -2.1318  1.7772
   59MOL   H10029216   6.809   3.394   6.357  0.5999  0.0625  0.3366
   59MOL   H10129217   6.823   3.267   6.486 -1.8993 -1.8685 -0.5042
   59MOL   C10229218   6.077   3.158   6.015 -0.2816 -0.6665  0.1549
   59MOL   C10329219   5.963   3.128   5.909 -0.0535 -0.4121  0.0296
   59MOL   O10429220   5.959   2.988   5.914  0.5783 -0.1152 -0.3075
   59MOL   C10529221   6.008   2.916   5.803 -0.1764  0.1716  0.3917
   59MOL   C10629222   6.009   2.770   5.849 -0.0445  0.0330 -0.8296
   59MOL   C10729223   6.033   2.663   5.741 -0.2966 -0.6188  0.1943
   59MOL   C10829224   6.041   2.521   5.793 -0.3421 -0.5668  0.0502
   59MOL   C10929225   6.045   2.433   5.671  0.5915  0.1280  0.2688
   59MOL   C11029226   6.012   2.285   5.701  0.7255  0.1537  0.6574
   59MOL   H11129227   6.163   3.099   5.984  0.3144  0.0761  0.3689
   59MOL   H11229228   6.040   3.119   6.110  1.2154 -0.8074  0.6887
   59MOL   H11329229   5.987   3.163   5.809  1.4087 -0.5513  0.3243
   59MOL   H11429230   6.105   2.947   5.764 -1.2558  1.7573 -1.0572
   59MOL   H11529231   5.936   2.920   5.722 -1.0191 -2.6395  0.9286
   59MOL   H11629232   5.920   2.745   5.906  0.2555  0.5188 -0.1394
   59MOL   H11729233   6.095   2.760   5.915  0.3352 -1.8282 -1.5709
   59MOL   H11829234   5.960   2.676   5.661  3.0212 -0.7243 -2.9462
   59MOL   H11929235   6.114   2.705   5.682 -0.7561 -0.0915 -0.0625
   59MOL   H12029236   6.131   2.507   5.852  0.6831 -0.4095 -1.4437
   59MOL   H12129237   5.955   2.500   5.856  0.4279 -0.9233  0.9924
   59MOL   H12229238   5.973   2.463   5.595  0.2106  1.3058  1.0715
   59MOL   H12329239   6.142   2.442   5.623  0.5652 -0.5339  0.0962
   59MOL   H12429240   6.078   2.256   5.783  0.7466  1.0015  0.9456
   59MOL   H12529241   5.907   2.260   5.719  0.8499 -0.3808  0.6638
   59MOL   H12629242   6.041   2.225   5.614  1.3427  2.4880 -0.7746
   59MOL   C12729243   5.823   3.184   5.951  0.4790  0.1381  0.0123
   59MOL   C12829244   5.700   3.128   5.873  0.1368 -0.4283  0.3211
   59MOL   O12929245   5.698   3.170   5.739  0.1981 -0.2568  0.3855
   59MOL   C13029246   5.656   3.074   5.640  0.6263 -0.7745  0.7595
   59MOL   C13129247   5.679   3.134   5.498 -0.3404  0.1753 -0.4666
   59MOL   C13229248   5.645   3.038   5.385 -0.9618  0.3644  0.6096
   59MOL   C13329249   5.653   3.119   5.254  0.4686  0.3187  0.0691
   59MOL   C13429250   5.640   3.029   5.132 -0.3923  0.1516  0.1467
   59MOL   C13529251   5.561   3.101   5.024  0.2223 -0.1641  1.1213
   59MOL   H13629252   5.806   3.157   6.055 -0.1184 -0.0343 -0.1271
   59MOL   H13729253   5.817   3.293   5.956 -0.5603 -0.0135  3.1020
   59MOL   H13829254   5.693   3.020   5.883  1.7972 -0.7573 -1.7248
   59MOL   H13929255   5.548   3.060   5.652  0.2708  0.7432 -0.5032
   59MOL   H14029256   5.710   2.981   5.659  1.5324 -0.4340 -0.1244
   59MOL   H14129257   5.784   3.160   5.490  0.5281 -1.7382  3.3553
   59MOL   H14229258   5.627   3.229   5.489  0.9239  0.7486 -1.7955
   59MOL   H14329259   5.723   2.962   5.393 -2.3334 -1.0670  0.7891
   59MOL   H14429260   5.545   2.996   5.403 -1.2018  1.0470  0.8790
   59MOL   H14529261   5.574   3.194   5.251 -0.1430 -0.3425 -0.8178
   59MOL   H14629262   5.747   3.172   5.260  0.4890  0.2030  0.8136
   59MOL   H14729263   5.736   2.993   5.095 -0.9397 -1.4682  0.2887
   59MOL   H14829264   5.580   2.942   5.158  1.3175 -1.1147 -0.0227
   59MOL   H14929265   5.616   3.184   4.979 -1.1237  0.3141  0.3294
   59MOL   H15029266   5.532   3.025   4.951 -0.8710 -0.1142  1.4931
   59MOL   H15129267   5.472   3.154   5.059 -0.9570 -1.9873  0.9608
   59MOL   C15229268   5.568   3.188   5.940 -0.1112 -0.4170 -0.3201
   59MOL   C15329269   5.524   3.135   6.077  0.3245  0.1512 -0.1208
   59MOL   O15429270   5.418   3.225   6.129  0.0078 -0.1654  0.2398
   59MOL   C15529271   5.428   3.261   6.266 -0.0096 -0.0326 -0.3148
   59MOL   C15629272   5.303   3.336   6.310  0.4902  0.6551 -0.1123
   59MOL   C15729273   5.268   3.459   6.213 -0.3048  0.4968  0.0713
   59MOL   C15829274   5.143   3.541   6.253  0.0991  0.3204 -0.4394
   59MOL   C15929275   5.100   3.655   6.159 -0.0640  0.3741 -0.2594
   59MOL   C16029276   5.171   3.787   6.203 -0.2949  0.1585  1.2079
   59MOL   H16129277   5.575   3.297   5.944  2.7612 -0.5902 -0.0384
   59MOL   H16229278   5.477   3.173   5.881 -0.8838  0.5508  0.5981
   59MOL   H16329279   5.604   3.144   6.150  1.1450  1.2339 -1.1395
   59MOL   H16429280   5.511   3.331   6.275  1.8366 -2.3603  1.2188
   59MOL   H16529281   5.450   3.176   6.330  1.6343 -0.4251 -1.3583
   59MOL   H16629282   5.323   3.383   6.406 -0.0845  0.7678 -0.0439
   59MOL   H16729283   5.222   3.263   6.319 -0.0630  1.0673 -1.6592
   59MOL   H16829284   5.351   3.529   6.220 -1.8975  2.7793 -2.6419
   59MOL   H16929285   5.256   3.432   6.108 -2.8077  1.7182  0.0014
   59MOL   H17029286   5.060   3.472   6.239  0.1839  0.3993 -1.3338
   59MOL   H17129287   5.139   3.564   6.360  0.0893 -2.1739  0.1477
   59MOL   H17229288   5.124   3.628   6.056 -1.6143  0.0546 -0.5562
   59MOL   H17329289   4.991   3.663   6.161 -0.1079 -0.0025 -0.9815
   59MOL   H17429290   5.271   3.751   6.226  0.1428  0.3801 -0.2680
   59MOL   H17529291   5.179   3.861   6.123  1.6463  0.9216  2.0875
   59MOL   H17629292   5.138   3.845   6.288 -2.6211  0.8758 -0.1340
   59MOL   C17729293   5.468   2.987   6.082 -0.2069  0.3999 -0.5703
   59MOL   C17829294   5.561   2.884   6.149 -0.7517 -0.2366 -0.7416
   59MOL   O17929295   5.587   2.933   6.281  0.2575 -0.7176  0.1244
   59MOL   C18029296   5.726   2.944   6.314  0.6382 -0.5775  0.2035
   59MOL   C18129297   5.732   3.037   6.437 -0.1838  0.2502  0.3609
   59MOL   C18229298   5.876   3.054   6.497 -1.0016  0.3092  0.4811
   59MOL   C18329299   5.863   3.114   6.641  1.2035  0.2423  0.0410
   59MOL   C18429300   6.001   3.142   6.709 -0.9112 -0.1007 -0.0194
   59MOL   C18529301   5.982   3.206   6.845  0.6664 -0.0297 -0.8428
   59MOL   H18629302   5.392   2.984   6.160 -0.2233 -0.0851 -0.6046
   59MOL   H18729303   5.428   2.941   5.992  0.7097 -0.4510 -0.5454
   59MOL   H18829304   5.653   2.884   6.090 -0.0984 -1.3109  0.2574
   59MOL   H18929305   5.777   2.997   6.233 -0.7539  1.4203  0.5959
   59MOL   H19029306   5.763   2.844   6.335 -0.6779 -1.2679 -0.7125
   59MOL   H19129307   5.658   3.004   6.510 -1.1123  1.6995  0.0701
   59MOL   H19229308   5.699   3.138   6.415  1.8780  0.8158 -0.2498
   59MOL   H19329309   5.934   2.962   6.503 -0.4901  0.6470  0.7010
   59MOL   H19429310   5.934   3.123   6.436  0.1301  1.2414  2.5771
   59MOL   H19529311   5.807   3.205   6.621  0.6905 -0.0089  0.3231
   59MOL   H19629312   5.799   3.050   6.702 -1.2056  2.0668 -0.4973
   59MOL   H19729313   6.045   3.043   6.719 -2.1262 -0.6686 -0.2113
   59MOL   H19829314   6.068   3.206   6.653  0.8392  0.0447  2.1710
   59MOL   H19929315   6.077   3.253   6.870  0.5642 -0.0012 -0.5104
   59MOL   H20029316   5.898   3.273   6.859  2.4132  1.8024  1.3075
   59MOL   H20129317   5.971   3.127   6.920  0.3528  0.2791 -0.5641
   59MOL   C20229318   5.497   2.747   6.146  0.4969 -0.2864 -0.2733
   59MOL   C20329319   5.595   2.635   6.172 -0.0867 -0.2251 -0.0422
   59MOL   O20429320   5.560   2.533   6.086 -0.3094 -0.0610  0.7194
   59MOL   C20529321   5.658   2.517   5.977 -0.3895 -0.5640 -0.9319
   59MOL   C20629322   5.595   2.408   5.884  0.4374 -0.0845  0.0024
   59MOL   C20729323   5.460   2.443   5.825  0.3808  0.3311 -0.3405
   59MOL   C20829324   5.427   2.331   5.721 -0.2641  0.2499 -0.5228
   59MOL   C20929325   5.288   2.337   5.658 -0.3495 -0.0990 -0.2254
   59MOL   C21029326   5.160   2.331   5.749 -0.4485  0.3026  0.0429
   59MOL   H21129327   5.417   2.748   6.220 -0.1709 -0.5196 -0.9834
   59MOL   H21229328   5.453   2.740   6.047  0.9528  0.5668 -0.5367
   59MOL   H21329329   5.694   2.675   6.151 -0.2870 -1.0164 -2.7469
   59MOL   H21429330   5.746   2.480   6.030  0.8323  3.5131  0.0516
   59MOL   H21529331   5.682   2.608   5.923  1.8339  0.3484  1.4985
   59MOL   H21629332   5.588   2.324   5.953  1.2181 -1.8113 -1.9894
   59MOL   H21729333   5.667   2.386   5.805  0.5165  0.8114 -0.1808
   59MOL   H21829334   5.385   2.439   5.904  0.8560  1.0646  0.1531
   59MOL   H21929335   5.463   2.543   5.782 -0.4542  0.5023 -0.0173
   59MOL   H22029336   5.506   2.340   5.646  0.5002  3.1144  0.5563
   59MOL   H22129337   5.443   2.233   5.765 -2.2836 -0.5922 -1.6094
   59MOL   H22229338   5.286   2.431   5.604 -1.9467  0.4932  0.8176
   59MOL   H22329339   5.278   2.258   5.584 -2.0671  0.4091 -0.5691
   59MOL   H22429340   5.070   2.330   5.687 -2.3172  2.0223  2.6100
   59MOL   H22529341   5.175   2.233   5.795 -2.1967 -0.3805 -0.8064
   59MOL   H22629342   5.159   2.411   5.823 -1.7974  0.2022  0.1551
   59MOL   C22729343   5.602   2.595   6.322  0.4162  0.0870  0.8583
   59MOL   C22829344   5.729   2.507   6.355  0.4339  0.3961  0.6360
   59MOL   O22929345   5.732   2.503   6.493 -0.0414  0.1437 -0.1894
   59MOL   C23029346   5.800   2.606   6.557  0.4021  0.6046  0.2661
   59MOL   C23129347   5.837   2.566   6.703 -1.1107 -0.3993  0.4432
   59MOL   C23229348   5.911   2.681   6.775 -0.3300 -1.2059  0.4044
   59MOL   C23329349   5.958   2.639   6.909  0.1532  0.0816 -0.2196
   59MOL   C23429350   6.004   2.757   7.001 -0.1144  0.1312  0.2109
   59MOL   C23529351   6.149   2.795   6.953  0.0327  0.0104  0.2169
   59MOL   H23629352   5.599   2.691   6.374 -1.1555  1.0637 -0.9259
   59MOL   H23729353   5.518   2.535   6.357  0.4826  0.9133  2.4513
   59MOL   H23829354   5.824   2.542   6.315  0.3296  0.0905  0.1216
   59MOL   H23929355   5.736   2.694   6.551  0.7218  0.7750 -0.6710
   59MOL   H24029356   5.888   2.634   6.499  1.3295 -0.9103  0.9256
   59MOL   H24129357   5.890   2.471   6.700 -0.2320  0.0992 -0.3472
   59MOL   H24229358   5.746   2.548   6.759 -1.3225 -1.8295 -0.3506
   59MOL   H24329359   5.995   2.722   6.720 -1.9110  0.8726 -0.5435
   59MOL   H24429360   5.834   2.759   6.780  0.6240 -0.3246  1.7570
   59MOL   H24529361   5.873   2.590   6.956 -0.8441  0.2996 -1.7609
   59MOL   H24629362   6.033   2.559   6.906 -1.6908 -1.7054  0.2317
   59MOL   H24729363   5.938   2.844   6.993 -2.7932 -1.9248 -1.0005
   59MOL   H24829364   6.010   2.735   7.108 -2.1151  1.5232  0.6369
   59MOL   H24929365   6.209   2.705   6.942 -0.9939 -1.0093  2.6581
   59MOL   H25029366   6.158   2.857   6.863 -1.4186 -0.7199 -0.4607
   59MOL   H25129367   6.202   2.854   7.027 -0.1104 -0.1249  0.4249
   59MOL   C25229368   5.707   2.352   6.312 -0.1455  0.2177 -0.0596
   59MOL   C25329369   5.830   2.260   6.321 -0.2480 -0.2391 -0.3670
   59MOL   O25429370   5.909   2.283   6.210  0.0562  0.0347  0.3452
   59MOL   C25529371   6.045   2.286   6.240  0.2596  0.5106  0.0975
   59MOL   C25629372   6.113   2.335   6.114 -0.4578 -0.1716 -0.3913
   59MOL   C25729373   6.266   2.327   6.125 -0.0558 -0.1551 -0.3583
   59MOL   C25829374   6.340   2.370   5.999 -0.0411 -0.2026 -0.1998
   59MOL   C25929375   6.494   2.376   6.017 -0.4218  0.3320 -0.5494
   59MOL   C26029376   6.547   2.494   6.104 -0.7495 -0.0899 -0.1568
   59MOL   H26129377   5.626   2.323   6.378 -0.7539  2.5467  0.2547
   59MOL   H26229378   5.671   2.338   6.210 -1.1255 -0.5720  0.3969
   59MOL   H26329379   5.885   2.270   6.415  0.2344 -0.0653 -0.6632
   59MOL   H26429380   6.079   2.187   6.273 -0.0093  0.8584  1.4485
   59MOL   H26529381   6.064   2.361   6.316  0.2423  2.3452 -1.6755
   59MOL   H26629382   6.082   2.435   6.085  1.0724  0.6552  0.7099
   59MOL   H26729383   6.078   2.275   6.030 -0.0563 -0.1366 -0.5882
   59MOL   H26829384   6.297   2.402   6.199  0.6605  0.0684 -0.8809
   59MOL   H26929385   6.284   2.221   6.143 -0.3598  0.0395  1.1644
   59MOL   H27029386   6.315   2.303   5.916  0.5599 -0.7469  0.0590
   59MOL   H27129387   6.313   2.473   5.973 -0.6527  0.2313  2.0266
   59MOL   H27229388   6.532   2.295   6.078  0.2350  0.8417 -0.2839
   59MOL   H27329389   6.547   2.376   5.921 -0.1820  1.4825 -0.4290
   59MOL   H27429390   6.528   2.479   6.210 -1.6925 -0.8403 -0.4253
   59MOL   H27529391   6.656   2.497   6.103 -0.6909 -1.1730  1.2989
   59MOL   H27629392   6.507   2.589   6.070  1.0583  0.2866 -1.3419
   59MOL   C27729393   5.784   2.107   6.303 -0.5491 -0.7719  0.3916
   59MOL   C27829394   5.733   2.035   6.430  0.0530  0.0077 -0.8872
   59MOL   O27929395   5.605   2.086   6.463 -0.5025  0.4067 -0.6891
   59MOL   C28029396   5.578   2.079   6.606 -0.7268 -0.0459 -0.9651
   59MOL   C28129397   5.526   2.217   6.650  0.1935 -0.3046 -0.2946
   59MOL   C28229398   5.501   2.220   6.808 -0.2225 -0.3712 -0.0654
   59MOL   C28329399   5.479   2.369   6.845 -0.5076 -0.5360 -0.4089
   59MOL   C28429400   5.461   2.383   6.999  0.3488  0.2079  0.3555
   59MOL   C28529401   5.398   2.515   7.047 -0.5787 -0.4621  0.3548
   59MOL   H28629402   5.709   2.110   6.223 -0.3796 -3.9713  0.0476
   59MOL   H28729403   5.861   2.040   6.266 -0.6699 -0.1196 -1.0901
   59MOL   H28829404   5.804   2.057   6.511 -0.3320 -0.1879 -0.4943
   59MOL   H28929405   5.661   2.036   6.662 -0.4456  0.3154 -1.1059
   59MOL   H29029406   5.501   2.002   6.614 -0.7750 -0.0085 -1.0671
   59MOL   H29129407   5.441   2.252   6.591 -0.2837  0.8444  1.0335
   59MOL   H29229408   5.608   2.285   6.626 -0.6324 -0.2395 -3.1401
   59MOL   H29329409   5.413   2.162   6.834 -0.8175  0.3026 -0.5582
   59MOL   H29429410   5.593   2.180   6.850  0.8479  1.3096 -0.7479
   59MOL   H29529411   5.557   2.435   6.807  0.0726 -0.8383  0.2315
   59MOL   H29629412   5.380   2.391   6.806  0.4838  0.7279 -2.2671
   59MOL   H29729413   5.399   2.305   7.043 -1.2717  1.5829  0.5629
   59MOL   H29829414   5.559   2.360   7.042  0.5491 -0.7006 -0.5682
   59MOL   H29929415   5.402   2.530   7.154  0.2738 -0.3114  0.3074
   59MOL   H30029416   5.439   2.595   6.986  1.3342 -2.4338 -1.0118
   59MOL   H30129417   5.292   2.509   7.019 -0.3076 -0.6644 -0.6736
   59MOL   C30229418   5.704   1.882   6.402  0.3565 -0.1304  0.2329
   59MOL   C30329419   5.819   1.784   6.374 -0.2360  0.1469 -0.1944
   59MOL   O30429420   5.766   1.657   6.379  0.3102  0.0984  0.2909
   59MOL   C30529421   5.709   1.607   6.259 -0.6793  0.7234  0.4027
   59MOL   C30629422   5.678   1.458   6.282 -0.1738 -0.1994  0.0944
   59MOL   C30729423   5.793   1.377   6.349  0.2371 -0.0567 -0.6699
   59MOL   C30829424   5.758   1.228   6.365 -1.0969  0.3182  0.1967
   59MOL   C30929425   5.756   1.148   6.231  0.0175 -0.0779  0.3183
   59MOL   C31029426   5.696   1.004   6.247  0.3618  0.2515  0.5830
   59MOL   H31129427   5.653   1.853   6.494 -1.0698  2.0347  0.1478
   59MOL   H31229428   5.627   1.875   6.326 -0.5329 -3.4161  1.3571
   59MOL   H31329429   5.870   1.809   6.281 -0.2523 -0.0623 -0.2585
   59MOL   H31429430   5.781   1.601   6.178 -1.4590 -2.0160 -0.1258
   59MOL   H31529431   5.629   1.672   6.224 -0.8993  0.0718 -0.3043
   59MOL   H31629432   5.643   1.410   6.190 -1.1854  2.5468 -0.9901
   59MOL   H31729433   5.595   1.457   6.353  0.2490 -0.3549  0.5877
   59MOL   H31829434   5.894   1.381   6.308  0.4742  0.1083 -0.0675
   59MOL   H31929435   5.806   1.428   6.444  0.9148  1.0202 -1.3365
   59MOL   H32029436   5.830   1.175   6.429  0.4748  1.4074 -0.6326
   59MOL   H32129437   5.663   1.212   6.415 -1.6689 -2.2967 -1.6369
   59MOL   H32229438   5.691   1.198   6.159 -0.7408 -1.0592  0.3132
   59MOL   H32329439   5.858   1.153   6.194 -0.8532  3.0745 -1.8242
   59MOL   H32429440   5.589   0.996   6.266  0.3386 -2.5308 -0.5067
   59MOL   H32529441   5.731   0.955   6.156  0.6334 -3.7459  2.7409
   59MOL   H32629442   5.747   0.967   6.336  0.7390  1.5127  0.9045
   59MOL   C32729443   5.932   1.790   6.477 -0.3942  0.5785 -0.1470
   59MOL   C32829444   6.062   1.721   6.412  0.4706  0.1505 -0.5956
   59MOL   O32929445   6.107   1.815   6.329 -0.0268 -0.7940  0.1862
   59MOL   C33029446   6.206   1.795   6.232  0.2272  0.2717  0.6709
   59MOL   C33129447   6.196   1.899   6.121 -0.3950 -0.3959 -0.2712
   59MOL   C33229448   6.273   1.863   5.989  0.0958  0.2107  0.2706
   59MOL   C33329449   6.248   1.977   5.887 -0.0730  0.4646 -0.1572
   59MOL   C33429450   6.319   1.949   5.752 -0.2250  0.2247 -0.3014
   59MOL   C33529451   6.280   2.048   5.645 -0.8986 -0.6312 -0.3808
   59MOL   H33629452   5.903   1.747   6.573  3.1115 -0.0933  0.6712
   59MOL   H33729453   5.961   1.891   6.503  2.0185 -1.0552  3.9006
   59MOL   H33829454   6.040   1.641   6.341 -1.7959  0.3926 -0.1998
   59MOL   H33929455   6.187   1.699   6.185 -1.0059  0.8785 -0.0774
   59MOL   H34029456   6.302   1.789   6.285  0.5158 -0.8552  0.0459
   59MOL   H34129457   6.232   1.993   6.165 -1.2548 -0.1498 -0.0835
   59MOL   H34229458   6.091   1.925   6.106  0.1430  2.0318 -0.0305
   59MOL   H34329459   6.381   1.872   6.000 -0.1161  1.5960  1.4055
   59MOL   H34429460   6.237   1.767   5.953  1.9047 -1.4453  2.7296
   59MOL   H34529461   6.139   1.975   5.873 -0.3101 -4.2436  1.2408
   59MOL   H34629462   6.270   2.078   5.919  1.0129  0.4827 -0.9467
   59MOL   H34729463   6.426   1.948   5.770 -0.3160 -3.8535  0.5481
   59MOL   H34829464   6.295   1.850   5.712  0.4241  0.6906 -1.8681
   59MOL   H34929465   6.171   2.042   5.637 -0.9535 -2.2668  1.1715
   59MOL   H35029466   6.310   2.150   5.670 -1.1974 -0.5628 -0.3016
   59MOL   H35129467   6.318   2.017   5.547  1.7997  0.7539  0.1818
   59MOL   C35229468   6.167   1.703   6.518 -0.1385  0.3089  0.0777
   59MOL   C35329469   6.142   1.585   6.615 -0.0282  0.2490 -0.1047
   59MOL   O35429470   6.249   1.565   6.709  0.1676 -0.2382  0.1598
   59MOL   C35529471   6.238   1.638   6.830 -0.1831  0.5081  0.4741
   59MOL   C35629472   6.362   1.594   6.917 -0.1836  0.3134 -0.4718
   59MOL   C35729473   6.359   1.662   7.056 -0.0150  0.0434 -0.5555
   59MOL   C35829474   6.483   1.631   7.133 -0.3296 -0.0730 -0.2350
   59MOL   C35929475   6.483   1.701   7.275  0.0073 -0.6905  0.6298
   59MOL   C36029476   6.360   1.644   7.350 -0.1357 -0.3881  0.2046
   59MOL   H36129477   6.260   1.673   6.470 -0.1246  2.0191 -1.0316
   59MOL   H36229478   6.186   1.791   6.580 -0.2626 -1.1695  2.2756
   59MOL   H36329479   6.053   1.607   6.673  1.1717  1.4352  1.3329
   59MOL   H36429480   6.146   1.613   6.882 -1.5494 -1.4640 -2.7624
   59MOL   H36529481   6.251   1.746   6.820 -0.3143  0.3924 -0.9604
   59MOL   H36629482   6.456   1.626   6.873  0.6955  0.8554  1.7357
   59MOL   H36729483   6.357   1.486   6.927 -0.0730  0.5002  1.7345
   59MOL   H36829484   6.365   1.767   7.030  1.8850 -0.1021 -0.7421
   59MOL   H36929485   6.268   1.641   7.112  0.4526 -2.8883 -0.7923
   59MOL   H37029486   6.492   1.524   7.147 -0.1280 -0.1001 -0.5598
   59MOL   H37129487   6.581   1.653   7.089 -0.8313  2.8094 -0.0204
   59MOL   H37229488   6.577   1.676   7.325  0.9597 -0.2603 -0.9145
   59MOL   H37329489   6.475   1.809   7.280 -0.5369 -0.7921  2.4343
   59MOL   H37429490   6.343   1.538   7.328  0.1449 -1.3300  4.1500
   59MOL   H37529491   6.376   1.657   7.457  0.1428 -1.7133  0.3320
   59MOL   H37629492   6.266   1.698   7.334 -0.1314 -0.7406 -1.0199
   59MOL   C37729493   6.112   1.453   6.547 -0.0882  0.0581  0.3985
   59MOL   C37829494   6.070   1.336   6.644 -0.2539 -0.2220  0.5914
   59MOL   O37929495   6.056   1.222   6.569 -0.4978  0.0204  0.0021
   59MOL   C38029496   6.143   1.123   6.608 -0.4039  0.0109 -0.1257
   59MOL   C38129497   6.141   0.989   6.525 -0.4592 -0.9033 -0.2144
   59MOL   C38229498   6.006   0.910   6.542 -0.4309  0.2248  0.1535
   59MOL   C38329499   5.987   0.795   6.438  0.9623 -0.0092 -0.7610
   59MOL   C38429500   5.864   0.711   6.449  0.3755  0.4621 -0.1039
   59MOL   C38529501   5.828   0.642   6.320  0.2842  0.7294  0.5575
   59MOL   H38629502   6.035   1.463   6.471 -0.6051 -1.7372  0.6651
   59MOL   H38729503   6.204   1.432   6.492 -1.7430 -1.9323 -1.7122
   59MOL   H38829504   6.144   1.328   6.724  1.5650  2.2851 -0.7599
   59MOL   H38929505   6.134   1.105   6.715 -1.1654  1.5975  0.0888
   59MOL   H39029506   6.243   1.165   6.604 -0.2410 -0.4891 -1.3834
   59MOL   H39129507   6.222   0.916   6.534  0.3445 -0.0095 -0.1301
   59MOL   H39229508   6.133   1.028   6.424  3.6249 -0.2853 -0.3936
   59MOL   H39329509   6.007   0.863   6.641 -0.8881 -1.5221 -0.6454
   59MOL   H39429510   5.920   0.976   6.536 -2.1675 -2.1331 -2.0819
   59MOL   H39529511   5.991   0.840   6.339  1.8061 -1.4880 -1.4238
   59MOL   H39629512   6.073   0.727   6.441  1.5001  0.6346 -1.2828
   59MOL   H39729513   5.874   0.644   6.534 -1.0782 -0.3830 -0.5774
   59MOL   H39829514   5.780   0.772   6.481  0.0010 -0.4612  0.6915
   59MOL   H39929515   5.814   0.710   6.236  3.4955 -0.7524 -1.2772
   59MOL   H40029516   5.917   0.585   6.295 -0.4805 -1.3037  2.3435
   59MOL   H40129517   5.745   0.573   6.335 -0.4181  1.3757 -0.2429
   59MOL   C40229518   5.926   1.338   6.717  0.6867 -0.1351 -0.0227
   59MOL   C40329519   5.921   1.276   6.861 -0.1301 -0.3379  0.1337
   59MOL   O40429520   5.782   1.271   6.899  0.2501 -0.3098 -0.5424
   59MOL   C40529521   5.711   1.148   6.871 -0.3095  0.9680  0.7209
   59MOL   C40629522   5.578   1.146   6.935  0.0738 -0.2419  0.0316
   59MOL   C40729523   5.504   1.015   6.901 -0.2427  0.9630  0.7925
   59MOL   C40829524   5.352   1.025   6.868 -0.5310 -0.8311  0.5680
   59MOL   C40929525   5.254   1.033   6.985  0.3996 -0.0249  0.3711
   59MOL   C41029526   5.114   1.074   6.937  0.2940 -0.4703 -0.1666
   59MOL   H41129527   5.857   1.287   6.649  2.6348 -1.0455 -1.3819
   59MOL   H41229528   5.899   1.444   6.721  1.6742  0.2289 -2.0441
   59MOL   H41329529   5.950   1.171   6.857 -1.7134 -0.7336 -2.1275
   59MOL   H41429530   5.766   1.056   6.893 -0.1075  1.1470  0.9564
   59MOL   H41529531   5.692   1.140   6.763 -0.0225 -2.4666  0.8585
   59MOL   H41629532   5.520   1.229   6.896 -0.3590  0.3790  1.9117
   59MOL   H41729533   5.587   1.152   7.044  2.3022 -2.6745  0.0311
   59MOL   H41829534   5.537   0.972   6.807  0.6220  2.0612  0.5844
   59MOL   H41929535   5.522   0.935   6.973  0.3040 -2.1827 -2.7425
   59MOL   H42029536   5.340   1.111   6.802 -0.6913  0.1721  1.9021
   59MOL   H42129537   5.331   0.934   6.812  1.7976 -1.2889  0.3932
   59MOL   H42229538   5.251   0.948   7.054  0.9986  1.1859  1.9040
   59MOL   H42329539   5.288   1.112   7.052  0.9812 -1.1484  1.4290
   59MOL   H42429540   5.114   1.166   6.878  0.4137  1.0782  2.2090
   59MOL   H42529541   5.066   0.999   6.873 -0.2447  0.3431 -0.7340
   59MOL   H42629542   5.056   1.087   7.028 -0.2433 -0.7804 -0.4607
   59MOL   C42729543   6.011   1.340   6.969 -0.2892  0.3749 -0.1576
   59MOL   C42829544   6.022   1.268   7.102  0.0508 -0.0785 -0.3872
   59MOL   O42929545   6.100   1.146   7.085  0.0911 -0.3027 -0.4781
   59MOL   C43029546   6.049   1.025   7.127  0.4186 -0.3052  0.1108
   59MOL   C43129547   6.156   0.920   7.116  0.5816  0.0532  0.2915
   59MOL   C43229548   6.145   0.865   6.975 -0.7426 -0.4422  0.4145
   59MOL   C43329549   6.255   0.758   6.936 -0.2626 -0.0660  0.1799
   59MOL   C43429550   6.262   0.718   6.790 -0.4890 -0.0006 -0.1952
   59MOL   C43529551   6.158   0.614   6.747  0.3439  0.9061 -0.3301
   59MOL   H43629552   6.114   1.353   6.934 -0.0187  0.2998  0.6008
   59MOL   H43729553   5.967   1.438   6.990 -0.4781 -0.2583  2.5214
   59MOL   H43829554   5.918   1.252   7.131  0.2003 -1.2736 -0.4666
   59MOL   H43929555   5.962   1.003   7.065  1.1499 -1.5528 -0.4901
   59MOL   H44029556   6.015   1.028   7.230  0.8036  1.2386  0.2011
   59MOL   H44129557   6.142   0.832   7.179  0.7786  1.3470  2.2018
   59MOL   H44229558   6.254   0.954   7.149  0.9338 -0.8453  0.1753
   59MOL   H44329559   6.049   0.814   6.963 -1.0389 -0.0618  1.1416
   59MOL   H44429560   6.140   0.941   6.898 -1.2273 -0.7978  0.0950
   59MOL   H44529561   6.356   0.782   6.970  0.1318 -1.3607 -0.0357
   59MOL   H44629562   6.240   0.662   6.987  0.5344 -0.2127  0.1452
   59MOL   H44729563   6.265   0.807   6.726 -0.5739 -1.4978 -2.3344
   59MOL   H44829564   6.349   0.653   6.793 -0.3718  0.1571  5.1633
   59MOL   H44929565   6.059   0.645   6.781  0.8942  2.4932 -0.1142
   59MOL   H45029566   6.156   0.598   6.639  0.0066  0.2860 -0.2352
   59MOL   H45129567   6.193   0.523   6.795  0.3417  0.4957 -1.0929
   59MOL   C45229568   6.095   1.355   7.202 -0.0698 -0.4507  0.1698
   59MOL   C45329569   6.108   1.292   7.339  0.5042  0.0686  0.6939
   59MOL   O45429570   6.109   1.400   7.426 -0.5336 -0.6742  0.1590
   59MOL   C45529571   5.981   1.435   7.477 -0.2204 -1.0069 -0.5380
   59MOL   C45629572   5.978   1.591   7.517  0.2940  0.2578  0.2123
   59MOL   C45729573   6.083   1.627   7.626 -0.8039 -1.2675 -0.5025
   59MOL   C45829574   6.090   1.773   7.667 -0.6406 -0.0819 -0.0246
   59MOL   C45929575   6.206   1.792   7.771 -0.1003  0.5735  0.1566
   59MOL   C46029576   6.201   1.925   0.072  0.4708  0.1767 -0.4336
   59MOL   H46129577   6.187   1.386   7.154 -0.1323  1.0123  0.9680
   59MOL   H46229578   6.048   1.454   7.207  0.3669 -0.3361  2.2397
   59MOL   H46329579   6.028   1.226   7.372 -0.6831  1.4413  0.6122
   59MOL   H46429580   5.940   1.381   7.561  0.2455 -1.3479 -0.5270
   59MOL   H46529581   5.907   1.431   7.397  0.0283  4.2412 -1.2271
   59MOL   H46629582   5.875   1.618   7.542  0.2240  0.7344 -0.5950
   59MOL   H46729583   6.001   1.645   7.425  0.5856  0.4713  0.4096
   59MOL   H46829584   6.078   1.554   7.707 -1.6494 -3.0402 -2.1129
   59MOL   H46929585   6.174   1.599   7.573  1.1071  4.3273 -0.4936
   59MOL   H47029586   6.113   1.840   7.584 -0.0224  1.2056  1.1727
   59MOL   H47129587   5.995   1.802   7.712 -0.8558  1.4286 -1.3867
   59MOL   H47229588   6.193   1.711   0.066 -0.7260  1.7844  1.4124
   59MOL   H47329589   6.298   1.777   7.715  0.7367  0.9571  1.4129
   59MOL   H47429590   6.282   1.953   0.139  0.5632  0.1211 -0.5221
   59MOL   H47529591   6.205   2.000   7.770 -0.2389  0.8928  0.1966
   59MOL   H47629592   6.110   1.945   0.129  0.4288 -0.8309 -0.1411
   59MOL   C47729593   6.237   1.209   7.353  1.1433 -0.4245  0.3077
   59MOL   C47829594   6.252   1.132   7.483 -0.7864  0.0608  0.2506
   59MOL   O47929595   6.356   1.034   7.475  0.3402 -0.6558  0.3433
   59MOL   C48029596   6.351   0.940   7.575 -0.1942 -0.1555 -0.8722
   59MOL   C48129597   6.476   0.850   7.555  0.6254  0.3141 -0.6425
   59MOL   C48229598   6.490   0.794   7.418 -0.4668 -0.0372 -0.0603
   59MOL   C48329599   6.573   0.874   7.319 -0.2159 -0.0893 -0.8762
   59MOL   C48429600   6.553   0.817   7.179  0.3047 -0.1153  0.1457
   59MOL   C48529601   6.617   0.914   7.078 -0.5808  0.3781  0.2561
   59MOL   H48629602   6.240   1.138   7.270 -0.2760 -0.7571  0.5267
   59MOL   H48729603   6.325   1.270   7.334  0.0185  1.3867  0.8720
   59MOL   H48829604   6.266   1.197   7.569  2.2121 -0.0290 -0.1284
   59MOL   H48929605   6.260   0.883   7.555 -1.8959  1.4667  1.8195
   59MOL   H49029606   6.342   0.989   7.673  2.7749 -0.5331 -0.3619
   59MOL   H49129607   6.458   0.767   7.624  1.5438  2.6142  2.4557
   59MOL   H49229608   6.564   0.906   7.584 -0.4949  1.6481  0.2432
   59MOL   H49329609   6.560   0.712   7.430  1.7611  1.7099 -0.7013
   59MOL   H49429610   6.391   0.762   7.387 -0.1292 -0.4983 -0.6755
   59MOL   H49529611   6.555   0.981   7.322  2.1504  0.3116  1.4613
   59MOL   H49629612   6.677   0.870   7.353 -0.1367  0.6038 -1.0314
   59MOL   H49729613   6.610   0.723   7.178  3.2256  1.5957 -0.8176
   59MOL   H49829614   6.448   0.794   7.166  0.6078 -0.5760 -1.6441
   59MOL   H49929615   6.566   1.010   7.067 -1.3413  0.1183  1.4862
   59MOL   H50029616   6.710   0.948   7.123 -0.8571  1.6904 -0.1363
   59MOL   H50129617   6.640   0.868   6.982  1.8129  0.7784  0.5960
   59MOL   H50229618   6.159   1.075   7.495 -1.8764  1.8341  0.4611
   60MOL     C129619   4.930   6.302   4.714 -0.0590  0.2546  0.7644
   60MOL     C229620   4.944   6.278   4.564  0.2924 -0.3842  0.5168
   60MOL     O329621   5.025   6.167   4.548  0.1873 -0.7185  0.0125
   60MOL     C429622   4.969   6.034   4.546 -0.2664 -0.1029  0.0811
   60MOL     C529623   4.884   6.007   4.422 -0.1089  0.3215 -0.4905
   60MOL     C629624   4.862   5.858   4.397 -0.5951 -0.3951 -0.1595
   60MOL     C729625   4.766   5.823   4.274 -0.0564 -0.5855 -0.4786
   60MOL     C829626   4.805   5.882   4.138 -0.2569  0.6982  0.2004
   60MOL     C929627   4.930   5.816   4.072 -0.0117 -0.0404  0.2013
   60MOL    H1029628   4.863   6.387   4.726 -0.6591  0.3212 -2.4996
   60MOL    H1129629   4.880   6.214   4.754 -0.2797  0.8866  1.8911
   60MOL    H1229630   4.847   6.257   4.521 -0.5267  1.1049  1.6084
   60MOL    H1329631   4.936   5.997   4.643  1.9897  0.4566  1.1022
   60MOL    H1429632   5.049   5.962   4.529  1.7148  1.7801  1.1787
   60MOL    H1529633   4.927   6.063   4.339 -1.6127  0.7366 -1.0014
   60MOL    H1629634   4.792   6.066   4.421 -0.9945 -1.0288  0.1052
   60MOL    H1729635   4.966   5.827   4.384 -0.8651 -1.3488 -0.0525
   60MOL    H1829636   4.818   5.813   4.486  0.5045 -0.1182  0.5306
   60MOL    H1929637   4.749   5.715   4.274  1.4905 -0.8408 -0.5006
   60MOL    H2029638   4.675   5.882   4.290 -0.8023 -1.7101 -0.5259
   60MOL    H2129639   4.824   5.989   4.142  1.3281  0.4148  0.8657
   60MOL    H2229640   4.722   5.869   4.070 -0.2651 -0.9012  0.5003
   60MOL    H2329641   4.971   5.867   3.985 -1.2035  0.7210  0.0717
   60MOL    H2429642   5.019   5.804   4.134 -0.2104 -1.3037  0.2549
   60MOL    H2529643   4.910   5.712   4.045 -0.7243 -0.0834  0.8709
   60MOL    H2629644   5.030   6.316   4.757 -0.7714 -0.0984  2.5614
   60MOL    C2729645   5.008   6.401   4.491 -0.3567 -0.0375  0.1432
   60MOL    C2829646   5.019   6.385   4.339  0.3587 -0.3329 -0.1881
   60MOL    O2929647   4.885   6.394   4.288  0.4266  0.5803 -0.1382
   60MOL    C3029648   4.873   6.359   4.149  0.2007 -0.4403 -0.4916
   60MOL    C3129649   4.730   6.296   4.133  0.1150  0.7878 -0.7911
   60MOL    C3229650   4.703   6.230   4.002  0.5078  0.0264 -0.3021
   60MOL    C3329651   4.560   6.170   3.984  0.8262  0.3548  0.4481
   60MOL    C3429652   4.554   6.098   3.852  0.5924 -0.1902  0.2144
   60MOL    C3529653   4.428   6.009   3.833 -0.4836  0.0556 -1.0936
   60MOL    H3629654   4.955   6.490   4.524 -1.5361 -1.5194  2.3668
   60MOL    H3729655   5.108   6.399   4.535  0.3468  1.3088 -1.3424
   60MOL    H3829656   5.054   6.286   4.310 -3.0005 -0.6240 -3.7111
   60MOL    H3929657   4.950   6.287   4.122  0.2647 -0.1581 -1.0603
   60MOL    H4029658   4.873   6.447   4.085  0.0384 -0.0147  0.0945
   60MOL    H4129659   4.652   6.371   4.144 -0.7976 -0.2562 -0.0296
   60MOL    H4229660   4.734   6.222   4.213  2.3377 -0.6911 -2.2316
   60MOL    H4329661   4.724   6.300   3.921  0.6252  0.8238  0.4078
   60MOL    H4429662   4.779   6.153   3.988  1.3828  0.8234  0.0516
   60MOL    H4529663   4.542   6.098   4.063 -0.9744 -0.4751 -0.6919
   60MOL    H4629664   4.486   6.243   4.015 -1.1710 -0.4893 -2.2083
   60MOL    H4729665   4.543   6.174   3.774 -0.3882  0.2300  0.7547
   60MOL    H4829666   4.642   6.038   3.830  1.0257  0.6754 -0.4601
   60MOL    H4929667   4.341   6.052   3.882  0.1459  1.4183 -1.1548
   60MOL    H5029668   4.415   5.982   3.728  1.9317  0.9874 -1.6607
   60MOL    H5129669   4.445   5.921   3.895 -0.1863 -0.0042 -1.2573
   60MOL    C5229670   5.098   6.500   4.277  0.3631 -0.1197  0.3559
   60MOL    C5329671   5.244   6.524   4.326  0.1241  0.3585  0.0163
   60MOL    O5429672   5.313   6.411   4.277 -0.0452 -0.3633 -0.0083
   60MOL    C5529673   5.406   6.368   4.372 -0.7461  0.2328  0.6900
   60MOL    C5629674   5.466   6.242   4.306  0.3041 -0.2429 -0.3892
   60MOL    C5729675   5.366   6.125   4.297  0.1344 -0.0279  0.5883
   60MOL    C5829676   5.429   5.983   4.283 -0.2189  0.1015  0.3754
   60MOL    C5929677   5.432   5.899   4.411 -0.3637 -0.1914  0.0486
   60MOL    C6029678   5.300   5.878   4.487  0.1502 -0.3115 -0.9467
   60MOL    H6129679   5.036   6.590   4.279 -1.3148 -1.2199 -0.7711
   60MOL    H6229680   5.116   6.472   4.173  0.8085 -0.7622  0.6053
   60MOL    H6329681   5.236   6.532   4.434  2.0935  2.2695  0.0652
   60MOL    H6429682   5.368   6.339   4.469  1.5667 -1.7049  1.0609
   60MOL    H6529683   5.486   6.441   4.382 -0.8724  0.2112  1.9419
   60MOL    H6629684   5.549   6.214   4.371  0.7672 -1.1619 -1.3672
   60MOL    H6729685   5.506   6.268   4.207  2.0908  0.3676  0.4664
   60MOL    H6829686   5.294   6.120   4.379  0.5320 -1.7489  0.8452
   60MOL    H6929687   5.299   6.131   4.211  0.8670 -1.9413 -0.1500
   60MOL    H7029688   5.383   5.920   4.207  1.2296  0.5987 -0.9367
   60MOL    H7129689   5.527   6.016   4.249 -0.4452  1.0062  0.5844
   60MOL    H7229690   5.468   5.799   4.390  0.4649 -0.3409  2.0521
   60MOL    H7329691   5.501   5.949   4.480  0.1934 -1.7898  0.6744
   60MOL    H7429692   5.304   5.796   4.559  0.1972  1.7461  1.4815
   60MOL    H7529693   5.263   5.967   4.538  2.2696  1.2123 -1.9856
   60MOL    H7629694   5.226   5.854   4.411 -0.0594  0.0065 -0.8466
   60MOL    C7729695   5.311   6.652   4.269 -0.4982 -0.3018 -0.0169
   60MOL    C7829696   5.287   6.774   4.351 -0.6685  0.1065 -0.1480
   60MOL    O7929697   5.144   6.794   4.361  0.5834  0.3597 -0.2347
   60MOL    C8029698   5.106   6.850   4.489 -0.3708 -0.1762  0.6955
   60MOL    C8129699   4.947   6.835   4.492 -0.0761  0.0077  0.0113
   60MOL    C8229700   4.887   6.889   4.618  0.0541 -0.0177 -0.6393
   60MOL    C8329701   4.737   6.882   4.616 -0.5676 -0.1335 -0.4442
   60MOL    C8429702   4.658   6.944   4.727  0.1948  0.0630 -0.0582
   60MOL    C8529703   4.508   6.971   4.690 -0.7544 -0.5116  0.0294
   60MOL    H8629704   5.283   6.681   4.168  1.0480  2.6273  0.3122
   60MOL    H8729705   5.420   6.644   4.263 -0.0055  3.1774  2.3327
   60MOL    H8829706   5.323   6.752   4.452 -2.2021  1.3595  0.7070
   60MOL    H8929707   5.136   6.954   4.498  0.9723 -0.5784  0.9485
   60MOL    H9029708   5.155   6.802   4.573  1.4601  0.7480  0.1812
   60MOL    H9129709   4.926   6.728   4.482  0.2475 -0.1103  0.5909
   60MOL    H9229710   4.899   6.892   4.412 -0.9757 -2.8315 -1.5646
   60MOL    H9329711   4.922   6.833   4.705  2.7514  1.0869 -0.9624
   60MOL    H9429712   4.911   6.995   4.626 -2.4427  0.7320 -2.5716
   60MOL    H9529713   4.707   6.919   4.518  1.8196 -1.2835 -1.6517
   60MOL    H9629714   4.704   6.779   4.609 -2.6199  0.3894  1.0610
   60MOL    H9729715   4.662   6.881   4.815 -0.2268 -1.7269 -1.3090
   60MOL    H9829716   4.704   7.038   4.760 -2.1128  1.0616  0.4391
   60MOL    H9929717   4.507   7.032   4.600 -0.7398 -2.5693 -1.4009
   60MOL   H10029718   4.478   6.867   4.678  0.9169 -0.9769 -0.3263
   60MOL   H10129719   4.461   7.022   4.774 -0.2887 -1.4303  0.8651
   60MOL   C10229720   5.346   6.896   4.284  0.0838 -0.1653 -0.1868
   60MOL   C10329721   5.497   6.912   4.247  0.2196  0.6358 -0.6913
   60MOL   O10429722   5.499   7.013   4.148 -0.1250 -0.7091 -0.4074
   60MOL   C10529723   5.516   6.963   4.015  0.1282  0.2507  0.4950
   60MOL   C10629724   5.471   7.077   3.921 -0.5017 -0.3342  0.4418
   60MOL   C10729725   5.328   7.134   3.943  0.8620 -0.2827  0.5751
   60MOL   C10829726   5.296   7.272   3.887 -0.0133  0.8546 -0.1141
   60MOL   C10929727   5.156   7.328   3.916 -0.3357 -0.0838  0.8027
   60MOL   C11029728   5.146   7.477   3.874 -0.7548  0.7808 -0.1819
   60MOL   H11129729   5.277   6.925   4.205 -1.3413  1.3651  1.5696
   60MOL   H11229730   5.321   6.984   4.344  0.5086 -0.0601 -0.1611
   60MOL   H11329731   5.535   6.817   4.208  0.4684 -0.5238  2.2016
   60MOL   H11429732   5.442   6.883   4.008  1.8156 -1.2417 -0.6216
   60MOL   H11529733   5.607   6.906   3.997 -0.5210 -0.2044 -1.4998
   60MOL   H11629734   5.497   7.060   3.816 -1.0127  0.8311  0.1216
   60MOL   H11729735   5.533   7.164   3.945  1.3173 -1.4556 -0.0255
   60MOL   H11829736   5.249   7.067   3.909  0.4666  1.2041 -1.5460
   60MOL   H11929737   5.315   7.147   4.050 -0.3469 -1.7059  0.6075
   60MOL   H12029738   5.366   7.352   3.913 -0.2188  0.6149  1.2159
   60MOL   H12129739   5.305   7.263   3.779 -1.1831 -0.6740 -0.1023
   60MOL   H12229740   5.090   7.259   3.864  1.1930 -0.9972  0.0121
   60MOL   H12329741   5.116   7.313   4.016  0.6270  0.8314  1.3341
   60MOL   H12429742   5.043   7.513   3.876 -1.3323 -0.6587 -1.9860
   60MOL   H12529743   5.208   7.539   3.938 -0.0204 -2.4151  2.3150
   60MOL   H12629744   5.183   7.478   3.771  1.5255 -1.3729  0.5904
   60MOL   C12729745   5.590   6.966   4.359  0.9398 -0.4850 -0.3323
   60MOL   C12829746   5.579   6.897   4.494 -0.4262 -0.3647  0.2132
   60MOL   O12929747   5.656   6.975   4.592  0.5877  0.3780 -0.4537
   60MOL   C13029748   5.577   7.056   4.677 -0.0116 -0.2976  0.1463
   60MOL   C13129749   5.647   7.050   4.814 -0.2326 -0.1347  0.2061
   60MOL   C13229750   5.780   7.118   4.824  1.0653  0.5308 -0.4634
   60MOL   C13329751   5.868   7.079   4.939  0.3982 -0.4165 -0.4131
   60MOL   C13429752   5.967   6.968   4.902  0.1433 -0.4663 -0.2255
   60MOL   C13529753   6.026   6.910   5.031 -0.1111 -0.1937 -0.5914
   60MOL   H13629754   5.697   6.965   4.337  1.2550 -1.6625  1.1463
   60MOL   H13729755   5.578   7.073   4.377  0.7138 -0.5047 -0.3743
   60MOL   H13829756   5.481   6.881   4.538  0.0190  0.2613  1.4576
   60MOL   H13929757   5.471   7.030   4.670 -0.1717  0.7385 -1.4406
   60MOL   H14029758   5.578   7.160   4.645  0.3675  0.4002  2.3475
   60MOL   H14129759   5.653   6.946   4.845  4.8385  0.3697  1.3904
   60MOL   H14229760   5.588   7.100   4.890 -1.7596 -0.6136 -0.6488
   60MOL   H14329761   5.834   7.100   4.731 -0.2209 -1.8248 -0.7919
   60MOL   H14429762   5.779   7.227   4.823  3.8117  0.6030  0.1870
   60MOL   H14529763   5.928   7.163   4.973  0.2260 -0.1555 -0.7558
   60MOL   H14629764   5.812   7.049   5.028  0.4969 -1.4770 -0.7041
   60MOL   H14729765   5.913   6.882   4.864  0.4472 -1.8585  2.4013
   60MOL   H14829766   6.045   7.006   4.834 -0.2515  1.7917  0.5395
   60MOL   H14929767   5.956   6.862   5.100 -1.4217  0.1851 -1.6298
   60MOL   H15029768   6.096   6.830   5.008  0.3815  0.0579  0.0370
   60MOL   H15129769   6.073   6.996   5.079 -0.6349 -0.2097 -0.0423
   60MOL   C15229770   5.655   6.760   4.486 -0.1189  0.9329 -0.2970
   60MOL   C15329771   5.650   6.673   4.611 -0.7035 -0.1266 -0.0900
   60MOL   O15429772   5.512   6.629   4.619 -0.2370 -0.3570 -0.3100
   60MOL   C15529773   5.453   6.650   4.743  0.6558  0.2847 -0.1562
   60MOL   C15629774   5.303   6.610   4.741 -0.2524  0.2879 -0.3353
   60MOL   C15729775   5.228   6.658   4.857  0.7621  0.2008  0.1984
   60MOL   C15829776   5.077   6.624   4.846  0.3733  0.5539 -0.1381
   60MOL   C15929777   4.985   6.717   4.934  0.0871  1.1124  0.1445
   60MOL   C16029778   4.840   6.658   4.931 -1.0786 -0.5625 -0.3748
   60MOL   H16129779   5.602   6.698   4.415  1.4857 -0.8088 -0.0068
   60MOL   H16229780   5.758   6.776   4.454  0.0177 -3.5901 -2.4237
   60MOL   H16329781   5.671   6.740   4.695 -0.7831 -3.4634  2.7030
   60MOL   H16429782   5.467   6.754   4.772 -0.0132  0.6047 -0.9454
   60MOL   H16529783   5.497   6.595   4.826 -0.1157 -1.6684 -1.0103
   60MOL   H16629784   5.283   6.504   4.726 -0.5520  0.2177  0.5568
   60MOL   H16729785   5.254   6.653   4.654 -1.4245  0.2214  0.2890
   60MOL   H16829786   5.266   6.610   4.948 -2.5032 -0.3768  1.3120
   60MOL   H16929787   5.261   6.762   4.864  0.0182  0.5114 -0.8884
   60MOL   H17029788   5.038   6.617   4.745  1.3163 -2.5859 -0.3166
   60MOL   H17129789   5.063   6.521   4.877 -0.1578  0.6605 -0.0321
   60MOL   H17229790   5.024   6.733   5.034  0.0136 -1.4672  0.6198
   60MOL   H17329791   4.988   6.820   4.899 -0.1323  1.7031  1.8659
   60MOL   H17429792   4.780   6.733   4.982  1.2845  1.8315 -0.9627
   60MOL   H17529793   4.820   6.669   4.825  1.2266  1.8672 -0.6359
   60MOL   H17629794   4.821   6.559   4.972 -1.1968 -0.0793  0.7670
   60MOL   C17729795   5.746   6.554   4.618 -0.3104  0.3188  1.1132
   60MOL   C17829796   5.751   6.472   4.747  0.3128 -0.0305 -0.2483
   60MOL   O17929797   5.809   6.346   4.714  0.5719  0.2778 -0.5094
   60MOL   C18029798   5.714   6.249   4.684 -0.4189 -0.4508  0.4060
   60MOL   C18129799   5.790   6.117   4.634  0.0608 -0.6054 -0.4634
   60MOL   C18229800   5.871   6.046   4.742  0.1790 -0.1526  0.6195
   60MOL   C18329801   5.928   5.908   4.692  0.2302 -0.4337 -0.4947
   60MOL   C18429802   6.018   5.845   4.798  0.2290  0.6595  0.6798
   60MOL   C18529803   6.039   5.703   4.757 -0.2463  0.1055 -0.1308
   60MOL   H18629804   5.729   6.489   4.532 -1.5016  1.3432  0.5593
   60MOL   H18729805   5.849   6.588   4.609  0.2655 -2.0252 -2.1368
   60MOL   H18829806   5.650   6.452   4.783  0.9198 -3.0625 -0.1210
   60MOL   H18929807   5.628   6.279   4.623 -0.5574 -0.8218  0.4113
   60MOL   H19029808   5.668   6.233   4.781  0.7282 -0.7719  0.8979
   60MOL   H19129809   5.849   6.138   4.545 -0.6129  1.6500 -0.4103
   60MOL   H19229810   5.705   6.057   4.602 -0.0706 -1.4774  1.4158
   60MOL   H19329811   5.955   6.104   4.782 -1.1259  1.2503  1.3719
   60MOL   H19429812   5.817   6.038   4.836 -0.8972  0.5794  0.0814
   60MOL   H19529813   5.849   5.844   4.652 -2.5573  1.1978  2.2076
   60MOL   H19629814   5.994   5.933   4.609  1.8488 -2.1804  0.2406
   60MOL   H19729815   6.115   5.894   4.802  0.4866  0.2164  0.0465
   60MOL   H19829816   5.978   5.851   4.899 -0.6420  0.7341  0.3345
   60MOL   H19929817   6.140   5.684   4.796  0.3175 -0.1410 -1.6620
   60MOL   H20029818   5.965   5.633   4.796  0.4312 -0.7812 -0.4067
   60MOL   H20129819   6.052   5.698   4.649  3.8061  2.6015  0.1447
   60MOL   C20229820   5.823   6.540   4.862 -0.1377  0.9976  0.0426
   60MOL   C20329821   5.826   6.463   4.998  0.1324 -0.3480 -0.0511
   60MOL   O20429822   5.708   6.486   5.067  0.4631 -0.1881 -0.3176
   60MOL   C20529823   5.652   6.369   5.120 -0.0545  0.3684 -0.0299
   60MOL   C20629824   5.531   6.384   5.210 -0.1747  0.2516 -0.5677
   60MOL   C20729825   5.401   6.432   5.153 -0.2478 -0.4368  0.1348
   60MOL   C20829826   5.279   6.422   5.248 -0.2469 -0.8344 -0.4569
   60MOL   C20929827   5.149   6.448   5.176  0.1045  0.6555 -0.4056
   60MOL   C21029828   5.019   6.426   5.267  0.4559  0.6121  0.4843
   60MOL   H21129829   5.924   6.554   4.825 -0.1247  0.0493 -0.2894
   60MOL   H21229830   5.790   6.643   4.880 -1.7783  0.4318  0.4040
   60MOL   H21329831   5.845   6.357   4.980  1.7074 -0.9417  4.5524
   60MOL   H21429832   5.728   6.325   5.184 -1.5226 -2.2388  0.0221
   60MOL   H21529833   5.622   6.303   5.038 -0.7638 -0.8519  1.1826
   60MOL   H21629834   5.565   6.448   5.291 -0.8906  2.2863 -1.8363
   60MOL   H21729835   5.517   6.296   5.272  1.9812  0.8169  0.7575
   60MOL   H21829836   5.416   6.533   5.116  1.5992 -1.2583 -1.4100
   60MOL   H21929837   5.379   6.370   5.066  3.6530 -0.7084 -0.7536
   60MOL   H22029838   5.267   6.321   5.288  3.0632 -1.0129  0.2466
   60MOL   H22129839   5.297   6.494   5.329 -2.3174 -0.9035  0.1053
   60MOL   H22229840   5.152   6.545   5.127  1.9314 -0.5972 -2.8067
   60MOL   H22329841   5.156   6.386   5.087 -0.0835 -1.5144  1.0196
   60MOL   H22429842   4.939   6.411   5.195  0.2745 -1.5517  1.1031
   60MOL   H22529843   5.022   6.329   5.317  0.0949 -0.2793 -1.1662
   60MOL   H22629844   5.007   6.507   5.339  0.4200  2.0995 -1.1767
   60MOL   C22729845   5.938   6.519   5.087  0.2880  0.4820  0.2654
   60MOL   C22829846   6.073   6.436   5.069  0.6027 -0.0398 -0.5890
   60MOL   O22929847   6.130   6.452   4.934 -0.1036  0.0455 -0.2705
   60MOL   C23029848   6.137   6.336   4.852  0.3756  0.0100  0.1177
   60MOL   C23129849   6.158   6.389   4.709 -0.1141  0.0059  0.9037
   60MOL   C23229850   6.161   6.276   4.600 -0.6644 -0.3061 -0.0064
   60MOL   C23329851   6.213   6.314   4.464 -0.3876  0.2124  0.7805
   60MOL   C23429852   6.167   6.451   4.405 -0.7528  0.0057  0.3940
   60MOL   C23529853   6.225   6.476   4.268  0.7073 -0.1869  0.1721
   60MOL   H23629854   5.957   6.626   5.089 -0.2566  0.5754  2.6499
   60MOL   H23729855   5.916   6.503   5.193 -1.1191  1.3160  0.1158
   60MOL   H23829856   6.040   6.333   5.086  0.3807  0.1750  0.3118
   60MOL   H23929857   6.041   6.285   4.849 -0.0277  0.7963 -0.9462
   60MOL   H24029858   6.217   6.270   4.885 -0.8261 -0.4911  2.0512
   60MOL   H24129859   6.253   6.444   4.706 -0.3295  0.3135 -0.7133
   60MOL   H24229860   6.077   6.457   4.685 -0.4218 -0.2852  1.1230
   60MOL   H24329861   6.223   6.192   4.632  0.1569 -0.5992 -2.2276
   60MOL   H24429862   6.063   6.229   4.586 -0.0140 -0.9159 -2.9501
   60MOL   H24529863   6.321   6.307   4.473 -0.4607 -0.6024  1.0963
   60MOL   H24629864   6.196   6.230   4.395  0.8179 -0.2346  1.0179
   60MOL   H24729865   6.058   6.462   4.407 -0.6749  1.2859 -1.2847
   60MOL   H24829866   6.204   6.529   4.472 -2.0863  0.3738  0.7195
   60MOL   H24929867   6.332   6.480   4.291  0.3976  1.2950  1.4710
   60MOL   H25029868   6.211   6.393   4.200 -2.5990 -1.0835  1.8704
   60MOL   H25129869   6.213   6.577   4.229 -2.2510 -0.0276  1.3551
   60MOL   C25229870   6.180   6.465   5.173  0.6338 -0.9066 -0.1894
   60MOL   C25329871   6.269   6.343   5.200 -0.2228 -0.0961 -0.4869
   60MOL   O25429872   6.181   6.244   5.251 -0.2441 -0.0151  0.1946
   60MOL   C25529873   6.196   6.122   5.180  0.0463  0.5141 -0.2909
   60MOL   C25629874   6.116   6.013   5.247 -0.4264 -0.4518 -0.3533
   60MOL   C25729875   5.966   6.011   5.206  0.3352  0.0926  0.3625
   60MOL   C25829876   5.900   5.881   5.251 -0.7624 -0.7182 -0.0922
   60MOL   C25929877   5.751   5.891   5.269  0.4427  0.0951 -0.4509
   60MOL   C26029878   5.693   5.770   5.355 -0.1095 -0.1316 -0.2664
   60MOL   H26129879   6.248   6.541   5.131  1.1240 -2.1898 -1.7863
   60MOL   H26229880   6.132   6.506   5.262  1.6824 -2.4990  1.1403
   60MOL   H26329881   6.301   6.320   5.099 -1.5768 -0.9221 -0.7457
   60MOL   H26429882   6.299   6.088   5.189 -0.3362 -0.2171  1.5267
   60MOL   H26529883   6.185   6.118   5.071 -0.3679  0.2206 -0.2402
   60MOL   H26629884   6.128   6.016   5.355 -0.8201  0.2712 -0.3332
   60MOL   H26729885   6.161   5.920   5.210  2.8528  1.4389 -1.2924
   60MOL   H26829886   5.913   6.095   5.251 -0.2329 -0.0904  0.0392
   60MOL   H26929887   5.961   6.027   5.099  1.0167 -1.3947  0.0857
   60MOL   H27029888   5.913   5.803   5.175  0.9266  0.9359 -1.5316
   60MOL   H27129889   5.941   5.857   5.349  0.1768 -0.4708 -0.4183
   60MOL   H27229890   5.735   5.981   5.328  3.3852  0.7403 -0.5625
   60MOL   H27329891   5.695   5.907   5.177  1.5546 -0.2232 -1.1953
   60MOL   H27429892   5.758   5.743   5.438  0.0513 -0.9613 -0.6555
   60MOL   H27529893   5.601   5.809   5.399  1.1484  2.6380  0.0075
   60MOL   H27629894   5.669   5.681   5.295 -2.3276  0.5123 -0.3870
   60MOL   C27729895   6.380   6.371   5.309 -0.1000  0.0714 -0.4805
   60MOL   C27829896   6.479   6.251   5.343  0.1857  0.5772  0.5772
   60MOL   O27929897   6.606   6.292   5.398  0.0608 -0.0710 -0.2023
   60MOL   C28029898   6.682   6.365   5.299  0.0163  0.6526 -0.0065
   60MOL   C28129899   6.828   6.334   5.330 -0.3943 -0.6203 -0.4962
   60MOL   C28229900   6.877   6.187   5.302  0.0980 -0.3735 -1.1320
   60MOL   C28329901   6.992   6.149   5.391 -0.4182  0.2492 -0.5860
   60MOL   C28429902   6.951   6.097   5.529 -0.0278  0.1427  0.2556
   60MOL   C28529903   6.924   5.945   5.510  0.1377  0.2206 -0.2870
   60MOL   H28629904   6.440   6.451   5.267 -0.1032  1.4719  2.0581
   60MOL   H28729905   6.341   6.410   5.403  0.1780 -2.7255  0.8724
   60MOL   H28829906   6.498   6.197   5.250  0.2796 -0.1127  0.9972
   60MOL   H28929907   6.680   6.474   5.294  1.4642  0.6351 -1.3676
   60MOL   H29029908   6.659   6.327   5.200  1.9208 -2.7201  0.7620
   60MOL   H29129909   6.861   6.370   5.427  0.2806  0.8760 -1.2652
   60MOL   H29229910   6.883   6.400   5.263  0.8054 -1.4116 -0.3189
   60MOL   H29329911   6.794   6.120   5.327  0.5510 -0.0572  1.3793
   60MOL   H29429912   6.910   6.182   5.198 -0.1757 -0.8808 -1.1976
   60MOL   H29529913   7.047   6.073   5.335  0.0246 -0.6900  1.0818
   60MOL   H29629914   7.071   6.225   5.396 -1.3394  1.1713  0.1020
   60MOL   H29729915   7.016   6.122   5.612  0.9450 -2.8577  0.4615
   60MOL   H29829916   6.859   6.134   5.573 -1.1821 -1.9592 -0.2897
   60MOL   H29929917   7.019   5.893   5.499 -0.5119 -0.9866 -0.3347
   60MOL   H30029918   6.868   5.917   5.599 -0.7481  0.4417 -0.7671
   60MOL   H30129919   6.869   5.928   5.417  0.1043 -2.9194  0.2246
   60MOL   C30229920   6.420   6.150   5.449  0.0126 -0.9979 -0.1496
   60MOL   C30329921   6.502   6.020   5.460  0.0708 -0.3747  0.1547
   60MOL   O30429922   6.473   5.939   5.344 -0.3834 -0.9554  0.2292
   60MOL   C30529923   6.579   5.864   5.283 -0.6902  0.3129  0.7913
   60MOL   C30629924   6.535   5.777   5.162  0.1659 -0.4053  0.1505
   60MOL   C30729925   6.472   5.859   5.056  0.5727  0.8857  1.4615
   60MOL   C30829926   6.446   5.788   4.922 -0.2784  1.4305  0.2319
   60MOL   C30929927   6.423   5.878   4.796  0.6333  0.1516 -0.0188
   60MOL   C31029928   6.420   5.797   4.663 -0.1099  0.7526 -0.4581
   60MOL   H31129929   6.419   6.197   5.547 -0.1532 -1.4647  0.0762
   60MOL   H31229930   6.317   6.132   5.419 -0.3132  0.3535  0.1456
   60MOL   H31329931   6.610   6.032   5.470  0.0619 -0.0411 -0.1470
   60MOL   H31429932   6.627   5.797   5.354 -0.4571 -0.1333  0.2205
   60MOL   H31529933   6.661   5.928   5.249 -1.8190  0.0269 -2.6749
   60MOL   H31629934   6.469   5.697   5.196  0.8461 -0.2887  1.7895
   60MOL   H31729935   6.622   5.720   5.130 -0.2562  0.5511 -2.8581
   60MOL   H31829936   6.373   5.887   5.089  0.4780  0.9438  1.1330
   60MOL   H31929937   6.534   5.945   5.031 -0.6180  1.4293  0.3452
   60MOL   H32029938   6.535   5.731   4.897 -0.3885  2.0852 -1.7528
   60MOL   H32129939   6.372   5.709   4.934  0.6861  0.6198  0.9283
   60MOL   H32229940   6.321   5.915   4.810 -0.3698 -1.7680 -1.9217
   60MOL   H32329941   6.485   5.967   4.787 -1.5062  1.7260  0.1564
   60MOL   H32429942   6.522   5.760   4.647 -0.8307 -1.3459 -0.2903
   60MOL   H32529943   6.363   5.706   4.680 -0.4907  1.0151 -0.3264
   60MOL   H32629944   6.387   5.843   4.570  0.0910  1.4187 -0.2016
   60MOL   C32729945   6.452   5.939   5.583  0.4071  0.0823 -0.9236
   60MOL   C32829946   6.511   5.970   5.720 -0.5645 -1.5976  0.2817
   60MOL   O32929947   6.477   6.103   5.770  0.3653 -0.3561  0.7396
   60MOL   C33029948   6.562   6.166   5.865  0.0332 -0.0078 -0.3180
   60MOL   C33129949   6.664   6.260   5.803 -0.0313 -0.2878  0.1358
   60MOL   C33229950   6.602   6.391   5.770 -0.6673  0.3697 -0.2442
   60MOL   C33329951   6.706   6.489   5.710 -0.0079 -0.5672 -0.2552
   60MOL   C33429952   6.634   6.611   5.650 -0.5111  0.6511 -0.5911
   60MOL   C33529953   6.539   6.680   5.751 -0.1108 -0.4582  0.0324
   60MOL   H33629954   6.474   5.835   5.556 -1.9769 -0.4695 -0.8175
   60MOL   H33729955   6.346   5.964   5.587  0.3159 -0.4486  0.4388
   60MOL   H33829956   6.619   5.966   5.706 -0.5765  0.8860 -0.7717
   60MOL   H33929957   6.592   6.095   5.942 -2.2490  2.5653  3.0968
   60MOL   H34029958   6.506   6.231   5.933  0.2094  1.3788 -1.4829
   60MOL   H34129959   6.711   6.226   5.711 -0.5566  1.6846 -0.8709
   60MOL   H34229960   6.740   6.284   5.878 -0.0648  1.9939 -0.5289
   60MOL   H34329961   6.519   6.390   5.699 -1.8559 -1.1019  1.1279
   60MOL   H34429962   6.546   6.437   5.852  1.6161 -0.9488  2.1556
   60MOL   H34529963   6.783   6.513   5.783 -1.2168  2.3113  0.1460
   60MOL   H34629964   6.753   6.437   5.627  1.6030 -0.6204  0.6816
   60MOL   H34729965   6.704   6.686   5.611  1.5332 -0.4788  0.8312
   60MOL   H34829966   6.573   6.593   5.561 -2.3957 -0.4689  0.9053
   60MOL   H34929967   6.435   6.649   5.753  0.1179 -1.2724 -0.4613
   60MOL   H35029968   6.578   6.671   5.852  0.1756  0.5339  0.0173
   60MOL   H35129969   6.534   6.786   5.725 -0.9042 -0.3804  0.5061
   60MOL   C35229970   6.471   5.852   5.817 -0.1803  0.1391 -0.1271
   60MOL   C35329971   6.574   5.805   5.915  0.1513 -0.0772  0.4066
   60MOL   O35429972   6.693   5.755   5.846 -0.4294  0.1926  0.1346
   60MOL   C35529973   6.814   5.824   5.874 -0.2358 -1.2030 -0.9056
   60MOL   C35629974   6.925   5.750   5.818 -0.3681  0.4138 -0.0499
   60MOL   C35729975   7.065   5.806   5.827 -0.0124 -1.4112  0.5021
   60MOL   C35829976   7.168   5.698   5.807 -0.2637 -0.4192  0.6361
   60MOL   C35929977   7.188   5.664   5.656  0.1474  0.2683  0.2609
   60MOL   C36029978   7.284   5.546   5.637  0.2985 -0.0345  0.9382
   60MOL   H36129979   6.372   5.873   5.859 -1.0312 -3.4230 -0.1686
   60MOL   H36229980   6.445   5.768   5.753  1.4882 -0.4368 -0.0603
   60MOL   H36329981   6.596   5.885   5.986  0.0103 -0.0134  0.3772
   60MOL   H36429982   6.804   5.836   5.982  2.4042 -0.1140 -0.7557
   60MOL   H36529983   6.814   5.922   5.827  3.7632 -0.3833  0.5991
   60MOL   H36629984   6.897   5.743   5.713 -2.1893  0.9091  0.3736
   60MOL   H36729985   6.922   5.648   5.858  1.5016 -0.2647 -1.5897
   60MOL   H36829986   7.081   5.883   5.751  0.9615 -1.2276  0.8881
   60MOL   H36929987   7.087   5.853   5.922  0.5513  0.1487 -0.3807
   60MOL   H37029988   7.265   5.734   5.841  0.9503 -1.3350 -1.7263
   60MOL   H37129989   7.134   5.610   5.862 -0.7871 -1.4706 -1.2918
   60MOL   H37229990   7.091   5.634   5.616  0.2080  0.9664 -0.4230
   60MOL   H37329991   7.213   5.753   5.599  3.2683 -0.8963 -0.2784
   60MOL   H37429992   7.255   5.465   5.704  0.7215  0.2516  1.4684
   60MOL   H37529993   7.281   5.505   5.536 -1.4666  2.8657 -0.2402
   60MOL   H37629994   7.390   5.566   5.653  0.6177 -0.3839 -0.6501
   60MOL   C37729995   6.511   5.690   5.995 -0.5592 -0.2847 -1.3832
   60MOL   C37829996   6.609   5.625   6.094  0.2880  0.3743 -0.1353
   60MOL   O37929997   6.531   5.522   6.154  0.5674 -0.7488 -0.1781
   60MOL   C38029998   6.569   5.393   6.098 -0.4560  0.1102 -0.4217
   60MOL   C38129999   6.511   5.289   6.189  0.4747  0.2186  1.0933
   60MOL   C38230000   6.573   5.149   6.152 -0.0171 -0.3403  0.1034
   60MOL   C38330001   6.493   5.031   6.214 -0.3267  0.4171  0.5543
   60MOL   C38430002   6.540   4.887   6.178  0.5406  0.3995 -0.0497
   60MOL   C38530003   6.676   4.846   6.248 -0.6964  0.0740 -0.2849
   60MOL   H38630004   6.426   5.732   6.050 -0.0540  0.3428 -1.0645
   60MOL   H38730005   6.473   5.605   5.939 -2.7331 -0.3255  0.1139
   60MOL   H38830006   6.700   5.583   6.051  0.2147 -0.4846  0.5381
   60MOL   H38930007   6.676   5.375   6.085 -0.5447 -0.9966  0.3385
   60MOL   H39030008   6.526   5.386   5.998 -1.2064  0.3004 -0.1087
   60MOL   H39130009   6.405   5.288   6.162  0.8660 -1.9477 -0.4829
   60MOL   H39230010   6.526   5.309   6.295 -0.0473  1.1046  1.0100
   60MOL   H39330011   6.577   5.139   6.044  2.4760  0.2262  0.1119
   60MOL   H39430012   6.677   5.143   6.187 -0.3196  3.2283  1.8349
   60MOL   H39530013   6.499   5.051   6.321  1.4474  1.8620  0.1912
   60MOL   H39630014   6.390   5.045   6.180 -0.2883  0.8103  0.6013
   60MOL   H39730015   6.457   4.820   6.199  2.5610 -1.7338  1.2805
   60MOL   H39830016   6.551   4.877   6.070  1.4571  3.5192 -0.3210
   60MOL   H39930017   6.668   4.836   6.356  0.1871  1.5645 -0.0648
   60MOL   H40030018   6.724   4.754   6.213  3.7178  1.9909  0.4901
   60MOL   H40130019   6.749   4.919   6.213 -0.6167 -0.4866 -1.3097
   60MOL   C40230020   6.657   5.710   6.212 -0.3709 -0.0638 -0.3727
   60MOL   C40330021   6.769   5.637   6.288  0.1370 -0.3790 -0.0487
   60MOL   O40430022   6.784   5.706   6.412  0.1448 -0.2030 -0.3092
   60MOL   C40530023   6.723   5.638   6.521 -0.0433 -0.1941 -0.3697
   60MOL   C40630024   6.739   5.716   6.655  0.4280  0.2336  0.2067
   60MOL   C40730025   6.648   5.840   6.660 -0.3372  0.0980 -0.2548
   60MOL   C40830026   6.680   5.925   6.785 -0.6120 -0.3870  0.6741
   60MOL   C40930027   6.611   6.065   6.777 -0.7676 -0.0708 -0.4739
   60MOL   C41030028   6.615   6.124   6.917  0.2169 -0.8139 -0.0100
   60MOL   H41130029   6.571   5.737   6.273  0.4883 -0.0858  0.8580
   60MOL   H41230030   6.700   5.804   6.179  0.6854 -0.3320  0.1948
   60MOL   H41330031   6.748   5.531   6.296  1.5645 -0.8228 -1.8696
   60MOL   H41430032   6.753   5.536   6.545  1.3046  0.5396  1.2242
   60MOL   H41530033   6.619   5.622   6.496 -0.5433 -1.4166  2.3100
   60MOL   H41630034   6.845   5.738   6.664  0.3943  0.2368  0.6141
   60MOL   H41730035   6.714   5.640   6.729  0.1603 -0.0633 -0.1806
   60MOL   H41830036   6.666   5.888   6.564 -1.3170  1.3066  0.1491
   60MOL   H41930037   6.542   5.813   6.653 -0.6275  1.5162 -1.3741
   60MOL   H42030038   6.642   5.866   6.868 -0.5353 -0.3198  0.7573
   60MOL   H42130039   6.785   5.944   6.809 -0.4604  0.3984 -0.5731
   60MOL   H42230040   6.647   6.126   6.694 -0.6964 -0.7964 -0.9901
   60MOL   H42330041   6.509   6.036   6.752 -0.3927  0.0409 -2.2371
   60MOL   H42430042   6.565   6.220   6.932 -0.1256 -0.4472 -3.1219
   60MOL   H42530043   6.564   6.053   6.981  0.0614 -0.6207  0.0824
   60MOL   H42630044   6.717   6.144   6.949 -0.9650  5.2543  0.7329
   60MOL   C42730045   6.904   5.640   6.213  0.1519 -0.0156 -0.3145
   60MOL   C42830046   7.019   5.566   6.284  0.1092 -0.7351 -0.1863
   60MOL   O42930047   7.001   5.428   6.260  0.3098 -0.0741 -0.4799
   60MOL   C43030048   7.082   5.345   6.344  0.4172 -0.8538  0.5503
   60MOL   C43130049   7.054   5.197   6.327  0.1723 -0.0763  0.0910
   60MOL   C43230050   7.080   5.140   6.188 -0.0338  0.9348  0.2532
   60MOL   C43330051   7.047   4.992   6.182  0.3677  0.8587 -0.0440
   60MOL   C43430052   6.996   4.952   6.041  0.0686 -0.4374  0.4283
   60MOL   C43530053   6.973   4.805   6.015 -0.0761 -0.0144  0.3034
   60MOL   H43630054   6.898   5.602   6.111  0.1605 -1.1203  0.0932
   60MOL   H43730055   6.936   5.745   6.210 -0.3317  0.1007 -1.4208
   60MOL   H43830056   7.001   5.592   6.388 -0.3300  1.0325 -0.6777
   60MOL   H43930057   7.072   5.367   6.451 -2.2342  0.0199  0.1784
   60MOL   H44030058   7.188   5.362   6.329 -0.1493  1.7947 -0.8672
   60MOL   H44130059   6.947   5.182   6.339 -0.1585  0.9203 -1.4311
   60MOL   H44230060   7.100   5.131   6.401 -0.9563 -0.4214  0.4860
   60MOL   H44330061   7.018   5.199   6.121 -0.4775  0.1470 -0.0340
   60MOL   H44430062   7.187   5.155   6.171  0.4878 -1.5749  1.1709
   60MOL   H44530063   7.138   4.937   6.207  0.7792  1.8644  0.6921
   60MOL   H44630064   6.979   4.971   6.265  2.2481 -1.9236  0.8394
   60MOL   H44730065   6.909   5.015   6.026  0.3303 -0.2158 -0.1937
   60MOL   H44830066   7.061   5.004   5.969 -0.8915  0.7403  0.3976
   60MOL   H44930067   6.940   4.790   5.913 -1.2886  1.7157  0.4394
   60MOL   H45030068   7.071   4.757   6.020  0.6740  0.8447 -4.0711
   60MOL   H45130069   6.905   4.752   6.081  0.9274 -1.5700  0.1238
   60MOL   C45230070   7.153   5.615   6.223  0.2148  0.6066  0.2043
   60MOL   C45330071   7.241   5.703   6.303 -0.2579  0.4252 -0.2709
   60MOL   O45430072   7.351   5.734   6.221  0.1178  0.8079  0.3565
   60MOL   C45530073   7.379   5.870   6.194  0.3159  0.7764 -0.5517
   60MOL   C45630074   7.514   5.892   6.129 -0.7207  0.6622 -0.7009
   60MOL   C45730075   7.534   5.817   5.998 -0.3362  0.3874  1.0896
   60MOL   C45830076   7.683   5.820   5.963  0.9749 -0.4665 -0.1475
   60MOL   C45930077   7.751   5.965   5.970 -0.2189 -0.2361 -0.4199
   60MOL   C46030078   0.112   5.968   5.915  0.0947  1.2151  0.0491
   60MOL   H46130079   7.216   5.530   6.196  0.4387  0.7491  0.2707
   60MOL   H46230080   7.141   5.648   6.120  0.9532 -1.7151 -0.6479
   60MOL   H46330081   7.188   5.792   6.337 -0.3356 -0.1030  1.0111
   60MOL   H46430082   7.366   5.934   6.280  1.6641  0.4082 -0.0546
   60MOL   H46530083   7.303   5.906   6.125  2.7304  0.5946 -3.4311
   60MOL   H46630084   7.590   5.864   6.202  0.0285 -1.2555 -2.1757
   60MOL   H46730085   7.534   5.997   6.111  0.9684  0.1913 -1.6321
   60MOL   H46830086   7.505   5.714   6.018 -0.6063  0.4610  1.0762
   60MOL   H46930087   7.479   5.849   5.910 -0.6810 -0.3091  1.0528
   60MOL   H47030088   7.745   5.750   6.019  1.3336 -1.3534 -1.6264
   60MOL   H47130089   7.691   5.796   5.857 -0.9677  1.3915 -0.7667
   60MOL   H47230090   7.695   6.051   5.932  3.1631  1.8048 -0.9254
   60MOL   H47330091   7.766   5.986   6.076 -0.7477  2.3115 -0.8289
   60MOL   H47430092   0.161   5.886   5.967 -2.2758 -1.1339 -1.3039
   60MOL   H47530093   0.103   5.945   5.809  0.8895 -1.6018  0.5460
   60MOL   H47630094   0.164   6.062   5.937  1.7622  0.2877  0.1712
   60MOL   C47730095   7.300   5.632   6.431 -0.1172  0.0657  0.5640
   60MOL   C47830096   7.349   5.731   6.534  0.2085 -0.7582  0.9282
   60MOL   O47930097   7.440   5.671   6.628  0.4642 -0.2906  0.1904
   60MOL   C48030098   7.573   5.726   6.631  0.3552 -0.2378  0.8164
   60MOL   C48130099   7.664   5.673   6.744 -0.1507  0.0080 -0.5266
   60MOL   C48230100   7.690   5.521   6.743 -0.2848 -0.2922 -0.1778
   60MOL   C48330101   0.026   5.493   6.843  0.2226 -0.1546 -0.5330
   60MOL   C48430102   0.050   5.344   6.853  0.2757  0.2948  0.1012
   60MOL   C48530103   0.109   5.287   6.722 -0.2874 -0.0201  0.4191
   60MOL   H48630104   7.237   5.557   6.478 -0.7563 -0.5412 -1.2019
   60MOL   H48730105   7.378   5.566   6.392  1.6386  1.7978  1.0858
   60MOL   H48830106   7.392   5.813   6.477 -0.0859 -0.7091  0.7769
   60MOL   H48930107   7.569   5.835   6.637 -2.0530 -0.0779 -2.5485
   60MOL   H49030108   7.619   5.711   6.534 -0.9627  1.2918 -0.0565
   60MOL   H49130109   7.616   5.705   6.836  2.8952  3.0371  0.1138
   60MOL   H49230110   7.758   5.727   6.759 -1.5950  2.1486  1.2633
   60MOL   H49330111   7.593   5.477   6.768 -1.2280  1.5606 -0.5029
   60MOL   H49430112   7.710   5.475   6.646  3.5291 -0.3990  0.6183
   60MOL   H49530113   0.117   5.549   6.823  0.5842 -0.6938 -0.3910
   60MOL   H49630114   0.001   5.531   6.943 -0.6248 -1.2866 -0.3068
   60MOL   H49730115   0.116   5.315   6.934  0.5603 -1.5054 -0.7517
   60MOL   H49830116   7.739   5.284   6.875  1.3252 -0.9324  1.0681
   60MOL   H49930117   0.044   5.267   6.637 -0.7628 -0.1602  0.8131
   60MOL   H50030118   0.194   5.349   6.694 -1.5491  2.2420  1.4049
   60MOL   H50130119   0.150   5.190   6.749  3.8804  1.5015 -0.1218
   60MOL   H50230120   7.262   5.761   6.593 -0.6724  0.6311 -1.0219
   61MOL     C130121   3.273   0.649   7.385  0.5499  0.3187 -0.0118
   61MOL     C230122   3.242   0.596   7.528 -0.8667 -0.4878 -0.5358
   61MOL     O330123   3.099   0.604   7.554  0.0514 -0.4005  0.7372
   61MOL     C430124   3.037   0.478   7.559  0.1438  0.5376  0.5864
   61MOL     C530125   2.883   0.494   7.572  0.0304 -0.2072 -0.7526
   61MOL     C630126   2.841   0.556   7.708  0.2023 -0.3530  0.1841
   61MOL     C730127   2.689   0.556   7.743 -0.4608 -0.1452 -0.6463
   61MOL     C830128   2.652   0.637   0.089 -0.0693  0.6265  0.6395
   61MOL     C930129   2.500   0.635   0.135 -0.2543  0.4751  0.1368
   61MOL    H1030130   3.233   0.590   7.303 -0.8740 -2.6624  2.7307
   61MOL    H1130131   3.267   0.757   7.368  0.8449  0.4427  0.6287
   61MOL    H1230132   3.266   0.489   7.528  2.6836  0.1981 -3.2915
   61MOL    H1330133   3.067   0.415   7.643 -2.9656 -2.2263 -0.2857
   61MOL    H1430134   3.058   0.419   7.471 -1.6764 -0.4555  0.7897
   61MOL    H1530135   2.840   0.395   7.562 -1.1901 -0.2522  3.9179
   61MOL    H1630136   2.840   0.546   7.486  0.2217  2.4045  0.6917
   61MOL    H1730137   2.900   0.514   0.011 -0.8439 -0.9028  0.6713
   61MOL    H1830138   2.879   0.658   7.697  1.6881 -0.8167  0.9712
   61MOL    H1930139   2.629   0.587   7.657  1.1675  1.1237 -1.3494
   61MOL    H2030140   2.676   0.450   7.767 -1.8986  0.5539  1.7856
   61MOL    H2130141   2.684   0.740   0.072 -0.8434  1.1512  2.3097
   61MOL    H2230142   2.714   0.606   0.173  3.7157  1.6167 -1.6168
   61MOL    H2330143   2.492   0.719   0.204 -1.0601 -0.1029  0.7618
   61MOL    H2430144   2.427   0.645   0.055  0.0658  1.6176 -0.0290
   61MOL    H2530145   2.477   0.551   0.200 -0.9605 -2.1465 -3.3800
   61MOL    H2630146   3.381   0.643   7.370  0.4720  0.5524 -0.6893
   61MOL    C2730147   3.326   0.654   7.633 -0.3203 -0.4411  0.3697
   61MOL    C2830148   3.387   0.550   7.729  0.0137 -0.9836 -0.0263
   61MOL    O2930149   3.484   0.473   7.652  0.7043  0.0282  0.6973
   61MOL    C3030150   3.528   0.352   7.712  0.7976 -0.1786  0.2091
   61MOL    C3130151   3.584   0.271   7.589 -0.2667  0.5065  0.6129
   61MOL    C3230152   3.628   0.127   7.615  0.0898 -1.0869  0.1027
   61MOL    C3330153   3.510   0.033   7.658 -0.0525  0.0529  0.3466
   61MOL    C3430154   3.399   0.009   7.546  0.4177  0.4084 -0.0868
   61MOL    C3530155   3.319   7.663   7.588  0.1881  0.1570 -0.5369
   61MOL    H3630156   3.407   0.721   7.605 -0.4393 -0.3109  0.3382
   61MOL    H3730157   3.252   0.715   7.687  1.7033 -0.1846  2.9681
   61MOL    H3830158   3.311   0.486   7.773 -1.1343  0.3306 -0.0540
   61MOL    H3930159   3.449   0.301   7.767  1.2547  0.1751  1.1980
   61MOL    H4030160   3.606   0.369   0.009 -0.1248  1.4513  0.8127
   61MOL    H4130161   3.664   0.331   7.545 -0.0930  1.3644  2.0325
   61MOL    H4230162   3.509   0.275   7.511  0.2864 -1.8904 -0.0664
   61MOL    H4330163   3.685   0.081   7.534  0.0875 -0.4297 -0.2772
   61MOL    H4430164   3.707   0.142   7.689 -0.2861  1.2473  0.0675
   61MOL    H4530165   3.560   7.714   7.668  1.4798  0.5386 -2.3430
   61MOL    H4630166   3.471   0.056   7.757  1.5169 -3.0787  1.7340
   61MOL    H4730167   3.337   0.098   7.535 -1.5195 -1.0706 -1.2143
   61MOL    H4830168   3.448   7.764   7.452  0.0254 -1.1291  0.0609
   61MOL    H4930169   3.249   7.635   7.509 -1.5730 -0.9619  1.3332
   61MOL    H5030170   3.380   7.579   7.620 -0.6680 -0.1972  0.2206
   61MOL    H5130171   3.259   7.686   7.677  2.4451 -0.9397  1.3104
   61MOL    C5230172   3.461   0.619   0.075  0.0804  0.3036 -0.0752
   61MOL    C5330173   3.377   0.704   0.172  0.5244  0.1173  0.7108
   61MOL    O5430174   3.286   0.628   0.244 -0.3667 -0.4362 -0.1675
   61MOL    C5530175   3.147   0.634   0.198 -0.7289  0.3558  0.6539
   61MOL    C5630176   3.059   0.561   0.306  0.3708 -0.2797 -0.2893
   61MOL    C5730177   3.093   0.408   0.297 -0.0122  0.1276 -0.0347
   61MOL    C5830178   3.040   0.345   0.170  0.3464  0.4265 -0.4423
   61MOL    C5930179   3.057   0.191   0.182 -0.1064 -0.4591  0.4152
   61MOL    C6030180   2.990   0.108   0.070  0.0670 -0.1552  0.1337
   61MOL    H6130181   3.546   0.681   0.046  0.7143  0.3498  1.8629
   61MOL    H6230182   3.503   0.531   0.123 -1.2784 -1.5580 -2.1660
   61MOL    H6330183   3.324   0.777   0.111  0.8069 -0.2337  0.0350
   61MOL    H6430184   3.137   0.593   0.097  0.6420 -0.0196  0.6530
   61MOL    H6530185   3.116   0.738   0.193  1.1495  0.8367 -4.0601
   61MOL    H6630186   2.953   0.580   0.292 -0.1735 -0.7691  2.7301
   61MOL    H6730187   3.085   0.594   0.407  0.4023 -2.0785  0.3089
   61MOL    H6830188   3.200   0.390   0.302 -0.1942 -0.7657  0.6821
   61MOL    H6930189   3.048   0.366   0.387 -2.6321  1.6096 -0.5829
   61MOL    H7030190   2.936   0.371   0.155  0.4514  0.0683 -1.9785
   61MOL    H7130191   3.096   0.376   0.081  2.2046  0.8283  0.8437
   61MOL    H7230192   3.163   0.165   0.194 -0.4732 -0.7742  3.3207
   61MOL    H7330193   2.998   0.166   0.270 -0.5757 -1.7354 -0.2499
   61MOL    H7430194   3.018   0.145   7.748 -0.2341 -0.9187 -0.2448
   61MOL    H7530195   3.008   0.001   0.079  2.9672  0.3257  0.4806
   61MOL    H7630196   2.885   0.124   0.095  0.1939 -0.7048  1.0365
   61MOL    C7730197   3.460   0.780   0.277 -0.1649 -0.2128  0.4783
   61MOL    C7830198   3.402   0.922   0.302 -0.1980  0.1127  0.3140
   61MOL    O7930199   3.437   0.995   0.191 -0.4761 -0.3490 -0.0527
   61MOL    C8030200   3.357   1.105   0.153 -0.3871 -0.0756 -0.0314
   61MOL    C8130201   3.292   1.100   0.011 -0.1701 -0.3496 -0.0629
   61MOL    C8230202   3.405   1.078   7.679  0.3905  0.1633 -1.3619
   61MOL    C8330203   3.347   1.037   7.538 -0.3348 -0.5570  0.5780
   61MOL    C8430204   3.459   1.004   7.441  0.3665  0.1119  0.3301
   61MOL    C8530205   3.562   1.117   7.405 -0.4336  0.3422  0.1427
   61MOL    H8630206   3.561   0.792   0.238 -0.4698 -1.4440 -0.7564
   61MOL    H8730207   3.470   0.720   0.368 -0.5494 -0.0413  0.6332
   61MOL    H8830208   3.294   0.926   0.311 -0.1336  0.8634  0.8001
   61MOL    H8930209   3.428   1.186   0.162 -0.0232 -0.4390  0.3947
   61MOL    H9030210   3.278   1.117   0.227  0.0504  0.8404  0.2939
   61MOL    H9130211   3.240   1.195   0.007  1.1078  0.3825  0.3733
   61MOL    H9230212   3.220   1.019   0.018  0.2984 -0.7385  0.3341
   61MOL    H9330213   3.455   1.174   7.664 -0.1173  0.4815 -1.0434
   61MOL    H9430214   3.478   1.000   7.701 -1.2000 -0.9220  0.2556
   61MOL    H9530215   3.280   0.952   7.548 -2.4483  1.0695  0.7690
   61MOL    H9630216   3.275   1.109   7.500  0.5118  0.1948  0.3815
   61MOL    H9730217   3.493   0.908   7.481 -1.7377 -1.3313 -1.2549
   61MOL    H9830218   3.422   0.951   7.353  3.2681 -0.6911 -0.4759
   61MOL    H9930219   3.518   1.217   7.408  0.4860  0.7597 -0.0739
   61MOL   H10030220   3.639   1.114   7.482 -1.2313 -1.7333  0.9044
   61MOL   H10130221   3.603   1.106   7.305  2.5570 -0.7122  1.4075
   61MOL   C10230222   3.462   0.987   0.424 -0.3993 -0.0889  0.1326
   61MOL   C10330223   3.392   1.116   0.471  0.3367  0.5877 -0.2172
   61MOL   O10430224   3.249   1.087   0.478 -0.2087  0.2493  0.0243
   61MOL   C10530225   3.193   0.998   0.570  0.2990  0.0438 -0.0782
   61MOL   C10630226   3.037   0.981   0.552  0.0174  0.7664  0.4995
   61MOL   C10730227   3.004   0.901   0.422  0.6731 -0.0501  0.0909
   61MOL   C10830228   2.859   0.899   0.385  0.4950  0.8563 -0.1044
   61MOL   C10930229   2.797   1.029   0.357  0.8072  0.2580 -0.0236
   61MOL   C11030230   2.659   0.996   0.296  0.2641  0.2756 -0.3393
   61MOL   H11130231   3.444   0.908   0.497 -0.5398  0.8907  1.1777
   61MOL   H11230232   3.567   0.996   0.398 -0.5281 -0.4959 -0.5664
   61MOL   H11330233   3.422   1.194   0.401  1.9432 -0.4384 -0.6928
   61MOL   H11430234   3.212   1.039   0.669  1.9788  0.6828 -0.6482
   61MOL   H11530235   3.239   0.900   0.565 -2.1716 -1.1425 -0.5430
   61MOL   H11630236   2.991   1.080   0.549  0.3938  0.9858  1.7482
   61MOL   H11730237   3.000   0.931   0.642  1.0479  0.5024  0.7808
   61MOL   H11830238   3.070   0.944   0.346 -0.0092 -1.6281 -1.4424
   61MOL   H11930239   3.028   0.796   0.437  0.7793  0.2556  2.1454
   61MOL   H12030240   2.842   0.837   0.297  0.0686  1.5616 -0.5171
   61MOL   H12130241   2.813   0.842   0.466  1.2711  0.4734  0.0771
   61MOL   H12230242   2.791   1.081   0.453  0.3150 -0.5187  0.3677
   61MOL   H12330243   2.857   1.079   0.282  1.1989 -1.6429 -1.0052
   61MOL   H12430244   2.625   1.090   0.253 -1.1711  0.2235  0.6607
   61MOL   H12530245   2.652   0.933   0.208 -2.3315 -0.3144  0.2598
   61MOL   H12630246   2.579   0.967   0.364  1.2625  0.8031  1.0991
   61MOL   C12730247   3.437   1.170   0.614 -0.3559 -0.0425  0.7015
   61MOL   C12830248   3.383   1.313   0.648  0.0254 -0.7975 -0.1361
   61MOL   O12930249   3.391   1.399   0.532 -0.5444 -0.0375 -0.0644
   61MOL   C13030250   3.266   1.420   0.462 -0.5580  0.1420  0.6307
   61MOL   C13130251   3.280   1.475   0.320  0.5629  0.0684 -0.4981
   61MOL   C13230252   3.160   1.524   0.244 -0.0144  0.2821  0.4347
   61MOL   C13330253   3.046   1.433   0.205  0.2507 -0.1191 -0.1207
   61MOL   C13430254   2.960   1.386   0.322  0.4912  0.1757  0.3193
   61MOL   C13530255   2.814   1.367   0.280 -0.0184  0.6928 -0.0380
   61MOL   H13630256   3.416   1.086   0.681 -0.6236 -1.0584 -0.6366
   61MOL   H13730257   3.546   1.171   0.608 -0.5088  1.6854 -3.1457
   61MOL   H13830258   3.277   1.306   0.671 -0.5455  0.3916 -2.3078
   61MOL   H13930259   3.189   1.468   0.524 -0.8801 -0.8502  1.0115
   61MOL   H14030260   3.230   1.319   0.444 -0.7344  0.2702  0.2608
   61MOL   H14130261   3.328   1.397   0.261  0.9875 -0.3993  0.4482
   61MOL   H14230262   3.353   1.555   0.317  2.6535 -1.7895 -0.8332
   61MOL   H14330263   3.121   1.596   0.316 -0.0885 -1.0376  1.7574
   61MOL   H14430264   3.184   1.582   0.155  3.2307  0.3146  1.2642
   61MOL   H14530265   2.983   1.482   0.131  1.2918 -0.2467 -1.1126
   61MOL   H14630266   3.081   1.344   0.153 -0.1876 -0.0482 -0.5377
   61MOL   H14730267   2.999   1.304   0.382 -0.1825  1.1478  2.1471
   61MOL   H14830268   2.959   1.463   0.400 -1.4996 -1.4041  1.8880
   61MOL   H14930269   2.764   1.326   0.367  1.0226 -0.4814  0.0141
   61MOL   H15030270   2.767   1.460   0.248 -4.4722 -1.7232 -0.8089
   61MOL   H15130271   2.803   1.297   0.197  1.3148 -0.0170  0.3651
   61MOL   C15230272   3.464   1.379   0.761 -0.1633 -0.5718 -0.1709
   61MOL   C15330273   3.413   1.337   0.908 -0.4824  0.3494  0.6569
   61MOL   O15430274   3.460   1.205   0.914  0.1510 -0.2463 -0.2009
   61MOL   C15530275   3.390   1.124   1.009  0.1667  0.3165 -0.2934
   61MOL   C15630276   3.442   0.977   1.001 -0.0463  0.3768  0.2278
   61MOL   C15730277   3.591   0.963   1.033  0.2306 -0.6330 -0.2473
   61MOL   C15830278   3.645   0.825   0.980 -0.3169  0.6813  1.0792
   61MOL   C15930279   3.776   0.772   1.039 -0.3678 -0.1647  0.2085
   61MOL   C16030280   3.849   0.677   0.941  0.1180 -0.4870  0.0063
   61MOL   H16130281   3.573   1.377   0.759 -0.1718  0.1382 -1.4708
   61MOL   H16230282   3.439   1.485   0.757 -1.1120 -0.7698  0.3439
   61MOL   H16330283   3.304   1.338   0.909 -0.4787  2.1119  0.8167
   61MOL   H16430284   3.283   1.123   0.988 -0.3751 -0.5060  2.3819
   61MOL   H16530285   3.386   1.158   1.112  3.7483 -1.5074  0.5635
   61MOL   H16630286   3.428   0.943   0.899  2.7638 -0.4533  0.0640
   61MOL   H16730287   3.381   0.921   1.072  0.8180 -1.3955 -0.3897
   61MOL   H16830288   3.635   1.048   0.981 -1.9220  1.5841  1.4626
   61MOL   H16930289   3.602   0.987   1.138 -1.7918 -2.3993  0.4188
   61MOL   H17030290   3.570   0.748   0.995  0.8482 -0.8883 -0.7935
   61MOL   H17130291   3.650   0.848   0.874 -1.0668  3.7935  1.6671
   61MOL   H17230292   3.845   0.854   1.057 -1.2552  0.2027  1.9987
   61MOL   H17330293   3.749   0.720   1.130 -1.6825  0.9803  0.4853
   61MOL   H17430294   3.955   0.675   0.964  0.6093  3.3197 -1.5901
   61MOL   H17530295   3.796   0.582   0.952 -0.4453 -0.2247 -0.3828
   61MOL   H17630296   3.830   0.708   0.838  1.8043  1.8624  0.3773
   61MOL   C17730297   3.477   1.423   1.021 -0.3642  0.3306  0.4691
   61MOL   C17830298   3.422   1.568   1.048  0.4538  0.2729 -0.2692
   61MOL   O17930299   3.285   1.556   1.087  0.0581  0.6749  0.0042
   61MOL   C18030300   3.194   1.621   0.997 -0.6127  0.0060  0.2605
   61MOL   C18130301   3.061   1.595   1.050 -0.0996 -0.8121  0.2906
   61MOL   C18230302   3.039   1.654   1.186 -0.2813 -0.2380 -0.2079
   61MOL   C18330303   2.891   1.640   1.229 -0.0064 -0.1499  0.1560
   61MOL   C18430304   2.867   1.520   1.320  0.2112 -0.0745  0.4700
   61MOL   C18530305   2.723   1.465   1.297  0.5067 -0.1838 -0.6411
   61MOL   H18630306   3.467   1.366   1.114  0.1821 -0.8394 -0.1802
   61MOL   H18730307   3.580   1.430   0.987 -0.4089  2.2892  0.6694
   61MOL   H18830308   3.438   1.625   0.957  2.1204  0.6575  0.2458
   61MOL   H18930309   3.212   1.588   0.895 -0.8237 -3.4544  1.2673
   61MOL   H19030310   3.202   1.730   0.995 -0.0330 -0.0468 -1.0608
   61MOL   H19130311   3.048   1.487   1.056 -0.0958 -0.6987  2.8803
   61MOL   H19230312   2.989   1.638   0.980  0.7529 -0.8044 -0.5933
   61MOL   H19330313   3.101   1.605   1.261 -1.8830  0.2365  1.4608
   61MOL   H19430314   3.062   1.761   1.187  1.0426 -0.4660 -2.4241
   61MOL   H19530315   2.864   1.734   1.277  0.0705  0.1064 -0.2950
   61MOL   H19630316   2.830   1.636   1.139  0.9071 -0.1904 -0.4704
   61MOL   H19730317   2.940   1.449   1.281  0.5561  1.7201 -2.2862
   61MOL   H19830318   2.884   1.542   1.426  2.4360 -2.6347  0.7008
   61MOL   H19930319   2.642   1.537   1.312 -1.2214 -1.7807 -2.0184
   61MOL   H20030320   2.706   1.427   1.196  0.5275 -1.5382 -0.1538
   61MOL   H20130321   2.704   1.377   1.358 -0.0422  0.3929  0.0307
   61MOL   C20230322   3.489   1.636   1.169  0.5087  1.0516  0.3922
   61MOL   C20330323   3.437   1.781   1.191 -0.2175  0.1096  0.1025
   61MOL   O20430324   3.449   1.855   1.067 -0.5727 -0.1754  0.1956
   61MOL   C20530325   3.356   1.957   1.045 -0.8824 -0.6498 -0.1486
   61MOL   C20630326   3.368   2.007   0.898  0.4028 -0.8476 -0.5431
   61MOL   C20730327   3.278   2.127   0.872  0.4600  0.4304 -0.6177
   61MOL   C20830328   3.302   2.180   0.729 -0.0054 -0.2106 -0.5427
   61MOL   C20930329   3.433   2.260   0.707 -0.3105 -0.2850 -1.1862
   61MOL   C21030330   3.454   2.299   0.561  0.3601 -0.1763  0.1720
   61MOL   H21130331   3.493   1.572   1.257  0.5410  0.2098 -0.2133
   61MOL   H21230332   3.596   1.636   1.149  0.2388 -4.1097 -2.1171
   61MOL   H21330333   3.331   1.763   1.211 -0.2005  0.5879  0.6463
   61MOL   H21430334   3.383   2.032   1.120  0.9636 -0.6739 -0.7742
   61MOL   H21530335   3.256   1.925   1.071 -0.6653 -1.2321 -0.0354
   61MOL   H21630336   3.334   1.926   0.834 -0.2946 -1.2245  0.2943
   61MOL   H21730337   3.472   2.034   0.879  0.5177 -0.2033  0.9329
   61MOL   H21830338   3.176   2.108   0.903  0.3745 -0.3777 -1.3737
   61MOL   H21930339   3.306   2.209   0.938  1.4676 -0.8105  0.5286
   61MOL   H22030340   3.304   2.100   0.654 -1.7167 -0.0115 -0.8223
   61MOL   H22130341   3.221   2.252   0.715 -0.9197 -1.4193 -1.6167
   61MOL   H22230342   3.441   2.356   0.760 -1.2151 -1.5057  1.2245
   61MOL   H22330343   3.526   2.216   0.742 -0.3584  0.9191  0.5181
   61MOL   H22430344   3.527   2.230   0.519 -1.0717 -2.4873  1.3725
   61MOL   H22530345   3.361   2.287   0.505  0.3440 -1.4902  0.4703
   61MOL   H22630346   3.466   2.407   0.558  0.2151 -0.1660 -0.1149
   61MOL   C22730347   3.507   1.849   1.309  0.3563  0.0152 -0.4459
   61MOL   C22830348   3.435   1.816   1.445 -0.0590  0.0743  0.1310
   61MOL   O22930349   3.520   1.847   1.559 -0.8137 -0.2502  0.7603
   61MOL   C23030350   3.616   1.750   1.601 -0.2589 -0.5534 -0.0615
   61MOL   C23130351   3.673   1.805   1.731  0.2995  0.8826  0.8019
   61MOL   C23230352   3.791   1.721   1.785  0.7024 -0.6998  0.4182
   61MOL   C23330353   3.838   1.775   1.917 -0.3325 -0.8968 -1.0276
   61MOL   C23430354   3.734   1.785   2.033  0.5151 -0.4328 -0.7491
   61MOL   C23530355   3.800   1.814   2.169  0.6076  0.3779  0.4983
   61MOL   H23630356   3.606   1.803   1.313 -0.2094 -1.3287 -1.6728
   61MOL   H23730357   3.512   1.958   1.304 -0.1224  0.1300  1.3444
   61MOL   H23830358   3.407   1.711   1.460 -0.1396  0.4703  3.1550
   61MOL   H23930359   3.686   1.753   1.518 -0.2893 -1.6458 -0.1342
   61MOL   H24030360   3.573   1.651   1.616  1.0228 -0.9914  0.8430
   61MOL   H24130361   3.586   1.798   1.796  0.3826 -0.7525  0.7551
   61MOL   H24230362   3.702   1.909   1.720  1.8892  0.3604 -0.2205
   61MOL   H24330363   3.752   1.621   1.798 -3.1367  0.7439  0.6501
   61MOL   H24430364   3.869   1.720   1.709  0.2443 -1.7239 -0.0417
   61MOL   H24530365   3.901   1.692   1.949  0.5054  0.1656  0.1256
   61MOL   H24630366   3.899   1.865   1.913 -1.3887  0.0762  2.5880
   61MOL   H24730367   3.662   1.862   2.005  1.0569 -0.5706 -2.5816
   61MOL   H24830368   3.666   1.701   2.042 -0.4229  0.2572 -1.3286
   61MOL   H24930369   3.848   1.912   2.164  1.2707  0.0380  0.1264
   61MOL   H25030370   3.730   1.801   2.251 -1.5953 -0.8354 -1.5228
   61MOL   H25130371   3.880   1.745   2.197  0.0309  0.0302  1.2845
   61MOL   C25230372   3.315   1.910   1.471  0.3438  0.0131  0.3678
   61MOL   C25330373   3.235   1.876   1.594 -0.1553  0.2096 -0.2267
   61MOL   O25430374   3.097   1.927   1.569  0.5630  0.7440  0.3805
   61MOL   C25530375   2.995   1.833   1.569  0.1150  1.0911  0.3239
   61MOL   C25630376   2.861   1.889   1.529 -0.0195  0.2050 -0.1221
   61MOL   C25730377   2.813   1.981   1.639 -0.0992  0.4856  0.2587
   61MOL   C25830378   2.680   2.051   1.600 -0.1334 -0.0125 -0.6175
   61MOL   C25930379   2.558   1.959   1.579  0.7591  0.0026  0.1213
   61MOL   C26030380   2.428   2.044   1.544 -0.0179  0.0396 -0.4667
   61MOL   H26130381   3.349   2.013   1.469 -1.1596  0.5095 -0.9254
   61MOL   H26230382   3.252   1.902   1.382  3.6211 -0.9576 -1.9681
   61MOL   H26330383   3.238   1.768   1.603 -0.0530  0.4042  2.5342
   61MOL   H26430384   2.989   1.787   1.668  2.1589  0.5446  0.2080
   61MOL   H26530385   3.024   1.755   1.498 -0.8885  0.6377  0.3906
   61MOL   H26630386   2.782   1.814   1.520 -1.7099  1.5305  2.8364
   61MOL   H26730387   2.867   1.937   1.431 -0.1503 -0.8779 -0.6713
   61MOL   H26830388   2.814   1.932   1.737 -1.3896 -1.2578 -0.5551
   61MOL   H26930389   2.885   2.061   1.649  0.7579 -0.4631  2.0275
   61MOL   H27030390   2.648   2.127   1.672 -2.7094 -0.1507 -1.5810
   61MOL   H27130391   2.694   2.105   1.507 -1.1466  2.3741  0.5575
   61MOL   H27230392   2.569   1.893   1.493  0.9300 -3.4132  2.6377
   61MOL   H27330393   2.528   1.903   1.668  3.8977 -1.8553  0.0640
   61MOL   H27430394   2.445   2.103   1.454 -0.0386  1.3899  0.4061
   61MOL   H27530395   2.342   1.978   1.534 -0.4476  0.7013 -1.0822
   61MOL   H27630396   2.404   2.104   1.631  0.4572  0.1458 -0.4044
   61MOL   C27730397   3.288   1.926   1.728  0.4002  0.2185 -0.5846
   61MOL   C27830398   3.306   2.078   1.734  0.5610 -0.2180  0.5652
   61MOL   O27930399   3.284   2.140   1.862 -0.4442 -0.5120 -0.1009
   61MOL   C28030400   3.149   2.169   1.878 -0.1385 -0.2946 -0.4470
   61MOL   C28130401   3.119   2.244   2.009  0.1554  0.1750 -0.1929
   61MOL   C28230402   3.156   2.394   2.005  0.3376  0.0664 -1.0944
   61MOL   C28330403   3.110   2.483   2.117  0.1266 -0.0795  0.0260
   61MOL   C28430404   3.158   2.630   2.100 -0.8047 -0.1468  0.0895
   61MOL   C28530405   3.122   2.733   2.207  0.2895 -0.2754  0.4327
   61MOL   H28630406   3.220   1.886   1.803  0.9768  2.3147  1.1033
   61MOL   H28730407   3.376   1.868   1.756  0.5682  0.5348 -0.4505
   61MOL   H28830408   3.256   2.124   1.648  1.8855 -0.4015 -0.3228
   61MOL   H28930409   3.096   2.074   1.892  1.9035 -1.1728  1.7994
   61MOL   H29030410   3.121   2.230   1.793 -2.1902  1.4710  1.4387
   61MOL   H29130411   3.150   2.188   2.097  0.6065 -0.6319 -0.8528
   61MOL   H29230412   3.010   2.234   2.000  0.1053 -2.1426  2.3337
   61MOL   H29330413   3.264   2.390   2.018  0.5190  4.7734 -0.2266
   61MOL   H29430414   3.140   2.431   1.904  0.2500  0.3923 -0.9614
   61MOL   H29530415   3.002   2.484   2.126  0.0146 -2.1187 -1.0178
   61MOL   H29630416   3.138   2.450   2.217 -1.9448 -0.8045  0.3868
   61MOL   H29730417   3.266   2.622   2.084 -0.8049  0.5997 -0.3318
   61MOL   H29830418   3.127   2.667   2.002  1.7801 -0.1891 -0.7993
   61MOL   H29930419   3.014   2.736   2.222 -0.0052 -0.2493 -1.5927
   61MOL   H30030420   3.163   2.694   2.300 -1.4407  3.4649  2.8811
   61MOL   H30130421   3.158   2.835   2.190 -0.4824  0.0377  0.6624
   61MOL   C30230422   3.453   2.127   1.729  0.0609 -0.0394 -0.3733
   61MOL   C30330423   3.478   2.281   1.707 -0.5099 -0.5578 -0.4194
   61MOL   O30430424   3.418   2.304   1.575  0.1712  0.2321 -0.1468
   61MOL   C30530425   3.390   2.438   1.537 -0.3385 -0.2063  0.1899
   61MOL   C30630426   3.337   2.416   1.395  0.1604  0.0737 -0.2775
   61MOL   C30730427   3.222   2.316   1.385 -0.1062  0.6872  0.5086
   61MOL   C30830428   3.172   2.306   1.244  0.2253 -0.6578 -0.1848
   61MOL   C30930429   3.075   2.186   1.234  0.2209 -0.0377 -0.0687
   61MOL   C31030430   2.941   2.210   1.302  0.8368 -0.1906  0.1268
   61MOL   H31130431   3.517   2.070   1.796  1.0825  0.1068 -1.2175
   61MOL   H31230432   3.492   2.094   1.633 -1.6661 -1.9684 -0.4397
   61MOL   H31330433   3.423   2.340   1.780  0.2913  1.3723 -1.3392
   61MOL   H31430434   3.479   2.501   1.544 -0.9571  0.7880 -0.5849
   61MOL   H31530435   3.314   2.487   1.598  0.2367  0.9039  0.0449
   61MOL   H31630436   3.417   2.371   1.336 -2.4825 -2.4001 -2.1045
   61MOL   H31730437   3.304   2.510   1.351  1.3763  0.8146  0.3780
   61MOL   H31830438   3.227   2.219   1.435  0.0760  0.6430  0.4041
   61MOL   H31930439   3.141   2.373   1.429 -2.9301 -2.0541 -0.9667
   61MOL   H32030440   3.125   2.400   1.216  1.4793  0.2730  0.7605
   61MOL   H32130441   3.252   2.289   1.172 -0.6159 -0.2612 -1.2198
   61MOL   H32230442   3.046   2.178   1.129  0.9613  0.6259 -0.3273
   61MOL   H32330443   3.120   2.095   1.272 -0.0036 -0.1892 -0.1643
   61MOL   H32430444   2.893   2.304   1.273 -0.9099 -1.3794 -0.9480
   61MOL   H32530445   2.872   2.127   1.286  1.0085 -0.8236  2.5702
   61MOL   H32630446   2.938   2.211   1.411  0.4668 -0.1569  0.1166
   61MOL   C32730447   3.627   2.311   1.717 -0.5862 -0.9872 -0.1346
   61MOL   C32830448   3.665   2.381   1.849 -0.5042  0.1913 -0.7651
   61MOL   O32930449   3.806   2.370   1.854 -0.1664  0.5032 -0.0895
   61MOL   C33030450   3.863   2.268   1.940 -0.1637 -0.0052 -0.1103
   61MOL   C33130451   3.891   2.324   2.078 -0.1533  0.1313 -0.3856
   61MOL   C33230452   4.014   2.411   2.082 -0.0853  0.2977 -0.6210
   61MOL   C33330453   4.036   2.494   2.207 -0.2438 -0.5773 -0.1258
   61MOL   C33430454   4.018   2.412   2.340  0.1424 -0.0112  0.0734
   61MOL   C33530455   4.060   2.501   2.458 -0.4594  0.0871  0.4858
   61MOL   H33630456   3.662   2.364   1.628  0.0990  0.9246  1.2362
   61MOL   H33730457   3.683   2.217   1.718 -0.3848 -0.8786 -0.9519
   61MOL   H33830458   3.621   2.337   1.938 -0.3001 -0.9320 -1.2009
   61MOL   H33930459   3.953   2.243   1.885 -1.0778 -0.5888 -1.3550
   61MOL   H34030460   3.799   2.181   1.955 -1.7098  0.5271 -3.2103
   61MOL   H34130461   3.912   2.239   2.144  1.5699  1.8719  1.3848
   61MOL   H34230462   3.807   2.378   2.122 -0.4897  0.4036 -1.3623
   61MOL   H34330463   4.105   2.355   2.060  0.2511  1.0506 -1.1614
   61MOL   H34430464   4.012   2.477   1.995 -0.7031 -0.7555 -1.4246
   61MOL   H34530465   4.140   2.527   2.200 -0.7482  0.5298 -3.1220
   61MOL   H34630466   3.972   2.580   2.228 -0.4232 -1.1100  1.6160
   61MOL   H34730467   3.909   2.400   2.342  0.1001  0.4058  2.4919
   61MOL   H34830468   4.075   2.319   2.330  0.9626  0.3881  0.9519
   61MOL   H34930469   4.028   2.471   2.558 -0.9624 -1.5388 -0.1499
   61MOL   H35030470   4.168   2.505   2.447 -0.5219 -0.5289 -0.3576
   61MOL   H35130471   4.013   2.599   2.452 -1.3460 -0.3527  0.2016
   61MOL   C35230472   3.629   2.526   1.859 -0.4839 -1.0179 -0.3437
   61MOL   C35330473   3.632   2.585   2.000 -0.5350  0.2809 -0.4414
   61MOL   O35430474   3.541   2.513   2.081  0.4445  0.1342 -0.3211
   61MOL   C35530475   3.575   2.510   2.222 -0.0484  1.1221  0.0177
   61MOL   C35630476   3.480   2.401   2.289 -0.4582 -0.1203 -0.6723
   61MOL   C35730477   3.491   2.272   2.215  1.0324  0.1937  0.0474
   61MOL   C35830478   3.430   2.163   2.310  0.2604  0.1779  0.0130
   61MOL   C35930479   3.441   2.028   2.242 -0.2412  0.3093  0.2027
   61MOL   C36030480   3.404   1.918   2.336  0.1461  0.0808  0.7242
   61MOL   H36130481   3.708   2.581   1.809 -1.1441  3.0311  2.7782
   61MOL   H36230482   3.538   2.555   1.807  0.4039  2.1791 -0.2310
   61MOL   H36330483   3.735   2.583   2.036 -1.5063 -0.8403  2.3601
   61MOL   H36430484   3.551   2.609   2.263 -1.5915  0.7124  0.1507
   61MOL   H36530485   3.680   2.491   2.243 -0.0210  1.4835  0.2131
   61MOL   H36630486   3.375   2.429   2.280 -0.9578 -1.0224  1.9133
   61MOL   H36730487   3.485   2.384   2.397 -0.6317 -2.1372 -0.9711
   61MOL   H36830488   3.441   2.292   2.121  0.2221 -0.2766  0.3740
   61MOL   H36930489   3.597   2.249   2.206  0.7835 -1.4389  1.0808
   61MOL   H37030490   3.482   2.163   2.406  0.2548  0.1335  0.0158
   61MOL   H37130491   3.327   2.187   2.336  0.5765 -0.0154  1.4730
   61MOL   H37230492   3.393   2.031   2.145 -1.7829 -0.9366  0.9152
   61MOL   H37330493   3.547   2.010   2.220 -0.1044  0.8160  0.4404
   61MOL   H37430494   3.419   1.824   2.282  2.2637  0.2509  0.9746
   61MOL   H37530495   3.457   1.923   2.431  1.8615 -0.8612 -0.1620
   61MOL   H37630496   3.299   1.934   2.359 -0.7109 -1.0559 -2.0912
   61MOL   C37730497   3.590   2.733   2.005  0.2640 -0.3135  0.3167
   61MOL   C37830498   3.693   2.828   1.933  0.2533  0.3778  0.3636
   61MOL   O37930499   3.819   2.807   1.989 -0.0873  0.7391  1.0610
   61MOL   C38030500   3.922   2.794   1.889  0.4784 -0.1586 -0.7691
   61MOL   C38130501   4.062   2.761   1.955 -0.3595  0.3599 -0.4742
   61MOL   C38230502   4.139   2.887   2.009  0.4152  0.8172 -0.6548
   61MOL   C38330503   4.270   2.840   2.069  0.1701 -0.1779  0.5125
   61MOL   C38430504   4.336   2.952   2.142 -0.0401  0.4028 -0.3603
   61MOL   C38530505   4.457   2.900   2.216  0.1211 -0.4185  0.7388
   61MOL   H38630506   3.486   2.743   1.973  0.1646 -1.8242  0.1371
   61MOL   H38730507   3.593   2.763   2.110  2.6166  1.3521 -0.1818
   61MOL   H38830508   3.694   2.805   1.826 -0.3873  0.1637  0.4000
   61MOL   H38930509   3.922   2.893   1.845 -2.5625  0.1914 -0.1304
   61MOL   H39030510   3.915   2.719   1.811  2.1875 -0.7603 -0.3647
   61MOL   H39130511   4.118   2.702   1.882 -1.5592  0.2205 -1.3010
   61MOL   H39230512   4.037   2.689   2.033  0.2816  1.2069  0.5275
   61MOL   H39330513   4.144   2.957   1.925  1.6423 -2.6998 -3.6588
   61MOL   H39430514   4.082   2.929   2.092  1.1941  0.1472  0.2213
   61MOL   H39530515   4.252   2.759   2.140 -0.5170 -0.3471  0.1537
   61MOL   H39630516   4.345   2.808   1.997 -0.1265  0.0972  0.0824
   61MOL   H39730517   4.367   3.023   2.065 -0.6392  0.8192 -0.2222
   61MOL   H39830518   4.258   2.999   2.203 -0.1750 -1.0522  0.6222
   61MOL   H39930519   4.517   2.829   2.158  0.6793 -2.2237  3.4018
   61MOL   H40030520   4.521   2.983   2.248 -1.5909  1.5223 -0.7656
   61MOL   H40130521   4.424   2.859   2.311  1.1455 -2.2013  0.3446
   61MOL   C40230522   3.644   2.973   1.944 -0.1985 -0.4436  0.5442
   61MOL   C40330523   3.510   3.018   1.878 -0.0262 -0.3220  0.6625
   61MOL   O40430524   3.521   2.973   1.734 -0.1018 -0.0762  0.0194
   61MOL   C40530525   3.400   2.914   1.676  0.0245  0.0291 -0.0005
   61MOL   C40630526   3.435   2.855   1.540 -0.0684  0.2530 -0.0535
   61MOL   C40730527   3.328   2.777   1.465  0.7244 -0.0739  0.2753
   61MOL   C40830528   3.207   2.874   1.430 -0.4682  0.2393  0.2221
   61MOL   C40930529   3.102   2.784   1.347  0.7140  0.3534  0.3634
   61MOL   C41030530   3.128   2.774   1.197 -0.4396  0.2572 -0.0018
   61MOL   H41130531   3.721   3.026   1.888 -0.4064  0.0767  0.7488
   61MOL   H41230532   3.656   3.002   2.048  1.2527 -0.2989  0.3472
   61MOL   H41330533   3.434   2.961   1.930  1.4613 -0.4631  2.7611
   61MOL   H41430534   3.323   2.991   1.673  0.5607  0.6672  1.7935
   61MOL   H41530535   3.359   2.847   1.751 -0.6352  0.6235  0.1812
   61MOL   H41630536   3.513   2.780   1.549 -0.8235 -0.6691 -1.0087
   61MOL   H41730537   3.475   2.938   1.481 -0.7706  0.4456 -0.2691
   61MOL   H41830538   3.358   2.737   1.368 -0.0734  0.1748 -0.0829
   61MOL   H41930539   3.278   2.695   1.516  1.2548 -1.1104 -0.8361
   61MOL   H42030540   3.160   2.900   1.525 -0.3081  2.1078 -0.1792
   61MOL   H42130541   3.245   2.960   1.375 -1.6769  0.7846  0.2211
   61MOL   H42230542   3.090   2.685   1.389 -2.1222  0.2875 -0.4849
   61MOL   H42330543   3.001   2.822   1.362  0.1378 -1.1668  0.4051
   61MOL   H42430544   3.086   2.678   1.167 -1.3437 -0.0266  2.0971
   61MOL   H42530545   3.085   2.856   1.140  2.8955  2.2618  0.2157
   61MOL   H42630546   3.234   2.767   1.170  0.2216  1.0519  2.2172
   61MOL   C42730547   3.509   3.169   1.877  0.6404 -0.3720  0.5759
   61MOL   C42830548   3.368   3.230   1.909 -0.2416  0.2236 -0.2356
   61MOL   O42930549   3.343   3.235   2.048  0.1093  0.1581  0.2619
   61MOL   C43030550   3.313   3.104   2.115  0.8240 -0.8278  0.1768
   61MOL   C43130551   3.247   3.122   2.252 -0.1565  0.4378 -1.0682
   61MOL   C43230552   3.099   3.154   2.239  0.1435  0.4559 -1.0801
   61MOL   C43330553   3.025   3.185   2.369 -0.1529  0.1793 -0.7211
   61MOL   C43430554   2.881   3.226   2.340 -0.4646 -0.1853  0.0374
   61MOL   C43530555   2.786   3.223   2.468 -0.1342  0.0510 -0.7143
   61MOL   H43630556   3.577   3.227   1.939  1.9496 -0.9035 -0.3459
   61MOL   H43730557   3.536   3.192   1.774  0.5839 -1.1649  0.3822
   61MOL   H43830558   3.293   3.168   1.859 -0.5716 -0.2821  0.8708
   61MOL   H43930559   3.404   3.045   2.125  0.2788 -1.3358  2.5084
   61MOL   H44030560   3.249   3.042   2.052  0.7888  0.0416 -0.6574
   61MOL   H44130561   3.294   3.190   2.323 -1.8727 -0.0636  0.5843
   61MOL   H44230562   3.249   3.032   2.314  1.4665  1.9936  1.1767
   61MOL   H44330563   3.093   3.243   2.177 -0.2140  0.8117 -0.5373
   61MOL   H44430564   3.049   3.081   2.175 -0.7441  1.3239 -1.3782
   61MOL   H44530565   3.024   3.097   2.432  2.9327 -0.8662 -2.0008
   61MOL   H44630566   3.074   3.262   2.430  1.4443 -0.6430 -0.9335
   61MOL   H44730567   2.878   3.325   2.294  0.3029 -0.1862 -0.0262
   61MOL   H44830568   2.833   3.161   2.266  0.5410 -2.9465  1.7353
   61MOL   H44930569   2.796   3.128   2.522  0.7149 -1.5656 -3.5747
   61MOL   H45030570   2.827   3.301   2.532 -1.4340  1.3165 -1.4191
   61MOL   H45130571   2.683   3.237   2.437 -0.3015  0.4709  0.0444
   61MOL   C45230572   3.337   3.367   1.848 -0.8855  0.3995 -0.6939
   61MOL   C45330573   3.330   3.360   1.686  0.6623  0.7093 -0.4916
   61MOL   O45430574   3.356   3.482   1.623  0.2569 -0.2160  0.4935
   61MOL   C45530575   3.486   3.535   1.624 -0.7088 -0.3833 -0.0672
   61MOL   C45630576   3.552   3.490   1.493 -0.0295  0.6821  0.3180
   61MOL   C45730577   3.477   3.556   1.377  0.5954  0.4379 -0.8160
   61MOL   C45830578   3.546   3.510   1.246 -0.5837  0.4541 -0.4502
   61MOL   C45930579   3.462   3.559   1.123 -0.6624 -0.9874  0.6004
   61MOL   C46030580   3.526   3.546   0.981  0.2457 -0.7703 -0.0389
   61MOL   H46130581   3.242   3.409   1.883 -0.4187  0.9083 -0.0271
   61MOL   H46230582   3.414   3.438   1.878 -0.1223 -1.2304  1.2918
   61MOL   H46330583   3.407   3.294   1.646  0.6866  0.3213  0.1684
   61MOL   H46430584   3.542   3.513   1.715 -0.7780  0.3855  0.1680
   61MOL   H46530585   3.472   3.643   1.622  0.6803 -0.1938 -0.2519
   61MOL   H46630586   3.552   3.382   1.501  0.1504  0.8321  3.1613
   61MOL   H46730587   3.657   3.516   1.505  0.3930 -0.1090 -1.5662
   61MOL   H46830588   3.371   3.532   1.367  0.5479 -0.2844  1.2069
   61MOL   H46930589   3.485   3.664   1.389 -0.0255  0.7254 -2.7768
   61MOL   H47030590   3.646   3.552   1.247  0.1726 -1.3148  0.5952
   61MOL   H47130591   3.547   3.401   1.235 -1.2959  0.3530  0.4052
   61MOL   H47230592   3.375   3.493   1.118 -2.4207  1.3671 -0.7156
   61MOL   H47330593   3.430   3.662   1.138 -0.1473 -0.8203  0.5700
   61MOL   H47430594   3.575   3.449   0.975 -0.4470 -1.0732 -0.9294
   61MOL   H47530595   3.445   3.548   0.908 -1.8130 -1.1732  2.1886
   61MOL   H47630596   3.600   3.625   0.968 -1.6756  1.3729  1.4365
   61MOL   C47730597   3.194   3.296   1.636  0.6990  0.0306 -0.3589
   61MOL   C47830598   3.178   3.295   1.486 -0.5255 -0.2498 -0.3673
   61MOL   O47930599   3.081   3.202   1.447 -0.0668  0.1285  0.4716
   61MOL   C48030600   3.053   3.204   1.304 -0.0103 -0.1845 -0.7322
   61MOL   C48130601   2.918   3.125   1.275 -0.5113 -0.0293 -0.1752
   61MOL   C48230602   2.852   3.155   1.139  0.2438  0.3538  0.3052
   61MOL   C48330603   2.842   3.035   1.039  0.5522 -0.1101  0.1362
   61MOL   C48430604   2.811   3.083   0.895  0.5940 -0.2816  0.1073
   61MOL   C48530605   2.775   2.973   0.798 -0.1082 -0.3657 -0.6059
   61MOL   H48630606   3.195   3.192   1.668  1.5248 -0.6260 -2.4287
   61MOL   H48730607   3.105   3.344   1.676  1.7794 -1.0224  3.5447
   61MOL   H48830608   3.161   3.396   1.449  0.0014 -0.2094 -0.5068
   61MOL   H48930609   3.142   3.172   1.251  0.5057  0.4529 -0.2458
   61MOL   H49030610   3.031   3.307   1.276 -0.8845 -0.9486 -2.9910
   61MOL   H49130611   2.848   3.151   1.355 -0.8829  0.3159 -0.6110
   61MOL   H49230612   2.940   3.020   1.293 -0.6681  0.4640  3.4570
   61MOL   H49330613   2.752   3.195   1.153  0.1444  0.5541 -0.9534
   61MOL   H49430614   2.910   3.234   1.090 -1.4491  0.2560 -1.9107
   61MOL   H49530615   2.931   2.971   1.042  1.6151  1.3729  0.6663
   61MOL   H49630616   2.760   2.974   1.076 -2.0261  2.4064 -1.2568
   61MOL   H49730617   2.735   3.162   0.893  1.0933  0.2114  0.3745
   61MOL   H49830618   2.903   3.126   0.854  1.4425 -1.3254  0.8966
   61MOL   H49930619   2.745   3.002   0.697 -0.4523  0.8568 -0.1578
   61MOL   H50030620   2.856   2.900   0.793  0.5570  0.2966  0.2948
   61MOL   H50130621   2.696   2.907   0.831 -0.5120  0.1881 -0.4646
   61MOL   H50230622   3.274   3.274   1.439 -0.5923 -0.0084 -0.6125
   62MOL     C130623   6.803   2.433   5.131 -0.0046 -0.1212  0.6301
   62MOL     C230624   6.936   2.488   5.188  0.3003 -0.3506 -0.0329
   62MOL     O330625   6.960   2.427   5.310  0.2432  0.2046 -0.1337
   62MOL     C430626   7.092   2.380   5.330 -0.2418 -0.3292 -1.1191
   62MOL     C530627   7.122   2.368   5.486  0.0584 -0.5288  0.3137
   62MOL     C630628   7.055   2.246   5.556  0.2518 -0.6905  0.1450
   62MOL     C730629   7.066   2.237   5.701  0.8094  0.2513  0.0489
   62MOL     C830630   7.199   2.193   5.762 -0.0375  0.6312  0.0497
   62MOL     C930631   7.211   2.215   5.911 -0.2340  0.2172  0.5483
   62MOL    H1030632   6.721   2.435   5.203  1.2649 -1.0573  2.1322
   62MOL    H1130633   6.765   2.490   5.046  0.1018 -1.2366 -0.1800
   62MOL    H1230634   7.011   2.456   5.116  1.2071 -1.6113  1.4340
   62MOL    H1330635   7.172   2.439   5.285  1.1549 -0.6316  0.9048
   62MOL    H1430636   7.109   2.287   5.276 -0.9659  0.4784 -2.7566
   62MOL    H1530637   7.107   2.461   5.541  1.1827 -0.2646  0.1880
   62MOL    H1630638   7.227   2.341   5.497 -0.1145 -2.5798 -2.5014
   62MOL    H1730639   6.947   2.253   5.544  0.2012  0.7114  1.1911
   62MOL    H1830640   7.081   2.150   5.512 -0.4612 -0.2537 -1.2361
   62MOL    H1930641   7.029   2.335   5.734  1.4112  0.2336  0.7879
   62MOL    H2030642   6.988   2.169   5.736  1.7342 -0.1425  1.4006
   62MOL    H2130643   7.264   2.261   5.707 -0.4585 -0.1485 -1.4314
   62MOL    H2230644   7.235   2.092   5.741  0.3207  0.3732  1.8285
   62MOL    H2330645   7.315   2.223   5.941  0.5059 -0.7763 -1.6703
   62MOL    H2430646   7.173   2.314   5.940 -0.4656 -0.3046  2.1074
   62MOL    H2530647   7.168   2.133   5.969 -0.4362  0.4389  0.7137
   62MOL    H2630648   6.824   2.335   5.089  0.8554  0.0398  0.6825
   62MOL    C2730649   6.927   2.641   5.198 -0.7946 -0.8247  0.5600
   62MOL    C2830650   7.056   2.720   5.229 -0.1588 -0.7835  0.1062
   62MOL    O2930651   7.149   2.682   5.128 -0.0948  0.1283 -0.5040
   62MOL    C3030652   7.286   2.681   5.173  0.4716 -0.6742  0.0978
   62MOL    C3130653   7.363   2.578   5.078  1.0365 -0.1362  0.8866
   62MOL    C3230654   7.347   2.616   4.928  0.0205  0.1167 -0.1167
   62MOL    C3330655   7.430   2.743   4.888 -0.3784  0.3089  1.0011
   62MOL    C3430656   7.577   2.732   4.902  0.0318 -0.0617 -0.9412
   62MOL    C3530657   7.637   2.647   4.789 -0.3928 -0.7370  0.1350
   62MOL    H3630658   6.886   2.695   5.112 -1.6056 -1.5301  0.4902
   62MOL    H3730659   6.855   2.666   5.276 -1.2802 -1.1793  0.2299
   62MOL    H3830660   7.093   2.697   5.328 -0.9462  1.0431  0.8496
   62MOL    H3930661   7.301   2.658   5.279 -1.3442 -1.6683  0.1593
   62MOL    H4030662   7.327   2.782   5.170 -2.0748  0.3482 -1.5434
   62MOL    H4130663   7.334   2.476   5.102 -0.5070  0.4521  1.6107
   62MOL    H4230664   7.468   2.586   5.104  1.1108 -2.0017  1.2090
   62MOL    H4330665   7.384   2.531   4.870  0.1502 -0.3895  0.6944
   62MOL    H4430666   7.242   2.622   4.902 -0.1700 -2.2876 -0.0553
   62MOL    H4530667   7.397   2.765   4.786  2.5002 -1.8381 -0.4646
   62MOL    H4630668   7.411   2.826   4.956  1.2254 -0.0744  1.9501
   62MOL    H4730669   7.621   2.832   4.907 -1.6680  0.6814 -0.6066
   62MOL    H4830670   7.603   2.682   4.995 -2.9875 -1.6811 -0.9005
   62MOL    H4930671   7.740   2.616   4.804 -0.2128  0.2476  0.9908
   62MOL    H5030672   7.581   2.557   4.766 -0.8535 -0.9081  1.8508
   62MOL    H5130673   7.631   2.705   4.697 -1.3746  0.1320  0.7253
   62MOL    C5230674   7.047   2.879   5.212  0.0102 -0.0924 -0.0225
   62MOL    C5330675   6.949   2.934   5.315  0.5800 -0.5163  0.0579
   62MOL    O5430676   7.004   2.914   5.446 -0.2285 -0.2051  0.0031
   62MOL    C5530677   6.925   2.829   5.537  0.4451  0.3466  0.5476
   62MOL    C5630678   6.930   2.891   5.673  0.4324 -0.0387  0.3159
   62MOL    C5730679   6.853   2.808   5.780  1.2744 -0.0718  0.1450
   62MOL    C5830680   6.855   2.866   5.923 -0.4246 -0.1378  0.2604
   62MOL    C5930681   6.803   2.768   6.034  0.4802 -0.1213 -0.1481
   62MOL    C6030682   6.740   2.840   6.158 -0.2490 -0.2171  0.4438
   62MOL    H6130683   7.008   2.907   5.115  1.2162 -1.4421 -0.9163
   62MOL    H6230684   7.146   2.924   5.217  0.1668 -0.3830 -0.4943
   62MOL    H6330685   6.852   2.887   5.306  0.3773  0.1745 -1.5797
   62MOL    H6430686   6.960   2.726   5.538 -0.8307 -0.1066 -0.1006
   62MOL    H6530687   6.821   2.832   5.505  0.3802 -3.5523  0.1069
   62MOL    H6630688   6.892   2.993   5.669  0.6047  0.2189  3.5567
   62MOL    H6730689   7.035   2.893   5.703  0.3381  0.8913  0.5926
   62MOL    H6830690   6.747   2.800   5.753  1.0225  0.5562  0.9568
   62MOL    H6930691   6.873   2.701   5.779 -1.3499 -0.6152  0.1630
   62MOL    H7030692   6.958   2.889   5.952  0.2517 -0.0341 -2.0754
   62MOL    H7130693   6.800   2.960   5.918  0.1702  0.2489  0.9263
   62MOL    H7230694   6.731   2.703   5.985 -1.0896 -0.1534  2.1453
   62MOL    H7330695   6.878   2.699   6.071 -0.1223  0.6455  2.6038
   62MOL    H7430696   6.818   2.871   6.228 -1.5337 -0.8430  2.1944
   62MOL    H7530697   6.688   2.928   6.120 -0.6806 -0.3997  0.6136
   62MOL    H7630698   6.670   2.776   6.212 -0.1540  1.0041  2.0603
   62MOL    C7730699   6.927   3.084   5.293  0.9244  0.1987  0.1087
   62MOL    C7830700   6.848   3.174   5.399 -0.0113 -0.4504 -0.1132
   62MOL    O7930701   6.709   3.135   5.416  0.2106 -0.1197 -0.2113
   62MOL    C8030702   6.641   3.118   5.289 -1.0979 -0.6383 -0.2066
   62MOL    C8130703   6.490   3.093   5.317  0.7390 -0.4785  0.0328
   62MOL    C8230704   6.452   2.986   5.418  0.2073  0.4701  1.1657
   62MOL    C8330705   6.307   2.989   5.467 -0.6485  0.1724  0.1683
   62MOL    C8430706   6.205   3.025   5.357 -0.5725 -0.1476  0.0212
   62MOL    C8530707   6.060   2.991   5.399  0.1596 -0.1012 -0.3954
   62MOL    H8630708   6.894   3.095   5.190  0.9284  0.0555  0.0920
   62MOL    H8730709   7.029   3.122   5.286  0.6851  0.3694 -3.2559
   62MOL    H8830710   6.902   3.146   5.489  1.5842 -0.3977 -1.0432
   62MOL    H8930711   6.681   3.027   5.244 -3.3799 -2.6652  1.7015
   62MOL    H9030712   6.654   3.212   5.236  1.2063 -0.1174  1.1701
   62MOL    H9130713   6.439   3.074   5.222 -1.4742  1.6986  0.7400
   62MOL    H9230714   6.452   3.188   5.354  0.1663 -0.6670 -0.0609
   62MOL    H9330715   6.485   2.890   5.380 -1.0042  0.6942 -0.5092
   62MOL    H9430716   6.532   2.998   5.491  2.9786 -2.1857 -1.2666
   62MOL    H9530717   6.282   2.889   5.503 -6.7762  1.6097  0.3460
   62MOL    H9630718   6.298   3.045   5.560 -0.4938 -1.1710  0.9993
   62MOL    H9730719   6.215   3.129   5.325 -1.9653 -0.1334 -0.3981
   62MOL    H9830720   6.232   2.959   5.275 -0.3713 -1.8400  1.4326
   62MOL    H9930721   6.028   2.898   5.352 -1.2887 -0.1440  0.6246
   62MOL   H10030722   6.060   2.967   5.505 -1.7085 -0.1695 -0.3856
   62MOL   H10130723   5.995   3.069   5.359  1.1556  1.0455  0.1777
   62MOL   C10230724   6.857   3.322   5.390 -0.6616 -1.0107  0.5439
   62MOL   C10330725   7.000   3.385   5.373  0.3325  0.3053 -0.4996
   62MOL   O10430726   7.062   3.368   5.243  0.4525 -0.6156 -0.5821
   62MOL   C10530727   7.007   3.436   5.134 -0.8769 -0.0830 -0.0383
   62MOL   C10630728   7.091   3.386   5.014 -0.0535 -0.2381  0.9790
   62MOL   C10730729   7.076   3.238   4.990 -0.1958 -0.3410 -0.6645
   62MOL   C10830730   7.163   3.177   4.878  0.1212  0.0673  0.8600
   62MOL   C10930731   7.309   3.168   4.913 -0.7285  0.1181  0.5469
   62MOL   C11030732   7.385   3.093   4.796  0.0636 -0.2161  0.7390
   62MOL   H11130733   6.788   3.349   5.309  1.1494  0.4551 -0.5558
   62MOL   H11230734   6.793   3.356   5.472  1.5090  1.5532  1.2330
   62MOL   H11330735   7.067   3.327   5.435 -0.1191  1.1792  0.8192
   62MOL   H11430736   7.001   3.545   5.144  1.6213  0.0924 -0.0788
   62MOL   H11530737   6.903   3.405   5.125 -0.9001  0.0158 -0.1109
   62MOL   H11630738   7.197   3.406   5.030  0.1787 -1.2115  0.6327
   62MOL   H11730739   7.050   3.439   4.928 -1.9314 -0.0366  1.9529
   62MOL   H11830740   7.102   3.179   5.078  0.5971  0.3607 -0.4264
   62MOL   H11930741   6.971   3.213   4.975 -1.6627  3.4084  2.2970
   62MOL   H12030742   7.121   3.078   4.857  0.2488  0.5016 -1.6079
   62MOL   H12130743   7.148   3.239   4.790  3.8678  1.4727  1.1181
   62MOL   H12230744   7.360   3.263   4.931 -0.6450  0.5965 -1.9603
   62MOL   H12330745   7.314   3.106   5.002 -0.6887 -1.1591 -0.3290
   62MOL   H12430746   7.362   3.145   4.703  0.0856 -1.1868  0.1849
   62MOL   H12530747   7.493   3.095   4.808  0.3379  0.1470 -1.5814
   62MOL   H12630748   7.351   2.989   4.801  2.3513 -0.9812  1.0504
   62MOL   C12730749   7.003   3.533   5.421  0.6503  0.0104  0.0770
   62MOL   C12830750   7.021   3.551   5.572  0.0198 -0.2465  0.4254
   62MOL   O12930751   6.920   3.482   5.644  0.0871  0.0079  0.2229
   62MOL   C13030752   6.954   3.425   5.766 -0.7276  0.1273  0.5507
   62MOL   C13130753   6.819   3.403   5.842  0.2614 -0.3620 -0.1454
   62MOL   C13230754   6.734   3.302   5.765  0.2777  0.0542 -0.2007
   62MOL   C13330755   6.629   3.223   5.850 -0.5674 -0.4790  0.1698
   62MOL   C13430756   6.550   3.100   5.795 -0.4685 -0.3039  0.7179
   62MOL   C13530757   6.442   3.060   5.894  0.2382 -0.0886 -0.6146
   62MOL   H13630758   7.080   3.586   5.365  0.2301  1.1502  0.5500
   62MOL   H13730759   6.908   3.579   5.392  0.8934  0.8703  0.6007
   62MOL   H13830760   7.117   3.501   5.583  0.7854  1.5017  2.0878
   62MOL   H13930761   7.020   3.502   5.807 -0.1267  0.3319 -0.7556
   62MOL   H14030762   7.008   3.331   5.754 -0.8571  0.0012  0.9665
   62MOL   H14130763   6.774   3.502   5.843  2.1415  0.5054  0.8655
   62MOL   H14230764   6.828   3.385   5.949  0.2851 -0.3868 -0.1515
   62MOL   H14330765   6.682   3.347   5.681 -2.9826 -1.1650  1.0789
   62MOL   H14430766   6.810   3.229   5.737 -0.0800 -0.8035  0.9876
   62MOL   H14530767   6.674   3.198   5.946 -1.9464 -0.1053  0.9183
   62MOL   H14630768   6.559   3.302   5.877 -0.2810 -0.6342  1.4096
   62MOL   H14730769   6.506   3.117   5.697 -1.8271 -0.7689  1.2336
   62MOL   H14830770   6.618   3.017   5.777  0.3726 -0.1782  3.1035
   62MOL   H14930771   6.379   3.141   5.931  0.8634  0.0792  0.0936
   62MOL   H15030772   6.385   2.975   5.857  1.0457  0.5531 -3.4196
   62MOL   H15130773   6.493   3.026   5.985 -1.1142 -1.1965 -0.2475
   62MOL   C15230774   7.017   3.710   5.604  0.1141  0.0928 -0.6795
   62MOL   C15330775   7.141   3.786   5.560  0.0025  0.7079  0.2849
   62MOL   O15430776   7.125   3.924   5.588  0.5029  0.1859  0.9417
   62MOL   C15530777   7.101   4.003   5.471  0.4825  0.3017  0.4645
   62MOL   C15630778   7.157   4.142   5.502  0.0952 -0.0126  0.4007
   62MOL   C15730779   7.154   4.238   5.380  0.0965 -0.4869  0.1955
   62MOL   C15830780   7.052   4.355   5.390 -0.8759 -0.1742 -0.1764
   62MOL   C15930781   6.910   4.310   5.404  0.5140  0.4960  0.0089
   62MOL   C16030782   6.833   4.393   5.504  0.0107  0.7056 -0.0686
   62MOL   H16130783   6.918   3.751   5.584 -1.4200 -1.6114  2.8363
   62MOL   H16230784   7.020   3.719   5.713 -1.3600 -1.4504 -0.4825
   62MOL   H16330785   7.152   3.779   5.451 -0.9668  1.9602  0.0939
   62MOL   H16430786   6.995   4.006   5.446  0.9540  1.7765 -1.4450
   62MOL   H16530787   7.148   3.968   5.379  1.7894  0.3026  1.1187
   62MOL   H16630788   7.260   4.146   5.536  0.2773 -0.3047 -0.1217
   62MOL   H16730789   7.110   4.183   5.591  1.0615  1.2148  0.3618
   62MOL   H16830790   7.253   4.282   5.369  0.0152 -0.1930  0.6147
   62MOL   H16930791   7.146   4.186   5.285  0.4270 -1.1907  0.5456
   62MOL   H17030792   7.079   4.415   5.477  2.3674  0.2790 -1.4095
   62MOL   H17130793   7.058   4.421   5.303 -0.6934 -0.6429 -0.5209
   62MOL   H17230794   6.877   4.326   5.302  1.7950 -1.9450 -0.8290
   62MOL   H17330795   6.900   4.203   5.420  1.0998  0.0379 -2.5254
   62MOL   H17430796   6.725   4.400   5.488  0.2452 -1.0405 -2.7586
   62MOL   H17530797   6.847   4.365   5.608 -2.1477  0.6131  0.2168
   62MOL   H17630798   6.859   4.498   5.494 -0.5455  0.5571 -3.7931
   62MOL   C17730799   7.274   3.742   5.616 -0.0225  0.3557 -0.3330
   62MOL   C17830800   7.402   3.761   5.533  0.5577  0.4788  0.2345
   62MOL   O17930801   7.384   3.692   5.410 -0.3463  0.1921 -0.2727
   62MOL   C18030802   7.432   3.557   5.399 -0.3493 -0.0101 -0.3130
   62MOL   C18130803   7.422   3.498   5.257 -0.1663  0.1332 -0.3207
   62MOL   C18230804   7.506   3.578   5.155 -0.0880  0.0594 -0.0175
   62MOL   C18330805   7.507   3.523   5.013  0.5888 -0.0032  0.0842
   62MOL   C18430806   7.591   3.596   4.910  0.7501  0.5197 -0.8789
   62MOL   C18530807   7.579   3.527   4.776 -0.2026 -0.2155 -0.3686
   62MOL   H18630808   7.292   3.789   5.713  2.4808 -1.1332 -0.0269
   62MOL   H18730809   7.264   3.635   5.635  0.9234  0.8981  3.6237
   62MOL   H18830810   7.492   3.733   5.589 -0.6475 -0.8591  1.5749
   62MOL   H18930811   7.380   3.496   5.473 -2.7434 -0.5048 -2.3226
   62MOL   H19030812   7.537   3.559   5.429 -0.4189 -2.3316  0.1658
   62MOL   H19130813   7.317   3.502   5.229 -0.0601 -2.2015 -1.2002
   62MOL   H19230814   7.450   3.392   5.252  1.0788  0.3566  1.5155
   62MOL   H19330815   7.476   3.683   5.148  0.4512  0.1390 -1.2504
   62MOL   H19430816   7.609   3.587   5.189 -0.6697  1.7994  1.3393
   62MOL   H19530817   7.541   3.419   5.010 -0.8310 -0.5476  1.9848
   62MOL   H19630818   7.406   3.521   4.974  1.0933 -0.8206 -1.2147
   62MOL   H19730819   7.560   3.700   4.900  0.0981  0.3566 -0.5258
   62MOL   H19830820   7.692   3.615   4.948  0.0900  1.0894  0.6076
   62MOL   H19930821   7.474   3.534   4.746  0.0051 -1.6016 -1.4662
   62MOL   H20030822   7.645   3.574   4.704  2.0308  0.3022  1.9437
   62MOL   H20130823   7.609   3.423   4.790  0.9277  0.2957  1.1921
   62MOL   C20230824   7.440   3.909   5.502  0.3101  0.2388  0.1209
   62MOL   C20330825   7.580   3.917   5.438  0.0653  0.7196  0.0866
   62MOL   O20430826   7.681   3.892   5.542  0.4795 -0.3090 -0.1104
   62MOL   C20530827   0.030   3.855   5.482  0.0503 -0.1002  0.8096
   62MOL   C20630828   0.118   3.794   5.591 -0.5230 -0.7387  0.2772
   62MOL   C20730829   0.260   3.757   5.533 -0.0422  0.4350  0.3138
   62MOL   C20830830   0.362   3.747   5.647 -0.1441 -0.0815 -0.1332
   62MOL   C20930831   0.504   3.716   5.589 -0.2178 -0.3050 -0.0198
   62MOL   C21030832   0.562   3.840   5.520  0.4544 -0.0197  0.0925
   62MOL   H21130833   7.361   3.944   5.436 -1.7191 -0.6492  1.9946
   62MOL   H21230834   7.431   3.966   5.595 -1.2245  1.1752 -0.5907
   62MOL   H21330835   7.576   3.849   5.353 -2.0828 -1.2285  1.6575
   62MOL   H21430836   0.083   3.942   5.443  0.8375 -0.5946  0.7914
   62MOL   H21530837   0.030   3.778   5.405 -0.9185  2.0733 -1.4254
   62MOL   H21630838   0.058   3.712   5.632 -1.4741 -0.6452 -0.9263
   62MOL   H21730839   0.132   3.868   5.670  0.1653 -0.9336  0.3491
   62MOL   H21830840   0.259   3.666   5.473 -1.6302  0.1987  0.6976
   62MOL   H21930841   0.285   3.843   5.470 -1.1459  0.4177 -0.1515
   62MOL   H22030842   0.358   3.841   5.702  0.4655 -0.0526 -0.1313
   62MOL   H22130843   0.323   3.669   5.712 -0.3135 -0.7692 -1.0624
   62MOL   H22230844   0.563   3.698   5.679 -0.4841  0.0713  0.2350
   62MOL   H22330845   0.495   3.630   5.523  3.3004 -0.6058 -0.1588
   62MOL   H22430846   0.667   3.851   5.490 -0.3626  0.5538 -2.6701
   62MOL   H22530847   0.510   3.837   5.425  2.5370  1.1774 -1.1120
   62MOL   H22630848   0.541   3.925   5.585  1.7864  1.5893 -1.5236
   62MOL   C22730849   7.606   4.066   5.389 -0.0951 -0.1653 -1.2093
   62MOL   C22830850   7.539   4.112   5.261  0.1360 -0.3625  0.3561
   62MOL   O22930851   7.595   4.245   5.234  0.0382  0.0297 -0.5711
   62MOL   C23030852   7.538   4.351   5.310  0.4550  0.9159  0.1787
   62MOL   C23130853   7.615   4.480   5.282  0.2303  0.3631  0.3468
   62MOL   C23230854   7.732   4.511   5.383  0.2906  0.4707  0.9032
   62MOL   C23330855   0.007   4.658   5.401 -0.2967 -0.7454 -0.2863
   62MOL   C23430856   0.093   4.695   5.284  0.2642  0.2015  0.6840
   62MOL   C23530857   0.101   4.846   5.257 -0.0816  0.9902  0.6001
   62MOL   H23630858   7.575   4.128   5.474 -0.6544  0.6345 -1.9808
   62MOL   H23730859   7.713   4.083   5.378  0.0673  0.1652  0.6378
   62MOL   H23830860   7.431   4.102   5.278  0.5700 -1.0149  2.9595
   62MOL   H23930861   7.522   4.336   5.417 -0.5060  2.3070  0.2385
   62MOL   H24030862   7.439   4.365   5.267  0.4130 -2.4056 -0.9358
   62MOL   H24130863   7.553   4.570   5.288  0.5716  0.6175  0.0267
   62MOL   H24230864   7.644   4.484   5.177  0.2604  0.4366  0.3586
   62MOL   H24330865   7.699   4.477   5.481 -1.5349 -0.1706  0.1060
   62MOL   H24430866   0.038   4.448   5.353  0.3368  1.3097 -0.8146
   62MOL   H24530867   7.700   4.728   5.406  0.3991  0.0312  1.1273
   62MOL   H24630868   0.054   4.675   5.498 -1.3460 -0.2642  0.1482
   62MOL   H24730869   0.196   4.666   5.306  0.6254  1.2708  0.3940
   62MOL   H24830870   0.062   4.645   5.192  0.7671  1.2342 -0.0491
   62MOL   H24930871   0.180   4.869   5.186  0.9764 -0.0518  1.4289
   62MOL   H25030872   0.010   4.897   5.225 -1.3712 -0.3956  2.0245
   62MOL   H25130873   0.137   4.889   5.350  1.2371  0.3371  0.3991
   62MOL   C25230874   7.578   4.034   5.135  0.1091  0.6128 -0.3971
   62MOL   C25330875   7.494   4.076   5.014 -0.3325  0.1102 -0.3427
   62MOL   O25430876   7.393   3.971   4.991 -0.0710  0.2587  0.1295
   62MOL   C25530877   7.301   3.942   5.091  0.3451  0.0696 -0.2921
   62MOL   C25630878   7.215   3.834   5.053 -0.3009  0.6281 -0.3292
   62MOL   C25730879   7.163   3.851   4.909  0.5489 -0.0833  0.3579
   62MOL   C25830880   7.060   3.742   4.863  0.1550 -0.5681  0.0281
   62MOL   C25930881   7.016   3.743   4.715 -0.2996  0.5613 -0.0247
   62MOL   C26030882   6.939   3.874   4.675  0.3746  0.3033 -0.3474
   62MOL   H26130883   7.681   4.051   5.103  0.6296  2.2286  1.9809
   62MOL   H26230884   7.573   3.927   5.156 -2.8634  0.3417 -2.2271
   62MOL   H26330885   7.446   4.170   5.040  0.6760  0.1820  1.2757
   62MOL   H26430886   7.237   4.028   5.113 -1.4295 -1.0103 -1.1387
   62MOL   H26530887   7.348   3.925   5.188  0.4910 -1.3913 -0.6004
   62MOL   H26630888   7.130   3.824   5.119 -1.3028 -1.3830 -1.8480
   62MOL   H26730889   7.261   3.735   5.062 -1.1061  0.3387  0.6484
   62MOL   H26830890   7.124   3.952   4.895 -1.1899 -0.8195 -0.3418
   62MOL   H26930891   7.249   3.848   4.843  0.4777 -0.5877  0.2873
   62MOL   H27030892   7.108   3.645   4.876  1.5006  0.1925  0.9105
   62MOL   H27130893   6.969   3.740   4.922  0.8636  1.6903  1.2817
   62MOL   H27230894   7.102   3.728   4.650 -1.0413 -1.3707 -0.5926
   62MOL   H27330895   6.956   3.654   4.697  4.1221 -2.4468 -0.6873
   62MOL   H27430896   7.007   3.959   4.685  0.9809 -0.1301 -0.7439
   62MOL   H27530897   6.912   3.863   4.570  0.4523  3.2287 -0.7199
   62MOL   H27630898   6.849   3.886   4.736  0.0818 -1.9945 -0.2829
   62MOL   C27730899   7.565   4.088   4.880 -0.2447 -0.8284 -0.4190
   62MOL   C27830900   7.669   4.207   4.873  0.4682  0.0429  0.1448
   62MOL   O27930901   7.751   4.195   4.755 -0.0861 -0.0233  0.3856
   62MOL   C28030902   0.087   4.118   4.777 -0.2708  0.4357 -0.0874
   62MOL   C28130903   0.161   4.101   4.643 -0.8846  0.5056  0.0802
   62MOL   C28230904   0.162   4.228   4.549  0.2766 -0.3042 -0.3231
   62MOL   C28330905   0.258   4.228   4.438 -0.4311 -0.6302  0.8056
   62MOL   C28430906   0.225   4.147   4.307  0.8054  0.3590 -0.4953
   62MOL   C28530907   0.335   4.149   4.193  0.7248  1.1342 -0.2400
   62MOL   H28630908   7.612   3.995   4.850 -1.0826 -1.2491 -0.4586
   62MOL   H28730909   7.489   4.093   4.801 -1.7616 -0.0860  1.0474
   62MOL   H28830910   7.726   4.215   4.965 -0.6543  0.6769  0.7947
   62MOL   H28930911   0.063   4.016   4.807  0.6681 -0.2452 -1.5969
   62MOL   H29030912   0.148   4.168   4.852  0.4608 -0.2268 -0.2308
   62MOL   H29130913   0.111   4.018   4.592 -0.1505  2.1436 -3.4291
   62MOL   H29230914   0.262   4.066   4.660  0.3062  2.5508 -2.4498
   62MOL   H29330915   0.057   4.228   4.519 -0.2034 -1.7728  1.2511
   62MOL   H29430916   0.172   4.322   4.604 -0.9292  0.1861 -0.9271
   62MOL   H29530917   0.280   4.332   4.413  0.5757 -0.4227  2.4813
   62MOL   H29630918   0.354   4.190   4.471 -0.8499 -1.0779  1.5202
   62MOL   H29730919   0.205   4.042   4.328  1.6112  0.4824  0.9134
   62MOL   H29830920   0.129   4.193   4.285  0.4038 -0.2913 -0.0773
   62MOL   H29930921   0.295   4.091   4.109  1.2083  1.8072 -0.9454
   62MOL   H30030922   0.366   4.249   4.162  2.6998  1.0507  1.4294
   62MOL   H30130923   0.428   4.100   4.222  1.7297  1.9182 -1.9952
   62MOL   C30230924   7.590   4.344   4.873  0.3828  0.5945  0.6040
   62MOL   C30330925   7.666   4.472   4.819 -0.2880 -0.1428 -0.7144
   62MOL   O30430926   7.593   4.582   4.865  0.5064  0.4463 -0.0240
   62MOL   C30530927   7.667   4.684   4.937 -0.9408 -0.4050 -0.0036
   62MOL   C30630928   7.564   4.792   4.971  0.3317  0.0470  0.2389
   62MOL   C30730929   7.522   4.871   4.849  0.3123 -1.2304 -0.5400
   62MOL   C30830930   7.416   4.978   4.867  0.7111 -0.0242  0.6184
   62MOL   C30930931   7.464   5.117   4.898  0.0285  0.7626  0.4759
   62MOL   C31030932   7.351   5.220   4.932  0.5089 -0.0531  0.3119
   62MOL   H31130933   7.500   4.324   4.813  0.6652  0.9332  0.0612
   62MOL   H31230934   7.557   4.357   4.975  0.4800  2.5531  0.3962
   62MOL   H31330935   7.768   4.470   4.857 -1.3075 -0.2562  2.1319
   62MOL   H31430936   7.748   4.733   4.883 -0.5416 -0.9585  0.0940
   62MOL   H31530937   7.720   4.644   5.024 -0.1373  2.7317  1.0236
   62MOL   H31630938   7.602   4.860   5.047 -3.1076  1.1510  1.0269
   62MOL   H31730939   7.474   4.757   5.022  1.1049  1.2632  2.4989
   62MOL   H31830940   7.606   4.911   4.792  0.3500  0.4332  0.6761
   62MOL   H31930941   7.495   4.791   4.780  2.0480 -1.2964 -1.1872
   62MOL   H32030942   7.370   4.971   4.769 -1.9326 -1.2118  1.9240
   62MOL   H32130943   7.343   4.948   4.942 -1.9778 -0.1075 -1.9614
   62MOL   H32230944   7.538   5.122   4.978 -0.4000 -0.1662  0.9386
   62MOL   H32330945   7.526   5.140   4.811  0.1560  0.3264  0.4533
   62MOL   H32430946   7.400   5.311   4.965 -3.6229  0.8059  4.5057
   62MOL   H32530947   7.284   5.246   4.850 -0.1495  1.9841  1.4651
   62MOL   H32630948   7.296   5.192   5.022 -2.0216 -1.2850 -1.5575
   62MOL   C32730949   7.661   4.475   4.669 -0.0236 -0.2686  0.2033
   62MOL   C32830950   7.716   4.594   4.594  0.1389 -0.3241  0.3066
   62MOL   O32930951   0.080   4.583   4.612  0.3865  0.5625  0.0948
   62MOL   C33030952   0.141   4.707   4.633 -0.4121  0.4268  0.1070
   62MOL   C33130953   0.292   4.692   4.690 -0.3200  0.7849 -0.4141
   62MOL   C33230954   0.295   4.623   4.823  0.1051 -0.2463  0.2275
   62MOL   C33330955   0.443   4.649   4.870 -0.2362  0.2013  0.1053
   62MOL   C33430956   0.474   4.636   5.018 -0.0585  0.1541 -0.5786
   62MOL   C33530957   0.618   4.679   5.047  0.0899  0.0182 -0.7517
   62MOL   H33630958   7.557   4.474   4.636 -0.5846  1.1046  1.8350
   62MOL   H33730959   7.697   4.383   4.624 -0.4179 -0.1745 -0.3189
   62MOL   H33830960   7.670   4.680   4.642  2.4547  0.1115  1.8331
   62MOL   H33930961   0.084   4.767   4.704 -1.6686  1.0672 -1.3924
   62MOL   H34030962   0.137   4.765   4.541  1.0304  1.2648  0.5636
   62MOL   H34130963   0.324   4.794   4.709  1.1192 -0.1104  2.2073
   62MOL   H34230964   0.369   4.657   4.620  0.3701 -0.3160  0.8847
   62MOL   H34330965   0.218   4.673   4.882 -1.0715 -0.0365 -1.4442
   62MOL   H34430966   0.275   4.516   4.829  0.1608 -0.2492  0.3653
   62MOL   H34530967   0.510   4.584   4.814 -0.0576  1.9891 -1.8284
   62MOL   H34630968   0.480   4.749   4.846  1.4445  0.0126  1.7720
   62MOL   H34730969   0.413   4.704   5.076  0.3205  0.2668 -0.3079
   62MOL   H34830970   0.440   4.537   5.049  0.6187  0.3456  0.8540
   62MOL   H34930971   0.674   4.612   4.982  2.3666 -0.4428  1.6342
   62MOL   H35030972   0.631   4.784   5.020 -0.8778  0.2971 -0.1524
   62MOL   H35130973   0.637   4.670   5.154 -0.2903 -0.0045 -0.6829
   62MOL   C35230974   7.692   4.599   4.438 -0.3358 -0.1949 -0.0977
   62MOL   C35330975   7.548   4.597   4.379  0.4062  0.0616  0.2393
   62MOL   O35430976   7.545   4.554   4.242  0.1632  0.2060 -0.4794
   62MOL   C35530977   7.525   4.419   4.231  0.1697  0.0131 -0.4158
   62MOL   C35630978   7.513   4.357   4.086  0.4640  0.6974 -0.9146
   62MOL   C35730979   7.403   4.419   3.993  0.4431 -0.6328 -0.1331
   62MOL   C35830980   7.255   4.421   4.036 -0.2616  0.2344 -0.1927
   62MOL   C35930981   7.175   4.496   3.928 -0.8559 -0.3556  0.1851
   62MOL   C36030982   7.146   4.405   3.808  0.2680  0.0871  0.2327
   62MOL   H36130983   7.734   4.691   4.396 -0.8213  0.0528 -0.0550
   62MOL   H36230984   7.746   4.519   4.388 -1.4188 -0.6994 -0.4714
   62MOL   H36330985   7.485   4.528   4.435  2.0464 -1.6786 -0.0197
   62MOL   H36430986   7.422   4.398   4.260 -0.3828  2.1377 -0.7671
   62MOL   H36530987   7.594   4.365   4.296  3.3260  0.9567 -2.8360
   62MOL   H36630988   7.497   4.249   4.092 -1.9555  1.0821  0.1257
   62MOL   H36730989   7.607   4.354   4.031  2.3272 -0.0954  2.1751
   62MOL   H36830990   7.433   4.523   3.985 -0.9064 -0.2802 -0.7260
   62MOL   H36930991   7.420   4.375   3.894  0.9804 -0.4883 -0.1106
   62MOL   H37030992   7.217   4.319   4.044 -0.2819  0.2967  0.4731
   62MOL   H37130993   7.248   4.453   4.139  0.4108 -1.3751  0.3747
   62MOL   H37230994   7.074   4.516   3.963 -1.0496 -0.8722 -0.0734
   62MOL   H37330995   7.231   4.585   3.897  0.0533 -1.5589 -1.7567
   62MOL   H37430996   7.233   4.371   3.752  0.0914 -1.5254  0.9022
   62MOL   H37530997   7.100   4.313   3.844  0.2502 -0.9743 -2.3689
   62MOL   H37630998   7.077   4.465   3.749  2.1258  1.2746 -0.7831
   62MOL   C37730999   7.486   4.738   4.393  0.7646 -0.5384 -0.3903
   62MOL   C37831000   7.334   4.729   4.385 -0.1897  0.5362 -0.2249
   62MOL   O37931001   7.284   4.838   4.303  0.5769  0.6965 -0.4503
   62MOL   C38031002   7.279   4.805   4.166 -0.7063 -0.6426  0.8010
   62MOL   C38131003   7.215   4.927   4.101  0.0385  0.1708  0.2190
   62MOL   C38231004   7.223   4.930   3.941  0.4181 -0.1417 -0.3433
   62MOL   C38331005   7.190   5.075   3.897 -0.7688 -0.8297 -0.1185
   62MOL   C38431006   7.226   5.098   3.748 -0.0593  0.4151  0.8047
   62MOL   C38531007   7.247   5.244   3.703 -0.1501  0.2786 -1.0182
   62MOL   H38631008   7.525   4.795   4.478 -1.0832  0.0594  0.1005
   62MOL   H38731009   7.526   4.802   4.314  1.2307 -1.4564 -0.8995
   62MOL   H38831010   7.304   4.645   4.322 -0.4683  0.0542  0.5388
   62MOL   H38931011   7.210   4.722   4.149 -0.1334 -1.3231  1.7758
   62MOL   H39031012   7.378   4.795   4.122 -0.6443  0.4820  0.6619
   62MOL   H39131013   7.262   5.017   4.140 -3.5605  2.6261 -0.8695
   62MOL   H39231014   7.109   4.935   4.127 -0.6220 -1.4169 -1.8072
   62MOL   H39331015   7.328   4.923   3.913 -0.0039  0.5135 -2.1305
   62MOL   H39431016   7.155   4.855   3.900 -0.5853 -0.2383  1.4494
   62MOL   H39531017   7.085   5.103   3.908 -0.3970  0.2421  0.7428
   62MOL   H39631018   7.249   5.148   3.952 -0.5403 -1.2281  0.1659
   62MOL   H39731019   7.323   5.054   3.725 -0.4369  1.6101 -3.4783
   62MOL   H39831020   7.147   5.055   3.685 -0.5004 -0.8887  2.2099
   62MOL   H39931021   7.155   5.298   3.728 -0.8373 -0.5112 -1.8006
   62MOL   H40031022   7.341   5.279   3.745 -1.7779  2.3076  1.1182
   62MOL   H40131023   7.259   5.238   3.595  0.8858  1.2902 -0.9640
   62MOL   C40231024   7.270   4.723   4.521 -0.0302  0.1642  0.8401
   62MOL   C40331025   7.121   4.705   4.517  0.4501  0.2214 -0.4838
   62MOL   O40431026   7.076   4.736   4.651  0.5673 -0.4360  0.7250
   62MOL   C40531027   7.025   4.866   4.669  0.3044  0.0354  0.0868
   62MOL   C40631028   6.984   4.885   4.820  0.0072  0.2894  0.1791
   62MOL   C40731029   7.007   5.036   4.853 -0.3223  0.4167 -0.1114
   62MOL   C40831030   6.947   5.084   4.982  0.0054  0.0125  0.6773
   62MOL   C40931031   7.010   5.004   5.090 -0.4956  0.4609 -0.3519
   62MOL   C41031032   6.973   5.045   5.230  0.3936 -0.2041  0.0047
   62MOL   H41131033   7.301   4.814   4.573 -1.3817  1.3735 -0.4445
   62MOL   H41231034   7.324   4.648   4.579 -0.8519 -0.5317  0.7245
   62MOL   H41331035   7.087   4.777   4.442 -0.4249  1.0867  0.7088
   62MOL   H41431036   6.935   4.887   4.611  0.4338 -0.1676 -0.1883
   62MOL   H41531037   7.106   4.937   4.653  0.9521 -0.3383  1.6103
   62MOL   H41631038   7.051   4.816   4.873  1.8713  0.5838 -1.7203
   62MOL   H41731039   6.879   4.863   4.834  0.7897 -2.5356  2.0720
   62MOL   H41831040   7.113   5.061   4.845 -0.7508  2.1814 -0.3212
   62MOL   H41931041   6.969   5.085   4.763  1.2349  1.5044 -0.2086
   62MOL   H42031042   6.966   5.191   4.991  0.5563 -0.0585  0.3704
   62MOL   H42131043   6.838   5.083   4.979  0.0171 -0.1484  0.0120
   62MOL   H42231044   6.977   4.900   5.088 -0.8228  0.4878  2.1470
   62MOL   H42331045   7.118   5.000   5.076 -0.4892 -2.2697  0.1154
   62MOL   H42431046   7.024   5.136   5.260  3.2598 -0.9800 -2.2910
   62MOL   H42531047   6.865   5.061   5.238  0.6194  3.0605 -2.4621
   62MOL   H42631048   6.985   4.960   5.297  1.4469 -0.9150 -1.0611
   62MOL   C42731049   7.068   4.561   4.492  0.4380  0.5584 -0.2327
   62MOL   C42831050   6.926   4.554   4.445 -0.6190  0.6655 -0.0202
   62MOL   O42931051   6.920   4.621   4.321  0.9693  0.0931  0.1957
   62MOL   C43031052   6.824   4.726   4.320 -0.1758 -0.2243 -0.3396
   62MOL   C43131053   6.830   4.789   4.180  0.0109 -0.1172 -0.0010
   62MOL   C43231054   6.776   4.704   4.062  0.1596 -0.0079 -0.4231
   62MOL   C43331055   6.773   4.781   3.934  0.5946  0.2831  0.4040
   62MOL   C43431056   6.720   4.694   3.821 -0.5091  0.1517 -0.0709
   62MOL   C43531057   6.811   4.573   3.780  0.1905  0.4819  0.0216
   62MOL   H43631058   7.124   4.511   4.413  0.7324  1.6636 -0.7327
   62MOL   H43731059   7.074   4.499   4.582  0.0913  0.7905 -0.0493
   62MOL   H43831060   6.861   4.596   4.522  0.6501  1.4839  0.6195
   62MOL   H43931061   6.842   4.810   4.388  0.8549 -0.6265 -0.0983
   62MOL   H44031062   6.721   4.695   4.335 -0.5574  1.4743  0.7628
   62MOL   H44131063   6.932   4.827   4.170 -0.5861  1.3809 -0.4663
   62MOL   H44231064   6.756   4.869   4.184  0.3437  0.1708  0.4805
   62MOL   H44331065   6.844   4.620   4.050 -1.2649 -1.1331 -0.8031
   62MOL   H44431066   6.675   4.665   4.075  1.4155 -2.9364  1.1360
   62MOL   H44531067   6.709   4.869   3.948  2.0054  0.8313  4.1866
   62MOL   H44631068   6.875   4.816   3.919  0.6987 -0.4069 -0.4941
   62MOL   H44731069   6.619   4.656   3.837 -0.5295  0.7530  1.2879
   62MOL   H44831070   6.709   4.751   3.728 -1.1506  0.3877  0.1489
   62MOL   H44931071   6.914   4.609   3.790  0.4560 -0.6038  1.3899
   62MOL   H45031072   6.800   4.480   3.836 -0.9473  0.1516 -0.7232
   62MOL   H45131073   6.807   4.562   3.671  0.4411 -1.2860  0.1801
   62MOL   C45231074   6.882   4.416   4.405  0.0071  0.7509  0.0033
   62MOL   C45331075   6.834   4.330   4.526  0.5490  0.0005  0.2510
   62MOL   O45431076   6.944   4.285   4.601  0.2217  0.6278  0.2993
   62MOL   C45531077   6.916   4.235   4.735  0.2637  0.3509  0.0840
   62MOL   C45631078   7.057   4.231   4.807  0.1174  0.7929  0.6814
   62MOL   C45731079   7.113   4.367   4.840 -0.2405 -0.3348 -0.0876
   62MOL   C45831080   7.218   4.356   4.956  0.5422  0.0908  0.0611
   62MOL   C45931081   7.284   4.482   4.999  0.0878  0.6385  0.8746
   62MOL   C46031082   7.204   4.583   5.083  0.8805 -0.3565  0.0268
   62MOL   H46131083   6.799   4.440   4.340  1.4920  4.1315 -0.7772
   62MOL   H46231084   6.957   4.361   4.348  0.0167 -0.5220  1.2159
   62MOL   H46331085   6.764   4.389   4.585 -1.2725 -0.2922 -1.5874
   62MOL   H46431086   6.879   4.133   4.735  2.6497 -0.5737  2.3986
   62MOL   H46531087   6.846   4.300   4.787  0.8852  1.1716 -0.0940
   62MOL   H46631088   7.121   4.157   4.759  0.0486  1.0745  0.1492
   62MOL   H46731089   7.041   4.186   4.905  0.5062 -0.9015 -0.0207
   62MOL   H46831090   7.165   4.397   4.749  0.8003 -0.7167  0.3696
   62MOL   H46931091   7.033   4.439   4.858  0.6286  0.0965  2.1292
   62MOL   H47031092   7.170   4.324   5.049  1.1474  0.8538  0.6387
   62MOL   H47131093   7.289   4.276   4.932  1.5800  0.8916  0.4121
   62MOL   H47231094   7.379   4.452   5.043  0.3787  1.0067  0.4941
   62MOL   H47331095   7.324   4.534   4.912  1.1410 -0.6538  0.5756
   62MOL   H47431096   7.227   4.686   5.055  1.5153 -0.9334 -1.6022
   62MOL   H47531097   7.098   4.569   5.064  1.1481  0.6956 -2.4696
   62MOL   H47631098   7.216   4.588   5.192 -2.5897  1.3825  0.4101
   62MOL   C47731099   6.754   4.217   4.460  0.5026 -0.2619  0.6690
   62MOL   C47831100   6.624   4.255   4.391  0.0684  0.4202  0.0087
   62MOL   O47931101   6.538   4.306   4.497  0.1775 -1.0266 -0.0890
   62MOL   C48031102   6.403   4.354   4.455  0.7761 -0.6443 -0.7861
   62MOL   C48131103   6.410   4.473   4.360 -0.1442  0.1514  0.6237
   62MOL   C48231104   6.275   4.540   4.339 -0.0120  0.2573 -0.4250
   62MOL   C48331105   6.287   4.672   4.258  0.4888 -0.5417  0.6014
   62MOL   C48431106   6.171   4.770   4.293  0.1227  0.0012 -0.3996
   62MOL   C48531107   6.210   4.920   4.278 -0.0660  0.0363  0.4394
   62MOL   H48631108   6.824   4.172   4.390  0.0067 -0.9879  0.6438
   62MOL   H48731109   6.742   4.131   4.526  0.1978 -1.7457 -1.2902
   62MOL   H48831110   6.626   4.329   4.312 -0.3479  1.0476  0.5729
   62MOL   H48931111   6.350   4.383   4.546 -1.6103 -0.5075 -2.1759
   62MOL   H49031112   6.345   4.270   4.415  0.6592 -0.5226 -0.8735
   62MOL   H49131113   6.462   4.453   4.266  0.6965 -0.0785  1.1346
   62MOL   H49231114   6.482   4.534   4.414  1.1826  1.0417 -2.0600
   62MOL   H49331115   6.206   4.464   4.302  0.1202 -0.4067  0.6904
   62MOL   H49431116   6.235   4.556   4.438  0.7923 -1.3146  0.1852
   62MOL   H49531117   6.372   4.729   4.296  0.0495  0.4700  0.1041
   62MOL   H49631118   6.309   4.665   4.152  0.5725 -0.7618  0.6338
   62MOL   H49731119   6.084   4.737   4.235  0.5782  0.0095 -1.1040
   62MOL   H49831120   6.142   4.752   4.396  0.3171 -3.2455 -0.8638
   62MOL   H49931121   6.127   4.989   4.290 -0.2045 -0.1145  0.3582
   62MOL   H50031122   6.293   4.942   4.345  0.9817  0.2976 -0.9270
   62MOL   H50131123   6.245   4.946   4.178 -1.0224  1.4243  0.4491
   62MOL   H50231124   6.570   4.165   4.361 -2.0264  1.9783 -0.9286
   63MOL     C131125   0.235   7.097   6.112  0.2236  0.1069  0.0088
   63MOL     C231126   0.141   6.978   6.145 -0.3309 -0.0906 -0.7826
   63MOL     O331127   0.144   6.888   6.032  0.1968 -0.1441  0.1586
   63MOL     C431128   0.252   6.794   6.024  0.0389  0.6061 -1.3334
   63MOL     C531129   0.207   6.696   5.913  0.4645  0.3703 -0.5811
   63MOL     C631130   0.295   6.571   5.908 -0.2832  0.4274 -0.0016
   63MOL     C731131   0.236   6.456   5.828 -0.0483 -0.2332  0.3165
   63MOL     C831132   0.341   6.344   5.806  0.8347  0.0302 -1.1321
   63MOL     C931133   0.302   6.252   5.689 -0.7220 -0.1587  0.1846
   63MOL    H1031134   0.267   7.143   6.205  0.7026 -0.2688  0.0358
   63MOL    H1131135   0.324   7.058   6.062 -0.2198 -0.1831 -0.5649
   63MOL    H1231136   0.165   6.915   6.231 -1.3411 -0.2714 -0.6299
   63MOL    H1331137   0.265   6.741   6.118 -2.5914 -0.5765 -1.6017
   63MOL    H1431138   0.345   6.842   5.995  1.4108 -1.5455 -0.5831
   63MOL    H1531139   0.222   6.762   5.827  3.5875  0.7339  0.1782
   63MOL    H1631140   0.098   6.688   5.914  0.5498 -0.6828  2.2502
   63MOL    H1731141   0.390   6.595   5.861 -0.8533  0.8508 -0.9644
   63MOL    H1831142   0.322   6.529   6.005 -2.4950  0.8158  0.8149
   63MOL    H1931143   0.147   6.411   5.873  0.9063 -1.6439  0.8377
   63MOL    H2031144   0.210   6.504   5.734 -0.8096 -0.3921  0.4431
   63MOL    H2131145   0.336   6.279   5.893 -1.4813 -2.0452 -2.7476
   63MOL    H2231146   0.445   6.376   5.808  0.8663 -0.1291  0.8728
   63MOL    H2331147   0.303   6.303   5.593 -1.4381  1.0297  0.8058
   63MOL    H2431148   0.380   6.176   5.676  1.5983  2.1709 -0.0311
   63MOL    H2531149   0.200   6.216   5.691 -0.9342  0.2579 -2.2051
   63MOL    H2631150   0.192   7.168   6.040  0.3906  0.7440  0.5306
   63MOL    C2731151   0.001   7.028   6.182 -0.0784  0.2463  0.2237
   63MOL    C2831152   7.674   6.921   6.212  0.3423 -0.0109  0.4613
   63MOL    O2931153   7.719   6.851   6.328  0.5071  0.3140 -0.3172
   63MOL    C3031154   7.659   6.728   6.335  0.0014 -0.5813  0.7969
   63MOL    C3131155   7.662   6.689   6.480  0.5575 -0.5968  0.1077
   63MOL    C3231156   7.568   6.783   6.563 -0.7365  0.0526  0.3307
   63MOL    C3331157   7.534   6.726   6.696 -0.5565  0.2302 -0.9653
   63MOL    C3431158   7.450   6.807   6.787  0.1406  0.9695 -0.0748
   63MOL    C3531159   7.304   6.779   6.755 -0.0734 -0.4641 -0.3070
   63MOL    H3631160   0.015   7.107   6.255  1.4544  2.4042 -2.3398
   63MOL    H3731161   7.732   7.087   6.102  0.1143  0.9560  0.6353
   63MOL    H3831162   7.681   6.855   6.126  3.2178 -0.7647  1.2020
   63MOL    H3931163   7.712   6.654   6.274  0.1707  0.6242 -0.5768
   63MOL    H4031164   7.555   6.732   6.302  0.7156 -1.8883 -1.7753
   63MOL    H4131165   7.763   6.681   6.520  0.8766  0.8406 -0.3979
   63MOL    H4231166   7.630   6.585   6.490  0.6114 -0.7032 -0.8492
   63MOL    H4331167   7.609   6.881   6.587 -2.3263  0.5796  0.9705
   63MOL    H4431168   7.473   6.809   6.516 -1.6953 -4.2548 -0.3107
   63MOL    H4531169   7.496   6.625   6.686  0.0356 -0.2069  0.8785
   63MOL    H4631170   7.630   6.717   6.747 -1.7411 -1.0223  1.1391
   63MOL    H4731171   7.472   6.790   6.892 -2.1929  1.1659  0.4681
   63MOL    H4831172   7.470   6.911   6.764 -3.8700  1.9508  0.5276
   63MOL    H4931173   7.289   6.818   6.654  1.1972  0.6485 -0.0793
   63MOL    H5031174   7.279   6.673   6.759 -1.0445 -0.2841 -1.3106
   63MOL    H5131175   7.241   6.841   6.819  0.5837 -1.7025  1.5692
   63MOL    C5231176   7.533   6.986   6.214 -0.5291  0.1969 -0.6531
   63MOL    C5331177   7.469   7.017   6.083  0.1963  0.1265 -0.8708
   63MOL    O5431178   7.469   6.901   6.002 -0.6071  0.0908 -0.0744
   63MOL    C5531179   7.472   6.934   5.861  0.3366  0.0126 -0.1141
   63MOL    C5631180   7.442   6.810   5.782  1.0918 -0.5867  0.3674
   63MOL    C5731181   7.563   6.709   5.793  0.6837  0.1089 -0.1310
   63MOL    C5831182   7.524   6.581   5.727 -0.2605  0.3187 -0.2832
   63MOL    C5931183   7.614   6.464   5.745  0.0349  0.2694 -0.0779
   63MOL    C6031184   7.610   6.410   5.885 -0.3305 -0.3268  0.1033
   63MOL    H6131185   7.536   7.069   6.284  0.3091  1.1959 -1.8616
   63MOL    H6231186   7.470   6.905   6.251 -1.1192  2.0711  2.6261
   63MOL    H6331187   7.526   7.092   6.027  0.2634  0.1613 -0.7564
   63MOL    H6431188   7.570   6.977   5.841  0.9087 -1.6419 -0.9613
   63MOL    H6531189   7.408   7.019   5.838 -2.0074 -1.6116  0.2293
   63MOL    H6631190   7.422   6.837   5.678  2.4540 -1.5360 -0.1596
   63MOL    H6731191   7.350   6.767   5.821  0.5681 -0.3013 -0.5458
   63MOL    H6831192   7.647   6.741   5.731 -0.5836  1.2362 -1.2951
   63MOL    H6931193   7.580   6.696   5.900 -0.7019  1.0924  0.2252
   63MOL    H7031194   7.423   6.557   5.760  0.5026  0.5383  2.3365
   63MOL    H7131195   7.516   6.599   5.620  2.9705  0.1685 -0.6238
   63MOL    H7231196   7.590   6.386   5.673 -1.9611  0.9278 -0.1342
   63MOL    H7331197   7.718   6.498   5.736  0.0909 -0.1457 -1.0048
   63MOL    H7431198   7.508   6.380   5.907 -0.6146  1.2031  0.9653
   63MOL    H7531199   7.680   6.327   5.887  0.1526  0.0579 -0.3871
   63MOL    H7631200   7.661   6.481   5.950 -0.1872  0.7079 -1.1105
   63MOL    C7731201   7.327   7.074   6.115  0.0803 -0.0531 -0.2249
   63MOL    C7831202   7.324   7.227   6.089  0.4408  0.0183  0.4110
   63MOL    O7931203   7.370   7.296   6.203 -0.3460  0.7557 -0.1475
   63MOL    C8031204   7.497   7.368   6.197  0.0947  0.3343 -0.5302
   63MOL    C8131205   7.530   7.440   6.325 -0.2971 -0.2631 -0.3853
   63MOL    C8231206   7.509   7.351   6.453 -0.3871 -0.7220  0.4208
   63MOL    C8331207   7.488   7.435   6.581 -0.9089  0.9089 -0.1052
   63MOL    C8431208   7.366   7.521   6.590 -0.3453 -0.1964  0.6253
   63MOL    C8531209   7.377   7.631   6.694  0.3676 -0.3921  0.9160
   63MOL    H8631210   7.291   7.064   6.217 -0.5625  1.5205 -0.2838
   63MOL    H8731211   7.260   7.022   6.047  1.3982 -1.2225 -0.6332
   63MOL    H8831212   7.371   7.256   5.995 -1.5205 -1.4607 -1.0749
   63MOL    H8931213   7.495   7.440   6.114  3.2877  2.3637  1.0613
   63MOL    H9031214   7.573   7.298   6.164 -0.2095 -0.7871  1.1042
   63MOL    H9131215   7.463   7.526   6.327  0.0355 -0.0118  2.4936
   63MOL    H9231216   7.624   7.494   6.311  0.1191 -0.9955 -0.4536
   63MOL    H9331217   7.423   7.286   6.437  0.2409 -1.3577 -0.4162
   63MOL    H9431218   7.593   7.283   6.460  0.3911  0.3867  2.1809
   63MOL    H9531219   7.497   7.374   6.671  1.0201  0.7319 -0.3959
   63MOL    H9631220   7.574   7.502   6.585 -0.1990 -0.0170  0.6036
   63MOL    H9731221   7.329   7.557   6.495 -1.6718 -3.6044 -0.2105
   63MOL    H9831222   7.287   7.458   6.630 -1.7440  0.0545 -1.6773
   63MOL    H9931223   7.390   7.588   6.794 -0.6898 -2.5448  0.1689
   63MOL   H10031224   7.460   7.698   6.672  0.6375 -0.6584  1.1243
   63MOL   H10131225   7.286   7.691   6.699  0.8646  0.4232  0.2032
   63MOL   C10231226   7.176   7.264   6.067  0.1303  0.4749  0.0875
   63MOL   C10331227   7.117   7.256   5.917  0.0753  0.3370 -0.0887
   63MOL   O10431228   7.097   7.113   5.892  0.5858 -0.0547  0.0773
   63MOL   C10531229   7.099   7.085   5.755 -0.5062  0.5010 -0.4107
   63MOL   C10631230   7.067   6.932   5.723  0.4130  0.3035  0.0368
   63MOL   C10731231   7.077   6.903   5.573 -0.3167 -0.3439  0.6372
   63MOL   C10831232   7.033   6.763   5.531  0.1534  0.0430  0.4324
   63MOL   C10931233   7.142   6.659   5.568  0.2970  0.1212  0.2333
   63MOL   C11031234   7.111   6.518   5.511 -0.1828 -0.1870 -0.8265
   63MOL   H11131235   7.115   7.205   6.135  2.1675 -1.0854  0.6164
   63MOL   H11231236   7.166   7.366   6.104 -0.7552  0.1467  0.7573
   63MOL   H11331237   7.181   7.298   5.840 -1.4317 -0.0671 -1.6168
   63MOL   H11431238   7.199   7.115   5.724  0.0131  1.2502  1.8830
   63MOL   H11531239   7.029   7.150   5.701 -1.0367 -0.4535 -0.8791
   63MOL   H11631240   6.962   6.910   5.743 -0.1096  0.7283 -2.1301
   63MOL   H11731241   7.123   6.859   5.782  1.6692  1.1003 -0.1535
   63MOL   H11831242   7.001   6.967   5.528  1.1673  0.7585 -0.3413
   63MOL   H11931243   7.175   6.926   5.533 -0.4424 -0.8044  0.0588
   63MOL   H12031244   6.938   6.730   5.574  0.0141  0.6734  0.6101
   63MOL   H12131245   7.006   6.763   5.426  0.1458 -1.2475  0.4199
   63MOL   H12231246   7.239   6.690   5.529  0.6986 -1.1988  0.1463
   63MOL   H12331247   7.160   6.652   5.675  0.7813  0.2929  0.1677
   63MOL   H12431248   7.041   6.461   5.572 -0.5366  0.5895 -0.4904
   63MOL   H12531249   7.062   6.520   5.414 -0.5438  0.9062 -0.6228
   63MOL   H12631250   7.205   6.466   5.493  1.2245  2.2957 -0.9676
   63MOL   C12731251   6.971   7.314   5.911 -0.2114 -0.0589  0.6300
   63MOL   C12831252   6.953   7.462   5.873 -0.5518  0.4545 -0.6015
   63MOL   O12931253   6.819   7.503   5.898  0.0233 -0.2570  0.3290
   63MOL   C13031254   6.801   7.586   6.013 -0.2508 -0.4588 -0.2386
   63MOL   C13131255   6.655   7.647   6.022  0.9021 -0.5024  0.1698
   63MOL   C13231256   6.607   7.712   5.894  0.2110 -0.0978  0.0284
   63MOL   C13331257   6.655   0.074   5.882  0.1149 -0.1530  0.8539
   63MOL   C13431258   6.632   0.124   5.741 -0.0687 -0.2597 -0.8179
   63MOL   C13531259   6.666   0.265   5.723  0.4695 -0.6988 -0.1493
   63MOL   H13631260   6.906   7.247   5.855  1.5976 -0.4710 -1.0599
   63MOL   H13731261   6.931   7.307   6.012 -0.2431 -0.6149  0.5783
   63MOL   H13831262   7.021   7.534   5.917  0.5395 -0.8862 -0.0498
   63MOL   H13931263   6.868   7.671   6.005 -0.8830  0.1547  0.8809
   63MOL   H14031264   6.831   7.536   6.105 -1.1396 -1.3539 -0.4150
   63MOL   H14131265   6.639   7.715   6.105  0.2971 -0.5056  0.0593
   63MOL   H14231266   6.585   7.566   6.044  1.2302 -0.4138  1.5538
   63MOL   H14331267   6.627   7.653   5.804 -2.0673  0.3313 -0.8047
   63MOL   H14431268   6.498   7.706   5.886  0.1069  0.5505  0.9240
   63MOL   H14531269   6.584   0.133   5.941 -0.0711 -0.7423  1.2173
   63MOL   H14631270   6.761   0.074   5.905  0.6372  0.6593 -1.3965
   63MOL   H14731271   6.686   0.058   5.673  1.1761  0.1407 -0.2103
   63MOL   H14831272   6.526   0.119   5.716  0.0098  2.8314 -2.0552
   63MOL   H14931273   6.642   0.293   5.620 -2.3775  0.2928  0.7322
   63MOL   H15031274   6.609   0.323   5.795  2.1912  1.9546 -0.8469
   63MOL   H15131275   6.768   0.287   5.752 -0.2019  2.2055  0.2322
   63MOL   C15231276   6.977   7.477   5.719  0.6365  0.3160 -0.7382
   63MOL   C15331277   6.956   7.618   5.664  0.0631 -0.2345 -0.0788
   63MOL   O15431278   7.041   7.709   5.739  0.6504  0.2458  0.5514
   63MOL   C15531279   7.016   0.070   5.729 -0.2973 -0.1873  0.5972
   63MOL   C15631280   7.108   0.136   5.837 -0.0592 -0.4280 -0.5836
   63MOL   C15731281   7.073   0.281   5.866 -0.7205  0.2078 -0.0563
   63MOL   C15831282   7.154   0.341   5.981 -0.5769  0.1104 -0.1434
   63MOL   C15931283   7.122   0.488   6.004 -0.4051 -0.4057 -0.1619
   63MOL   C16031284   7.231   0.577   5.952  0.0368 -0.5677 -0.1604
   63MOL   H16131285   7.076   7.434   5.704  0.6397 -1.1387  2.8569
   63MOL   H16231286   6.910   7.409   5.667  0.2679 -0.7964  1.1491
   63MOL   H16331287   6.856   7.659   5.679  0.7910  0.2577  3.7084
   63MOL   H16431288   6.912   0.087   5.756 -1.3309 -2.2587 -1.9035
   63MOL   H16531289   7.014   0.125   5.635 -0.4065  0.7523  1.1415
   63MOL   H16631290   7.215   0.130   5.819  0.0151  1.5444 -0.8684
   63MOL   H16731291   7.093   0.084   5.932 -0.6276  0.4317 -0.1957
   63MOL   H16831292   7.096   0.337   5.776 -0.4936  0.9696  0.4681
   63MOL   H16931293   6.971   0.297   5.902  0.0778  1.1071  1.8795
   63MOL   H17031294   7.133   0.288   6.074  1.8693 -0.3454  0.1863
   63MOL   H17131295   7.261   0.334   5.960 -0.9151 -0.0529 -1.8969
   63MOL   H17231296   7.030   0.516   5.953  0.8286  3.1859 -0.5406
   63MOL   H17331297   7.096   0.512   6.108 -1.7544 -0.5064 -0.4644
   63MOL   H17431298   7.331   0.562   5.993  0.5362  1.9121 -0.3881
   63MOL   H17531299   7.232   0.575   5.843 -2.5679  1.3340 -0.2503
   63MOL   H17631300   7.206   0.680   5.975 -0.1347 -0.8469  0.9219
   63MOL   C17731301   6.994   7.630   5.516  0.5759 -0.1210 -0.3320
   63MOL   C17831302   6.899   7.555   5.422 -0.1333  0.2110 -0.4157
   63MOL   O17931303   6.788   7.641   5.404  0.0930 -0.2049 -0.5791
   63MOL   C18031304   6.655   7.595   5.398 -0.0756 -0.6162  0.3859
   63MOL   C18131305   6.555   7.717   5.413  0.2720 -0.4784 -0.2506
   63MOL   C18231306   6.416   7.672   5.445  0.1772 -0.1408  0.0991
   63MOL   C18331307   6.333   0.021   5.458 -0.2028  0.0197 -0.3091
   63MOL   C18431308   6.187   7.768   5.492  0.4422  0.5284 -0.2889
   63MOL   C18531309   6.167   7.673   5.609 -0.0231 -0.2547 -0.6956
   63MOL   H18631310   7.000   7.735   5.488 -1.9967  0.6711  1.8740
   63MOL   H18731311   7.101   7.617   5.499  0.7648  1.6169 -0.6018
   63MOL   H18831312   6.858   7.471   5.477 -2.3672  0.0485 -2.2198
   63MOL   H18931313   6.621   7.522   5.471 -0.2016 -1.0477 -0.0950
   63MOL   H19031314   6.641   7.543   5.303  0.0723  1.8896 -1.0304
   63MOL   H19131315   6.564   7.765   5.315 -3.2852 -0.8625 -0.8435
   63MOL   H19231316   6.593   7.774   5.497  1.1244  0.9954 -1.6182
   63MOL   H19331317   6.380   7.612   5.360  1.6301 -0.9316  0.0307
   63MOL   H19431318   6.422   7.613   5.536  1.1141  0.9809  0.7718
   63MOL   H19531319   6.380   0.090   5.529  2.9603 -1.9469 -0.3903
   63MOL   H19631320   6.323   0.062   5.358  2.6433  1.0210 -0.2280
   63MOL   H19731321   6.135   0.083   5.520  0.7984  1.5509 -2.8236
   63MOL   H19831322   6.130   7.725   5.409 -0.3923 -2.1806  1.6105
   63MOL   H19931323   6.204   7.572   5.594  0.3768 -0.0756 -0.9029
   63MOL   H20031324   6.213   7.703   5.704  1.0332  0.9696 -1.5891
   63MOL   H20131325   6.060   7.666   5.626 -0.1849  1.5617 -0.9156
   63MOL   C20231326   6.960   7.523   5.282  0.1763 -0.0554 -0.9519
   63MOL   C20331327   6.885   7.402   5.213 -0.3790 -0.0688 -0.2750
   63MOL   O20431328   6.860   7.306   5.314  0.4850 -0.0892  0.6732
   63MOL   C20531329   6.771   7.201   5.272  0.2993  0.2527 -0.6449
   63MOL   C20631330   6.757   7.117   5.401  0.0366  0.0699 -0.7466
   63MOL   C20731331   6.684   7.193   5.517  0.0822  0.1352 -0.7282
   63MOL   C20831332   6.659   7.114   5.642 -0.2107  1.3348 -0.0253
   63MOL   C20931333   6.587   7.180   5.759  0.2665 -0.1769  1.1795
   63MOL   C21031334   6.437   7.171   5.745 -0.2497  0.0757 -0.0396
   63MOL   H21131335   6.943   7.615   5.226 -0.0893  1.9426  2.2719
   63MOL   H21231336   7.067   7.507   5.291  0.3307  0.1831 -2.3498
   63MOL   H21331337   6.789   7.431   5.170 -1.0710 -2.7881 -0.6465
   63MOL   H21431338   6.823   7.132   5.204  2.3072  1.8236 -0.7537
   63MOL   H21531339   6.676   7.234   5.231  0.9863  0.4753 -2.0910
   63MOL   H21631340   6.855   7.088   5.441  0.0424  1.1514  0.0908
   63MOL   H21731341   6.701   7.026   5.382 -0.0517 -0.8944  3.5351
   63MOL   H21831342   6.738   7.284   5.542  0.7094 -1.0446  2.3994
   63MOL   H21931343   6.589   7.225   5.473  1.0015  0.6504 -2.3661
   63MOL   H22031344   6.618   7.018   5.610 -0.9687  0.5877  3.0015
   63MOL   H22131345   6.759   7.089   5.676 -0.2482  1.2471  0.0186
   63MOL   H22231346   6.623   7.142   5.854  2.1540  2.2388  1.4792
   63MOL   H22331347   6.625   7.282   5.766  0.1401  0.0962 -1.6149
   63MOL   H22431348   6.396   7.076   5.782 -1.2834 -0.4276 -2.3859
   63MOL   H22531349   6.389   7.251   5.801  1.7014  2.2823 -1.4541
   63MOL   H22631350   6.406   7.171   5.641 -1.3681  0.7960  0.2925
   63MOL   C22731351   6.970   7.346   5.093 -0.8216  0.5686  0.8020
   63MOL   C22831352   6.990   7.442   4.971  0.3616 -0.0378  0.1139
   63MOL   O22931353   7.127   7.438   4.934  0.2023 -0.0371  0.7547
   63MOL   C23031354   7.214   7.522   5.004  0.1102 -0.5314  0.1154
   63MOL   C23131355   7.356   7.500   4.960 -0.6885 -0.3071 -0.1348
   63MOL   C23231356   7.449   7.424   5.058  0.6140 -0.4544  0.0963
   63MOL   C23331357   7.585   7.386   5.005 -0.1695 -0.1640 -0.0992
   63MOL   C23431358   7.581   7.309   4.876  0.4653 -0.2844  0.2169
   63MOL   C23531359   7.710   7.239   4.830 -0.3881  0.1503 -0.7772
   63MOL   H23631360   7.070   7.327   5.132 -0.2759  1.1941 -0.2700
   63MOL   H23731361   6.925   7.254   5.055  2.0312 -1.2127  1.5888
   63MOL   H23831362   6.960   7.544   4.992  1.1242  0.1757  0.1840
   63MOL   H23931363   7.203   7.518   5.112 -0.0558 -0.9280  0.0825
   63MOL   H24031364   7.189   7.625   4.975 -0.7294 -0.7488  0.0364
   63MOL   H24131365   7.396   7.600   4.944 -0.1804 -0.2130  1.6439
   63MOL   H24231366   7.353   7.453   4.862 -0.5217  0.2699 -0.4168
   63MOL   H24331367   7.456   7.481   5.151  1.0260  0.2635 -0.3728
   63MOL   H24431368   7.397   7.329   5.075  0.5228 -0.0793  2.0879
   63MOL   H24531369   7.646   7.476   4.992  0.8740 -0.5401  1.9714
   63MOL   H24631370   7.634   7.330   5.085  0.2607 -1.0977 -1.0008
   63MOL   H24731371   7.517   7.222   4.886 -1.4991  0.9773 -1.0310
   63MOL   H24831372   7.546   7.367   4.790  1.0326 -1.5726 -0.8939
   63MOL   H24931373   7.732   7.161   4.902  1.1199  0.9311 -0.3707
   63MOL   H25031374   7.694   7.188   4.735 -1.8832 -2.3754  0.7800
   63MOL   H25131375   0.015   7.308   4.811  0.5750 -0.7426  0.0959
   63MOL   C25231376   6.906   7.387   4.852  0.1404 -0.3284  0.9141
   63MOL   C25331377   6.753   7.384   4.874 -0.4969  0.5268 -0.0543
   63MOL   O25431378   6.694   7.325   4.758 -0.2976  0.2006  0.0516
   63MOL   C25531379   6.690   7.185   4.760 -1.1914  0.7940  0.3663
   63MOL   C25631380   6.627   7.135   4.631 -0.0288 -0.3462  0.3328
   63MOL   C25731381   6.699   7.170   4.497 -0.0736 -0.4592  0.5614
   63MOL   C25831382   6.753   7.311   4.481 -0.0656 -0.1993  0.1483
   63MOL   C25931383   6.824   7.334   4.347 -0.3509 -0.7165 -0.8547
   63MOL   C26031384   6.854   7.491   4.330  0.3686  0.0178  0.2642
   63MOL   H26131385   6.923   7.438   4.757 -3.0602 -0.6580  0.0775
   63MOL   H26231386   6.948   7.291   4.821 -1.3494 -1.0753  1.1659
   63MOL   H26331387   6.750   7.317   4.960  0.6959  1.0557  0.4115
   63MOL   H26431388   6.628   7.161   4.846 -1.3123 -0.5242 -0.0809
   63MOL   H26531389   6.793   7.157   4.783 -1.2086  0.4793  0.0482
   63MOL   H26631390   6.527   7.178   4.622  0.0810  0.3681  2.3308
   63MOL   H26731391   6.606   7.028   4.640  1.1093 -0.5357  0.7403
   63MOL   H26831392   6.772   7.090   4.491 -1.2368 -1.4996  0.2121
   63MOL   H26931393   6.625   7.152   4.420  1.7159  1.7038 -1.7487
   63MOL   H27031394   6.662   7.371   4.485  0.1649  0.2100 -0.7142
   63MOL   H27131395   6.825   7.341   4.557 -0.3791 -0.1825  0.4357
   63MOL   H27231396   6.921   7.288   4.368  0.7911  2.4730  1.1092
   63MOL   H27331397   6.772   7.297   4.259 -0.8208  0.4897 -1.0909
   63MOL   H27431398   6.756   7.534   4.310  1.1256  1.7689  0.2516
   63MOL   H27531399   6.889   7.543   4.419 -0.7775  1.1079  0.0891
   63MOL   H27631400   6.913   7.516   4.242 -2.9052  3.3433 -1.0815
   63MOL   C27731401   6.687   7.528   4.902  0.6363  0.3009 -0.3025
   63MOL   C27831402   6.539   7.525   4.944 -0.0327  0.4485 -0.2580
   63MOL   O27931403   6.516   7.436   5.053 -0.0370 -0.7319 -0.1543
   63MOL   C28031404   6.393   7.369   5.044 -0.1575 -0.1536  0.1894
   63MOL   C28131405   6.365   7.326   5.183 -0.1325  0.1608 -0.6184
   63MOL   C28231406   6.219   7.288   5.202 -0.8095  0.2498  0.0213
   63MOL   C28331407   6.181   7.249   5.342  0.2773 -0.5656  0.1419
   63MOL   C28431408   6.044   7.178   5.350 -0.1530 -0.1252  0.0314
   63MOL   C28531409   5.940   7.276   5.401 -0.2579 -0.5447 -0.1928
   63MOL   H28631410   6.734   7.564   4.993 -0.3891 -0.8490  0.7137
   63MOL   H28731411   6.698   7.584   4.810  0.3425  1.3573  0.3010
   63MOL   H28831412   6.479   7.492   4.859 -0.6104 -3.4590  1.5698
   63MOL   H28931413   6.417   7.295   4.967  0.9520 -1.4942  1.7884
   63MOL   H29031414   6.314   7.434   5.006 -1.5842 -1.7203  0.4027
   63MOL   H29131415   6.384   7.408   5.253  1.0174 -1.1833  0.6798
   63MOL   H29231416   6.430   7.241   5.205 -0.1078  0.2200 -0.4573
   63MOL   H29331417   6.150   7.367   5.173  0.3244  1.4779  0.6267
   63MOL   H29431418   6.204   7.206   5.132  1.2875  0.6595 -0.9393
   63MOL   H29531419   6.255   7.182   5.386  0.8363  0.9819  1.6533
   63MOL   H29631420   6.194   7.339   5.403 -4.3305 -0.5212  1.2585
   63MOL   H29731421   6.011   7.136   5.254 -2.2060 -1.2816  1.1946
   63MOL   H29831422   6.051   7.098   5.423  0.5302  1.9154  2.2441
   63MOL   H29931423   5.937   7.363   5.335 -1.4570 -0.5351 -0.1466
   63MOL   H30031424   5.840   7.231   5.403 -0.3890 -0.2328  0.8717
   63MOL   H30131425   5.959   7.307   5.504  0.5070 -2.4999  0.2760
   63MOL   C30231426   6.476   7.663   4.993  0.2295  0.1810  0.0126
   63MOL   C30331427   6.482   7.776   4.892 -0.4598  0.7793  0.1523
   63MOL   O30431428   6.432   0.106   4.967 -0.2495  0.0509  0.1703
   63MOL   C30531429   6.528   0.215   4.977 -0.0292  0.1014 -0.3242
   63MOL   C30631430   6.456   0.327   5.053  0.2609 -0.1982  0.1462
   63MOL   C30731431   6.396   0.285   5.190  0.6327  0.3571 -0.9864
   63MOL   C30831432   6.387   0.402   5.288  0.2198 -0.4432 -0.4613
   63MOL   C30931433   6.344   0.357   5.428  0.1575  0.1690  0.0665
   63MOL   C31031434   6.281   0.475   5.507  0.1033  0.6046 -0.2108
   63MOL   H31131435   6.374   7.637   5.020  0.4025  1.3360  1.8734
   63MOL   H31231436   6.520   7.694   5.088 -0.6966  0.1845  0.4456
   63MOL   H31331437   6.586   0.023   4.870 -0.0058 -0.8686  0.4037
   63MOL   H31431438   6.549   0.246   4.875 -0.3531 -2.1312 -1.1020
   63MOL   H31531439   6.617   0.182   5.031 -1.0575 -0.7898  0.8662
   63MOL   H31631440   6.368   0.367   5.003  0.9500 -0.2493 -1.1167
   63MOL   H31731441   6.529   0.406   5.072  0.5953 -0.2598 -0.8750
   63MOL   H31831442   6.299   0.242   5.167  0.4517  0.0909  0.2558
   63MOL   H31931443   6.459   0.208   5.235  0.2271  0.8815  0.5314
   63MOL   H32031444   6.486   0.446   5.288  0.2964 -0.6088  0.1727
   63MOL   H32131445   6.326   0.479   5.240 -0.1930 -1.4583 -1.5897
   63MOL   H32231446   6.266   0.281   5.424  0.7723 -0.4507 -0.1497
   63MOL   H32331447   6.430   0.324   5.486 -0.9794 -2.0013  0.5629
   63MOL   H32431448   6.210   0.523   5.439  0.4584  1.5550  0.0912
   63MOL   H32531449   6.231   0.443   5.599  0.0077  0.6916 -0.2320
   63MOL   H32631450   6.346   0.560   5.525 -0.6068  1.1556 -0.2215
   63MOL   C32731451   6.396   7.754   4.766 -0.1910 -0.1182  0.3150
   63MOL   C32831452   6.452   0.072   4.656  0.5136  0.3824  0.0291
   63MOL   O32931453   6.590   0.048   4.627 -0.0351 -1.1035  0.4643
   63MOL   C33031454   6.661   0.162   4.586 -0.2015  0.5722 -0.3089
   63MOL   C33131455   6.803   0.125   4.554 -0.4448  0.1564 -0.7441
   63MOL   C33231456   6.868   0.077   4.683 -0.2497  0.3234  0.5470
   63MOL   C33331457   7.020   0.055   4.695  0.2391  0.4028 -0.1417
   63MOL   C33431458   7.074   7.731   4.598  0.2641 -0.1531 -0.2657
   63MOL   C33531459   7.226   7.721   4.592 -0.2188 -0.0540 -0.6007
   63MOL   H33631460   6.289   7.752   4.787  0.1701  1.9234  2.6006
   63MOL   H33731461   6.419   7.655   4.727  1.0491  0.8664 -1.5279
   63MOL   H33831462   6.426   0.165   4.706  0.1224 -0.5148  1.5336
   63MOL   H33931463   6.662   0.239   4.664 -1.2779 -0.4291  0.7101
   63MOL   H34031464   6.631   0.204   4.490 -0.3338  0.0588 -0.4905
   63MOL   H34131465   6.852   0.215   4.516 -1.8605  1.8141  1.2282
   63MOL   H34231466   6.802   0.055   4.471  0.6555 -2.1381  1.1225
   63MOL   H34331467   6.830   0.144   4.760  1.2481  1.0228  0.6974
   63MOL   H34431468   6.838   7.751   4.697  0.0852  0.2111  0.4341
   63MOL   H34531469   7.063   0.153   4.675  0.1369  0.9489  2.1605
   63MOL   H34631470   7.048   0.032   4.798  2.1433 -0.2084 -0.7724
   63MOL   H34731471   7.043   7.629   4.618  1.2026 -0.2446  0.7832
   63MOL   H34831472   7.033   7.766   4.503  1.4097 -0.6839 -0.9673
   63MOL   H34931473   7.256   7.650   4.515 -4.7094  0.5540 -3.0761
   63MOL   H35031474   7.269   0.041   4.565  1.6511 -0.8417 -0.5196
   63MOL   H35131475   7.268   7.690   4.688  0.1485 -0.2403 -0.8196
   63MOL   C35231476   6.369   0.047   4.530  0.2760 -0.5726  0.4598
   63MOL   C35331477   6.330   0.168   4.453 -0.2552 -0.6606 -0.8491
   63MOL   O35431478   6.247   0.243   4.538 -0.4508 -0.3814  0.3197
   63MOL   C35531479   6.216   0.373   4.487  0.1743  1.0435 -0.1845
   63MOL   C35631480   6.192   0.457   4.616  0.0159  0.6358  0.5474
   63MOL   C35731481   6.322   0.481   4.704 -0.7747  0.3384  0.3411
   63MOL   C35831482   6.304   0.581   4.816  0.4911 -0.4925  1.0738
   63MOL   C35931483   6.437   0.633   4.870  0.5573  0.0313 -0.1781
   63MOL   C36031484   6.413   0.716   4.997 -0.0057  0.7939  0.4653
   63MOL   H36131485   6.423   7.753   4.468  0.3499 -3.1064  3.3165
   63MOL   H36231486   6.277   7.774   4.560 -0.1077 -0.4620 -0.5049
   63MOL   H36331487   6.408   0.235   4.418 -0.1425 -0.1322  0.3759
   63MOL   H36431488   6.134   0.373   4.415 -1.0699 -0.3839  1.1884
   63MOL   H36531489   6.305   0.416   4.442  0.2836  0.6186 -0.3718
   63MOL   H36631490   6.110   0.423   4.679 -0.0550 -0.0105  0.1006
   63MOL   H36731491   6.161   0.555   4.578 -1.2804 -0.0106 -0.0826
   63MOL   H36831492   6.366   0.394   4.753 -1.3691  1.4126  2.8157
   63MOL   H36931493   6.392   0.523   4.631 -1.5974  0.3201 -0.4587
   63MOL   H37031494   6.241   0.663   4.780  0.5043  1.2121  4.7118
   63MOL   H37131495   6.241   0.544   4.897 -1.0900  0.8374  0.4879
   63MOL   H37231496   6.501   0.549   4.900  0.6519  0.4517  0.8160
   63MOL   H37331497   6.481   0.690   4.788  0.9813 -1.3039 -0.9032
   63MOL   H37431498   6.374   0.662   5.083  0.3511 -0.8606 -0.3798
   63MOL   H37531499   6.507   0.761   5.031 -0.9964  1.7994  1.9423
   63MOL   H37631500   6.346   0.796   4.965 -0.6854  0.7120  1.6691
   63MOL   C37731501   6.251   0.105   4.321  0.5496  0.5762 -0.7879
   63MOL   C37831502   6.330   0.065   4.196  0.6309 -0.4202 -0.0123
   63MOL   O37931503   6.386   7.725   4.218 -0.0523 -0.0696 -0.0529
   63MOL   C38031504   6.305   7.610   4.230  0.4961  0.5651 -0.0704
   63MOL   C38131505   6.404   7.502   4.274 -0.4241 -0.1279  0.0302
   63MOL   C38231506   6.368   7.357   4.305 -0.7079 -0.0155  0.2118
   63MOL   C38331507   6.313   7.283   4.181  0.2442  0.0782 -0.5085
   63MOL   C38431508   6.287   7.134   4.200 -0.3197  0.5412  0.1072
   63MOL   C38531509   6.193   7.096   4.318 -0.7870 -0.3401 -0.4476
   63MOL   H38631510   6.177   0.032   4.355  1.5471  0.3110  0.8543
   63MOL   H38731511   6.181   0.181   4.286  2.3729  1.8997 -1.6169
   63MOL   H38831512   6.256   0.041   4.120  2.3694 -4.0236 -0.6630
   63MOL   H38931513   6.271   7.597   4.128  2.3030 -2.4593 -0.3616
   63MOL   H39031514   6.227   7.626   4.305  0.8464  0.2803  0.3609
   63MOL   H39131515   6.453   7.534   4.365 -0.5895 -0.3628  0.2023
   63MOL   H39231516   6.473   7.495   4.190 -1.3378  0.0781 -0.7506
   63MOL   H39331517   6.448   7.303   4.357 -2.6060 -1.4716  1.7145
   63MOL   H39431518   6.288   7.359   4.379 -2.6449  1.5904 -1.8566
   63MOL   H39531519   6.222   7.335   4.151 -0.1475 -1.7098 -2.5435
   63MOL   H39631520   6.387   7.292   4.102 -0.2176  2.2545 -0.7237
   63MOL   H39731521   6.233   7.109   4.109 -0.3609 -0.4005  0.3911
   63MOL   H39831522   6.379   7.076   4.197 -1.3361 -1.0612 -0.3166
   63MOL   H39931523   6.098   7.149   4.301  1.3092  3.3626 -1.2495
   63MOL   H40031524   6.169   6.990   4.310 -0.7016 -0.4420  0.5854
   63MOL   H40131525   6.230   7.113   4.419 -2.2652 -1.2940  0.2812
   63MOL   C40231526   6.435   0.168   4.142  0.5408 -0.0322 -0.5248
   63MOL   C40331527   6.380   0.314   4.113  0.5496  0.3029 -0.3823
   63MOL   O40431528   6.256   0.296   4.048 -0.6519  0.4355  0.0977
   63MOL   C40531529   6.164   0.387   4.084  0.4695  0.0253  0.0891
   63MOL   C40631530   6.032   0.351   4.013  0.2372  0.3622  0.1864
   63MOL   C40731531   5.914   0.435   4.060 -0.1619  0.0674 -1.0578
   63MOL   C40831532   5.779   0.376   4.011 -0.1241 -0.1776  0.1573
   63MOL   C40931533   5.662   0.453   4.076 -0.0332 -0.7066 -0.7438
   63MOL   C41031534   5.520   0.422   4.019  0.5301  0.4228  0.2435
   63MOL   H41131535   6.480   0.121   4.054  0.8325 -0.6048 -0.0773
   63MOL   H41231536   6.523   0.176   4.207  0.0461 -1.7124  0.3872
   63MOL   H41331537   6.365   0.351   4.214 -2.6510 -2.5870  0.2766
   63MOL   H41431538   6.198   0.483   4.045  1.3955  0.1987  1.3060
   63MOL   H41531539   6.147   0.392   4.192  1.8695 -2.2123  0.4412
   63MOL   H41631540   6.018   0.250   4.049  1.5190 -0.1280 -0.6375
   63MOL   H41731541   6.042   0.357   3.904  0.9940 -0.8147  0.1862
   63MOL   H41831542   5.924   0.447   4.168 -1.1582  1.4037 -1.1045
   63MOL   H41931543   5.937   0.537   4.030 -3.8549  0.8037 -1.5061
   63MOL   H42031544   5.766   0.384   3.903 -0.1191  0.6218  0.2130
   63MOL   H42131545   5.784   0.271   4.038  0.8318  0.3564  2.0963
   63MOL   H42231546   5.667   0.441   4.184 -0.6842  0.6857 -0.5392
   63MOL   H42331547   5.680   0.561   4.069  1.8674 -0.9738 -0.2003
   63MOL   H42431548   5.470   0.330   4.047  3.4378 -1.1609  0.4473
   63MOL   H42531549   5.454   0.508   4.031  0.2723  0.0184  1.7529
   63MOL   H42631550   5.535   0.415   3.911 -0.2560 -1.7393  0.2505
   63MOL   C42731551   6.467   0.408   4.038  0.1277 -0.6682 -1.1307
   63MOL   C42831552   6.605   0.442   4.096 -0.6237  0.2468 -0.7527
   63MOL   O42931553   6.676   0.547   4.022 -0.5910  0.1387 -0.8948
   63MOL   C43031554   6.717   0.501   3.896 -0.4820  0.2778 -0.1282
   63MOL   C43131555   6.831   0.594   3.836 -0.3498  0.1079  0.0101
   63MOL   C43231556   6.972   0.582   3.906 -0.0527 -0.1488 -0.0134
   63MOL   C43331557   7.059   0.708   3.873 -0.1581 -0.3378 -0.1291
   63MOL   C43431558   7.198   0.710   3.935  0.0972 -0.4012 -0.1038
   63MOL   C43531559   7.203   0.704   4.087 -0.6439  0.1663  0.4247
   63MOL   H43631560   6.478   0.365   3.939 -2.4110 -1.8632 -0.9281
   63MOL   H43731561   6.426   0.509   4.034  0.8528 -0.3387 -0.4922
   63MOL   H43831562   6.664   0.351   4.098 -0.3188  0.3365 -3.3421
   63MOL   H43931563   6.637   0.501   3.821 -1.9894 -1.9726  1.3903
   63MOL   H44031564   6.753   0.398   3.899  1.8066  1.0844  0.7273
   63MOL   H44131565   6.798   0.696   3.855 -0.0116  0.2125  0.0414
   63MOL   H44231566   6.850   0.578   3.730 -1.0541  0.3849 -0.1585
   63MOL   H44331567   6.956   0.595   4.013  1.9423  0.4466  0.2487
   63MOL   H44431568   7.036   0.495   3.889 -1.4744 -0.6970 -2.8320
   63MOL   H44531569   7.090   0.693   3.769 -3.1019  2.3680 -1.4842
   63MOL   H44631570   7.007   0.802   3.891  1.7204  0.5276  0.9574
   63MOL   H44731571   7.254   0.622   3.904  0.4830 -0.3127  0.3337
   63MOL   H44831572   7.243   0.806   3.910  0.2972 -0.6265 -0.6083
   63MOL   H44931573   7.299   0.736   4.128  0.0955  1.0762 -1.9805
   63MOL   H45031574   7.130   0.774   4.130  0.3124  1.1691  0.4382
   63MOL   H45131575   7.195   0.606   4.133  1.7416 -0.5447 -0.6381
   63MOL   C45231576   6.600   0.487   4.243 -0.6730  0.0736 -0.5102
   63MOL   C45331577   6.732   0.503   4.313  0.6176  0.2406  0.6978
   63MOL   O45431578   6.792   0.376   4.326 -0.9550  0.7325  0.4077
   63MOL   C45531579   6.906   0.351   4.242  0.1460  0.5499  0.3971
   63MOL   C45631580   6.978   0.224   4.274 -0.1971  0.0946 -0.9235
   63MOL   C45731581   7.108   0.195   4.193  0.1659 -0.0511  0.5500
   63MOL   C45831582   7.174   0.046   4.203 -0.1981  0.5821  0.5123
   63MOL   C45931583   7.085   7.709   4.148  0.5949 -0.3262 -0.2454
   63MOL   C46031584   7.072   7.706   3.998  0.1168 -0.1103  0.3295
   63MOL   H46131585   6.540   0.576   4.257  0.3139  0.9283 -1.6229
   63MOL   H46231586   6.553   0.410   4.304 -2.1777  2.3367  1.2326
   63MOL   H46331587   6.791   0.578   4.260 -0.2092  0.7835  0.5396
   63MOL   H46431588   6.971   0.436   4.264  1.7618  0.1673 -2.6857
   63MOL   H46531589   6.883   0.369   4.137  3.4081  1.7576 -0.1843
   63MOL   H46631590   6.907   0.141   4.272 -0.6886  0.5048 -0.4562
   63MOL   H46731591   6.998   0.239   4.380 -0.1630  2.7187 -1.2891
   63MOL   H46831592   7.092   0.226   4.090  0.4277  1.3505  0.9163
   63MOL   H46931593   7.179   0.273   4.221  1.4959 -0.5344 -1.3270
   63MOL   H47031594   7.273   0.039   4.158 -0.5265 -0.3852 -0.0826
   63MOL   H47131595   7.207   0.025   4.305 -0.2619  0.1326  0.4421
   63MOL   H47231596   7.126   7.614   4.183  0.3413 -0.4511 -0.2924
   63MOL   H47331597   6.987   7.714   4.194  0.3052  0.7780 -0.9620
   63MOL   H47431598   7.023   0.014   3.950  0.1995 -0.8405 -1.0855
   63MOL   H47531599   7.171   7.708   3.954 -0.3475  5.2570 -0.8516
   63MOL   H47631600   7.023   7.613   3.969 -2.9783  1.2380  0.9290
   63MOL   C47731601   6.705   0.562   4.455  0.4959  0.4614  0.1586
   63MOL   C47831602   6.826   0.627   4.517 -0.2481  0.7014  0.6347
   63MOL   O47931603   6.783   0.647   4.648 -0.3060 -0.0498  0.2948
   63MOL   C48031604   6.870   0.712   4.739  0.0335  0.1247  0.2716
   63MOL   C48131605   6.786   0.768   4.855  0.0623  0.0128 -0.6888
   63MOL   C48231606   6.861   0.830   4.974  0.0455 -0.0757 -0.6944
   63MOL   C48331607   6.789   0.847   5.108 -0.2654  0.3229  0.3799
   63MOL   C48431608   6.863   0.924   5.218  0.3645 -0.5812 -0.1918
   63MOL   C48531609   6.972   0.847   5.303 -0.4768  0.1590 -0.2164
   63MOL   H48631610   6.623   0.634   4.457  1.2453  1.3485 -1.0111
   63MOL   H48731611   6.663   0.480   4.515  2.3060 -2.5739 -2.5797
   63MOL   H48831612   6.909   0.557   4.522 -2.2595 -1.8253 -0.4628
   63MOL   H48931613   6.923   0.793   4.690 -0.5905  0.2886 -0.1359
   63MOL   H49031614   6.942   0.635   4.767  0.8421 -0.3490 -2.9796
   63MOL   H49131615   6.752   0.676   4.902  2.6639  0.1482  1.5825
   63MOL   H49231616   6.707   0.829   4.812  0.0880  0.2577 -0.3897
   63MOL   H49331617   6.960   0.787   4.993  0.1941  0.1206 -1.0055
   63MOL   H49431618   6.892   0.929   4.939  0.4064  0.3874  0.8770
   63MOL   H49531619   6.691   0.893   5.097 -1.3492 -1.8779  0.6322
   63MOL   H49631620   6.781   0.746   5.148  1.1976  0.4846  1.1246
   63MOL   H49731621   6.902   1.013   5.170  0.0652  0.3560  1.2636
   63MOL   H49831622   6.797   0.965   5.294 -1.5079 -2.0528 -0.9759
   63MOL   H49931623   7.025   0.918   5.366  0.8257 -0.7396 -0.2695
   63MOL   H50031624   6.929   0.762   5.356 -0.1612 -0.8298 -1.4981
   63MOL   H50131625   7.050   0.809   5.237 -0.9166 -1.6571  0.2636
   63MOL   H50231626   6.854   0.712   4.454 -0.2735 -0.1592 -0.5605
   64MOL     C131627   3.878   3.736   6.664 -0.8318 -0.0689 -0.0242
   64MOL     C231628   3.773   3.630   6.664 -0.0631 -0.0045  0.1872
   64MOL     O331629   3.796   3.546   6.774  0.9769  0.3328 -0.2419
   64MOL     C431630   3.734   3.596   6.889  0.3238 -0.0811  0.4835
   64MOL     C531631   3.726   3.472   6.981 -0.6113 -0.3324  0.4893
   64MOL     C631632   3.659   3.508   7.114  0.0284 -0.3174 -0.2410
   64MOL     C731633   3.630   3.382   7.199 -0.2255 -0.2484 -0.0699
   64MOL     C831634   3.555   3.413   7.328 -0.0861  0.8069  0.0199
   64MOL     C931635   3.538   3.281   7.408  0.2418 -0.2750  0.3319
   64MOL    H1031636   3.870   3.805   6.749 -0.6596  0.1757 -0.2057
   64MOL    H1131637   3.973   3.684   6.680  0.0747  1.7949  0.8528
   64MOL    H1231638   3.667   3.658   6.668 -0.0027  0.5944 -2.0357
   64MOL    H1331639   3.630   3.627   6.877  0.0602 -0.7512  1.0249
   64MOL    H1431640   3.784   3.683   6.931 -0.2440  0.7426 -0.5174
   64MOL    H1531641   3.828   3.439   6.997 -1.1786 -1.4676  1.8704
   64MOL    H1631642   3.663   3.399   6.930  1.0020  0.9120 -3.5362
   64MOL    H1731643   3.721   3.586   7.157 -0.7186  1.6955 -2.7250
   64MOL    H1831644   3.562   3.552   7.089 -0.7768 -0.4104  2.5751
   64MOL    H1931645   3.583   3.302   7.144 -0.5968 -1.0562  1.4017
   64MOL    H2031646   3.729   3.347   7.230 -0.4849 -1.5600 -0.7398
   64MOL    H2131647   3.452   3.430   7.299 -0.6144  0.4143  1.6253
   64MOL    H2231648   3.599   3.496   7.383  1.7786 -0.3977  0.3869
   64MOL    H2331649   3.480   3.300   7.499 -0.2263  1.3897 -0.2944
   64MOL    H2431650   3.481   3.205   7.354 -0.4568  0.3181  0.2282
   64MOL    H2531651   3.640   3.249   7.431  0.2216 -0.5814 -0.0019
   64MOL    H2631652   3.872   3.805   6.580  0.1711 -2.3331 -1.9917
   64MOL    C2731653   3.799   3.537   6.548  0.3983 -0.5517 -0.2045
   64MOL    C2831654   3.713   3.408   6.547 -0.1194  0.0772  0.1637
   64MOL    O2931655   3.584   3.434   6.492 -0.0137  0.0718  0.0181
   64MOL    C3031656   3.473   3.422   6.585  0.3683  0.2502  0.0578
   64MOL    C3131657   3.347   3.447   6.503 -0.4795  0.3372  0.4023
   64MOL    C3231658   3.333   3.356   6.377  0.4069 -0.3380  0.1186
   64MOL    C3331659   3.206   3.378   6.299 -0.2635  0.1797 -0.5975
   64MOL    C3431660   3.220   3.315   6.165  0.1817  0.3940 -0.3149
   64MOL    C3531661   3.101   3.340   6.066  1.0028 -0.2854 -0.6520
   64MOL    H3631662   3.781   3.592   6.456 -1.6079 -0.8038  0.0202
   64MOL    H3731663   3.902   3.503   6.533  0.3326 -1.6137  1.5638
   64MOL    H3831664   3.718   3.372   6.650  2.1706 -1.2300 -0.3552
   64MOL    H3931665   3.483   3.498   6.662  0.3703  1.4458 -1.1187
   64MOL    H4031666   3.471   3.329   6.642 -0.6390  0.3733  0.2468
   64MOL    H4131667   3.341   3.549   6.466  0.6922  0.5668  0.8262
   64MOL    H4231668   3.257   3.442   6.564 -0.6286  2.9839  0.4411
   64MOL    H4331669   3.418   3.368   6.311  0.4747  0.2402  0.3128
   64MOL    H4431670   3.344   3.253   6.412  1.2615 -0.4679 -0.5166
   64MOL    H4531671   3.112   3.337   6.337 -0.5733 -0.3714 -1.9287
   64MOL    H4631672   3.197   3.485   6.279 -1.5104  0.1655 -0.1884
   64MOL    H4731673   3.313   3.344   6.116 -0.1816 -2.3871 -2.8212
   64MOL    H4831674   3.241   3.208   6.172  1.5045  0.6236 -0.5400
   64MOL    H4931675   3.118   3.297   5.968 -0.0216 -2.0439 -0.0800
   64MOL    H5031676   3.006   3.294   6.094  0.0494  1.3623 -1.0964
   64MOL    H5131677   3.077   3.444   6.043 -0.3345 -0.5311 -0.3910
   64MOL    C5231678   3.784   3.302   6.458  0.2490 -0.2570 -0.6851
   64MOL    C5331679   3.718   3.159   6.455  0.1493 -0.8294 -0.2591
   64MOL    O5431680   3.763   3.097   6.337  0.0971 -0.3945  0.1497
   64MOL    C5531681   3.673   3.102   6.231 -0.3274  0.0748 -0.2706
   64MOL    C5631682   3.555   3.013   6.237 -0.2132  0.1981 -0.0002
   64MOL    C5731683   3.586   2.861   6.266 -0.3897  0.4481 -0.5537
   64MOL    C5831684   3.474   2.761   6.243  0.6563 -0.4093 -0.3838
   64MOL    C5931685   3.511   2.613   6.270  0.2710  0.2105  0.3252
   64MOL    C6031686   3.386   2.523   6.281 -0.1051  0.2043  0.2149
   64MOL    H6131687   3.887   3.290   6.490  0.0849  0.3495  0.0913
   64MOL    H6231688   3.785   3.351   6.361 -0.8850  2.4194  0.5972
   64MOL    H6331689   3.611   3.179   6.453  0.2584 -0.3190 -1.4565
   64MOL    H6431690   3.728   3.066   6.144  1.8399 -0.2269  1.1694
   64MOL    H6531691   3.643   3.206   6.217  1.3791  0.6374  0.1163
   64MOL    H6631692   3.494   3.022   6.147  0.9535  0.7344 -0.7424
   64MOL    H6731693   3.491   3.062   6.312 -2.3910 -1.9921 -0.3815
   64MOL    H6831694   3.665   2.849   6.192  3.1923  3.6516  2.5671
   64MOL    H6931695   3.644   2.851   6.358 -1.3561 -1.4282 -0.1075
   64MOL    H7031696   3.390   2.774   6.311 -1.5126 -0.6291 -2.9321
   64MOL    H7131697   3.433   2.767   6.142 -0.9772 -1.1017  0.2170
   64MOL    H7231698   3.580   2.579   6.193  1.3918 -1.7948  2.1440
   64MOL    H7331699   3.581   2.601   6.353  0.1159  0.7115  0.5304
   64MOL    H7431700   3.428   2.432   6.322  1.4670  1.6860  2.0205
   64MOL    H7531701   3.320   2.570   6.354  1.1300  2.7058 -0.2054
   64MOL    H7631702   3.355   2.516   6.177  0.8740 -2.3822  0.0675
   64MOL    C7731703   3.734   3.057   6.569 -0.3645  0.1329 -0.0020
   64MOL    C7831704   3.628   3.070   6.684  0.0106 -0.1278  0.1679
   64MOL    O7931705   3.672   2.990   6.795  0.6389 -0.1298  0.7499
   64MOL    C8031706   3.766   3.025   6.892  0.7637  0.6034 -0.3059
   64MOL    C8131707   3.716   2.958   7.022  0.2048 -0.3358  0.3234
   64MOL    C8231708   3.815   2.991   7.126  0.3178 -0.3465 -0.3289
   64MOL    C8331709   3.773   2.951   7.271  0.8067 -0.6031 -0.1077
   64MOL    C8431710   3.892   2.967   7.362  0.2149  0.2698  0.2809
   64MOL    C8531711   3.844   3.008   7.503 -0.2357  0.3803 -0.7765
   64MOL    H8631712   3.837   3.073   6.603  0.3689  0.5302 -2.2872
   64MOL    H8731713   3.728   2.964   6.512 -2.9178  1.3430 -1.7645
   64MOL    H8831714   3.631   3.169   6.730  0.2227  0.8005 -1.8321
   64MOL    H8931715   3.779   3.133   6.905  0.5057  0.4658  1.1923
   64MOL    H9031716   3.855   2.979   6.851 -0.1134 -0.8168 -0.6402
   64MOL    H9131717   3.724   2.851   7.006  2.1721  0.1804 -2.7020
   64MOL    H9231718   3.613   2.980   7.049  0.2243 -0.9346  0.8929
   64MOL    H9331719   3.912   2.945   7.105  0.5354 -1.0717  2.0849
   64MOL    H9431720   3.821   3.100   7.122 -0.4206 -0.3185 -0.7878
   64MOL    H9531721   3.696   3.020   7.305  1.3349 -0.5670  1.0277
   64MOL    H9631722   3.731   2.851   7.279  0.7511 -0.3350  4.2372
   64MOL    H9731723   3.942   2.872   7.379  1.1302  0.5668 -0.6424
   64MOL    H9831724   3.972   3.033   7.328  0.0000  1.2297  1.6063
   64MOL    H9931725   3.923   2.981   7.573 -2.1973 -2.1927  0.5213
   64MOL   H10031726   3.819   3.114   7.504 -0.9021  0.2150  1.5388
   64MOL   H10131727   3.753   2.957   7.535 -0.0442 -0.2798 -1.2510
   64MOL   C10231728   3.485   3.021   6.657 -0.6013 -0.4160  0.2575
   64MOL   C10331729   3.379   3.026   6.767 -0.0864  0.4443 -0.4969
   64MOL   O10431730   3.349   3.167   6.787  0.1841 -1.0674  0.5975
   64MOL   C10531731   3.356   3.205   6.926  0.2106  0.5893  0.4991
   64MOL   C10631732   3.330   3.362   6.938  0.0833  0.4906  0.3091
   64MOL   C10731733   3.209   3.423   6.873  0.3073  0.3844 -1.6912
   64MOL   C10831734   3.227   3.579   6.871  0.0312  0.3740 -0.2933
   64MOL   C10931735   3.089   3.639   6.850 -0.1755  0.0102 -0.2744
   64MOL   C11031736   3.083   3.742   6.734  0.3430  0.1607  0.0866
   64MOL   H11131737   3.451   3.080   6.571 -1.4928 -0.6501  0.4413
   64MOL   H11231738   3.492   2.917   6.624  2.5571 -0.5460  1.1804
   64MOL   H11331739   3.421   2.981   6.857 -1.3764 -0.2947 -0.2480
   64MOL   H11431740   3.456   3.190   6.968  0.5888 -0.6138 -0.8039
   64MOL   H11531741   3.284   3.157   6.992 -0.2997 -1.4017 -1.4412
   64MOL   H11631742   3.412   3.418   6.895 -0.6558  0.5781 -1.0037
   64MOL   H11731743   3.320   3.382   7.045  1.0087 -0.0390  0.4991
   64MOL   H11831744   3.194   3.377   6.775 -0.4784  0.6578 -1.7039
   64MOL   H11931745   3.121   3.394   6.930  1.9653 -0.0741  0.7364
   64MOL   H12031746   3.263   3.615   6.967  1.3511 -2.1125  0.1834
   64MOL   H12131747   3.296   3.615   6.795  2.3146 -1.6829  0.7280
   64MOL   H12231748   3.013   3.564   6.833  0.2381 -0.6229  0.6104
   64MOL   H12331749   3.064   3.683   6.947 -5.2031 -0.3134 -1.2893
   64MOL   H12431750   2.989   3.795   6.729 -1.2996 -2.1590  4.1389
   64MOL   H12531751   3.162   3.817   6.738 -1.0920  1.7173 -0.4795
   64MOL   H12631752   3.096   3.689   6.639  2.0819  1.2254 -0.2937
   64MOL   C12731753   3.243   2.964   6.733  0.3681  0.2296  0.2448
   64MOL   C12831754   3.233   2.810   6.741  0.4899  0.6709  0.1035
   64MOL   O12931755   3.109   2.773   6.680 -0.8049  0.4545 -0.2174
   64MOL   C13031756   3.115   2.766   6.544  0.7993  0.1485  0.6659
   64MOL   C13131757   2.985   2.693   6.500 -0.3041  0.1176 -0.6854
   64MOL   C13231758   2.987   2.543   6.542 -0.0408 -0.2815 -0.5032
   64MOL   C13331759   2.867   2.471   6.491 -1.0609 -0.3897  0.3902
   64MOL   C13431760   2.878   2.322   6.518 -0.3037  0.2190  0.7239
   64MOL   C13531761   2.767   2.235   6.464 -0.6252  0.0312 -0.5265
   64MOL   H13631762   3.166   3.014   6.792  0.1370  0.9040 -0.6033
   64MOL   H13731763   3.212   2.992   6.632  1.0148 -0.4145 -0.1368
   64MOL   H13831764   3.320   2.777   6.685  0.6404 -0.0154  0.7271
   64MOL   H13931765   3.198   2.720   6.491  0.2022 -0.7440  0.5048
   64MOL   H14031766   3.126   2.861   6.491 -0.1754 -1.0748 -1.7775
   64MOL   H14131767   2.981   2.704   6.392  2.6074  1.2726 -0.7156
   64MOL   H14231768   2.894   2.737   6.541 -1.0641 -0.4280 -1.7641
   64MOL   H14331769   3.081   2.493   6.524 -0.7145 -0.9101 -2.4283
   64MOL   H14431770   2.973   2.543   6.650 -0.8742  1.6831 -0.5714
   64MOL   H14531771   2.772   2.500   6.535 -0.7063 -1.0024  1.6041
   64MOL   H14631772   2.875   2.482   6.383  0.3143  1.1965  0.6239
   64MOL   H14731773   2.971   2.283   6.476 -0.5695 -1.4556  1.6381
   64MOL   H14831774   2.881   2.302   6.625  0.3409 -2.5150  0.2290
   64MOL   H14931775   2.735   2.264   6.364 -0.1113  1.3401 -0.3181
   64MOL   H15031776   2.790   2.128   6.460  0.1821  0.1669  0.3077
   64MOL   H15131777   2.673   2.242   6.520  0.3049  1.5517  0.8932
   64MOL   C15231778   3.237   2.746   6.879 -0.5863  0.4459  0.3566
   64MOL   C15331779   3.232   2.595   6.884  0.6366 -0.3893  0.3907
   64MOL   O15431780   3.353   2.548   6.831  0.1438 -0.0200  0.7295
   64MOL   C15531781   3.353   2.491   6.700 -0.8768 -0.3726  0.1635
   64MOL   C15631782   3.504   2.460   6.669 -0.0430 -1.1814 -0.1649
   64MOL   C15731783   3.595   2.578   6.667 -0.1591 -0.0898  0.3103
   64MOL   C15831784   3.731   2.532   6.633 -0.3371 -0.7041  0.8446
   64MOL   C15931785   3.819   2.659   6.626 -0.3821 -0.9895 -0.5385
   64MOL   C16031786   3.851   2.725   6.764 -0.9187  0.1566 -0.1001
   64MOL   H16131787   3.321   2.776   6.942 -0.9293  0.2136  0.9278
   64MOL   H16231788   3.150   2.781   6.936 -1.3337 -0.7778 -0.0196
   64MOL   H16331789   3.150   2.558   6.823  0.9678  0.9311 -0.8766
   64MOL   H16431790   3.307   2.561   6.630 -1.9302 -0.7475  0.4600
   64MOL   H16531791   3.286   2.405   6.700 -0.3627 -0.7759 -0.5291
   64MOL   H16631792   3.491   2.413   6.571 -3.1121  0.0010 -0.3830
   64MOL   H16731793   3.541   2.384   6.737  0.9223 -0.4311  0.1507
   64MOL   H16831794   3.560   2.659   6.604  4.3985  1.0026 -0.9597
   64MOL   H16931795   3.590   2.620   6.768  0.5274 -1.5908  0.9904
   64MOL   H17031796   3.779   2.465   6.705  0.0259 -1.0054  0.3230
   64MOL   H17131797   3.718   2.481   6.538  1.3974 -0.4518  0.4648
   64MOL   H17231798   3.910   2.625   6.577  1.6931  0.7928  1.9402
   64MOL   H17331799   3.782   2.734   6.556 -1.1832 -3.5089 -2.8861
   64MOL   H17431800   3.894   2.659   6.840 -1.9323  1.0529  1.2652
   64MOL   H17531801   3.920   2.809   6.749 -1.6114  1.1229  1.9159
   64MOL   H17631802   3.755   2.763   6.797 -0.6890  0.4575  0.2320
   64MOL   C17731803   3.226   2.536   7.028 -0.3427  0.4265  0.9065
   64MOL   C17831804   3.200   2.389   7.063 -0.2678 -0.1857  0.1413
   64MOL   O17931805   3.181   2.387   7.206 -0.3144 -0.2228  0.2262
   64MOL   C18031806   3.298   2.390   7.282 -0.2360 -0.1234 -0.3476
   64MOL   C18131807   3.252   2.388   7.430  0.2168 -0.3045  0.2177
   64MOL   C18231808   3.186   2.259   7.486 -0.0085  0.4547 -0.1066
   64MOL   C18331809   3.086   2.283   7.604  0.3530  0.5989 -0.0244
   64MOL   C18431810   2.993   2.165   7.649 -0.8006 -0.3693  0.0706
   64MOL   C18531811   2.874   2.130   7.555 -0.2837  0.8510 -0.6837
   64MOL   H18631812   3.326   2.545   7.069 -0.1354 -1.2245  0.7724
   64MOL   H18731813   3.161   2.605   7.083 -1.9619 -1.5649  1.5540
   64MOL   H18831814   3.281   2.319   7.040 -0.3347 -0.9262  2.0644
   64MOL   H18931815   3.364   2.473   7.261  1.7888 -1.3547  0.9430
   64MOL   H19031816   3.358   2.300   7.267 -0.1439 -0.1786  0.3056
   64MOL   H19131817   3.173   2.463   7.438  0.9438  0.4421  0.5286
   64MOL   H19231818   3.342   2.411   7.487  1.6219  0.7083 -2.3302
   64MOL   H19331819   3.137   2.208   7.403  1.0319  0.2176 -0.5742
   64MOL   H19431820   3.264   2.190   7.516 -1.3267 -0.6290  0.8783
   64MOL   H19531821   3.150   2.307   7.689 -2.5926 -0.2447  2.5660
   64MOL   H19631822   3.025   2.373   7.605 -1.3053 -0.4748  3.3917
   64MOL   H19731823   3.061   2.081   7.659 -2.7005 -2.2056 -1.9517
   64MOL   H19831824   2.964   2.172   7.754 -0.9099 -2.0118  0.1632
   64MOL   H19931825   2.825   2.040   7.593 -0.4056  1.4699  0.6507
   64MOL   H20031826   2.808   2.216   7.544 -1.5916 -0.1365 -0.6864
   64MOL   H20131827   2.903   2.100   7.454  2.0768  0.0618  0.1650
   64MOL   C20231828   3.075   2.325   6.998 -0.2999 -1.3802 -0.1401
   64MOL   C20331829   3.069   2.172   6.990 -0.6478 -0.0867  0.7984
   64MOL   O20431830   3.176   2.120   6.909  0.0295  0.4408  0.3070
   64MOL   C20531831   3.234   1.995   6.943 -0.0023 -0.6916 -0.2729
   64MOL   C20631832   3.347   1.971   6.846 -0.1457 -0.3806  0.5997
   64MOL   C20731833   3.294   1.941   6.707 -0.3273 -0.1270 -0.1489
   64MOL   C20831834   3.389   1.953   6.588 -0.1629 -0.3097 -0.5104
   64MOL   C20931835   3.384   2.096   6.528  0.4756  1.0183  0.3392
   64MOL   C21031836   3.489   2.108   6.420 -0.2778 -0.5790 -0.5530
   64MOL   H21131837   2.986   2.368   7.043  0.4825  0.1610  0.0078
   64MOL   H21231838   3.062   2.362   6.896  0.8338  0.4060  0.3336
   64MOL   H21331839   3.083   2.133   7.091 -2.9849 -0.7356  0.9014
   64MOL   H21431840   3.158   1.917   6.934  0.9680 -1.9721  2.0214
   64MOL   H21531841   3.286   1.989   7.039 -0.0726  1.0215 -0.1138
   64MOL   H21631842   3.409   1.885   6.875 -0.7318 -1.7455 -2.0049
   64MOL   H21731843   3.417   2.054   6.845 -1.2669  0.5727  0.7227
   64MOL   H21831844   3.238   1.848   6.703 -0.0048 -0.4331  1.7692
   64MOL   H21931845   3.211   2.011   6.694 -0.8418 -0.8570 -0.7957
   64MOL   H22031846   3.488   1.924   6.624 -0.6551 -0.5587  0.6666
   64MOL   H22131847   3.367   1.880   6.509 -2.6053  0.4592 -0.5933
   64MOL   H22231848   3.282   2.116   6.495 -0.5182 -0.8018  2.2369
   64MOL   H22331849   3.391   2.168   6.610  2.1343  0.8071  0.4005
   64MOL   H22431850   3.591   2.088   6.451 -0.3374 -1.4520 -0.9007
   64MOL   H22531851   3.469   2.037   6.340 -0.0314  0.8484 -1.9040
   64MOL   H22631852   3.486   2.211   6.384  0.1402 -0.8085 -1.2573
   64MOL   C22731853   2.938   2.101   6.956 -1.0601  0.4320  0.5225
   64MOL   C22831854   2.824   2.104   7.058 -0.1491  0.0622  0.0014
   64MOL   O22931855   2.713   2.065   6.976 -0.1859  0.3824 -0.8843
   64MOL   C23031856   2.588   2.122   7.006  0.0106 -0.0284  0.0088
   64MOL   C23131857   2.568   2.241   6.907  0.0889 -0.5311 -0.2838
   64MOL   C23231858   2.546   2.374   6.985 -0.3050  0.0538  0.5583
   64MOL   C23331859   2.548   2.502   6.911 -0.1612 -0.4071  0.5548
   64MOL   C23431860   2.696   2.535   6.880  0.0667  0.5956  0.0677
   64MOL   C23531861   2.708   2.667   6.811 -0.3549 -0.6622 -0.4785
   64MOL   H23631862   2.901   2.145   6.863 -1.1047 -1.1378 -0.2085
   64MOL   H23731863   2.953   1.996   6.931 -0.3262  0.6652 -0.0442
   64MOL   H23831864   2.799   2.207   7.083 -0.3375 -0.0230  0.1633
   64MOL   H23931865   2.576   2.146   7.111 -2.0740  1.0235 -0.4396
   64MOL   H24031866   2.504   2.053   7.004  0.8698 -1.0614 -2.2703
   64MOL   H24131867   2.493   2.215   6.833  0.4386  0.4066 -0.9771
   64MOL   H24231868   2.656   2.253   6.843 -2.1383  3.0208 -2.8537
   64MOL   H24331869   2.445   2.364   7.026  0.0440 -0.8322  1.2055
   64MOL   H24431870   2.610   2.371   7.073  1.4411  1.3109 -0.6372
   64MOL   H24531871   2.493   2.510   6.817  1.3220 -0.2460 -0.3130
   64MOL   H24631872   2.509   2.584   6.972  0.4052  1.5703 -1.6526
   64MOL   H24731873   2.746   2.537   6.977  1.4744 -0.4252 -0.6148
   64MOL   H24831874   2.741   2.458   6.819 -0.2956  1.6209 -1.5067
   64MOL   H24931875   2.670   2.750   6.871  1.1472 -1.0035  0.9735
   64MOL   H25031876   2.810   2.706   6.810  0.0604 -1.7285  0.0940
   64MOL   H25131877   2.665   2.662   6.711  0.9257  1.5830 -1.1938
   64MOL   C25231878   2.850   2.032   7.193 -0.0492  0.3347 -0.3568
   64MOL   C25331879   2.873   1.882   7.181  0.0892  0.0321  0.0182
   64MOL   O25431880   2.784   1.812   7.269  0.4742  0.5130 -0.3069
   64MOL   C25531881   2.645   1.812   7.229 -0.2002  0.0861  0.4687
   64MOL   C25631882   2.568   1.735   7.335  0.6959  0.8555 -0.3932
   64MOL   C25731883   2.413   1.745   7.313 -0.7070 -0.5112 -0.0113
   64MOL   C25831884   2.347   1.668   7.426  0.1240  0.2977 -0.6560
   64MOL   C25931885   2.198   1.645   7.406  0.3513 -0.3523 -0.2526
   64MOL   C26031886   2.145   1.554   7.520  0.4195 -0.5128  0.1127
   64MOL   H26131887   2.936   2.077   7.242  0.4336 -1.5752  0.5973
   64MOL   H26231888   2.757   2.048   7.248 -0.3184  0.5498 -0.8673
   64MOL   H26331889   2.881   1.841   7.080 -3.4367 -2.6238  0.7095
   64MOL   H26431890   2.618   1.776   7.129  0.2911 -0.0677  0.3901
   64MOL   H26531891   2.606   1.913   7.226  3.2710  1.4699 -0.3054
   64MOL   H26631892   2.575   1.795   7.426 -3.5883  0.2219  0.5025
   64MOL   H26731893   2.604   1.633   7.350 -1.0568  0.4518  1.3682
   64MOL   H26831894   2.374   1.847   7.315 -0.6951 -0.5373  2.0126
   64MOL   H26931895   2.382   1.699   7.219 -0.8669  0.1025 -0.2682
   64MOL   H27031896   2.397   1.572   7.437 -1.1661 -0.4701 -1.3833
   64MOL   H27131897   2.355   1.713   7.525  2.6347  2.5446 -1.7893
   64MOL   H27231898   2.144   1.739   7.407  1.1687  0.1218  1.0567
   64MOL   H27331899   2.176   1.609   7.306 -0.2645  2.1838 -1.0632
   64MOL   H27431900   2.168   1.587   7.621 -1.5616 -0.7268  0.6663
   64MOL   H27531901   2.037   1.543   7.512  0.5480 -0.8842 -1.1884
   64MOL   H27631902   2.165   1.448   7.504  1.0717 -0.1286 -1.7324
   64MOL   C27731903   3.008   1.844   7.245 -0.0536  0.5657  0.0358
   64MOL   C27831904   3.024   1.691   7.248 -0.0022  0.4180  0.2752
   64MOL   O27931905   3.010   1.643   7.113 -0.0733  0.3454 -0.1451
   64MOL   C28031906   2.897   1.559   7.089  0.0594  0.0658 -0.0074
   64MOL   C28131907   2.867   1.561   6.942  0.1136  0.6250 -0.1912
   64MOL   C28231908   2.735   1.496   6.895 -0.2652  0.3232 -0.1631
   64MOL   C28331909   2.721   1.508   6.746 -0.2342  0.0136 -0.0918
   64MOL   C28431910   2.596   1.426   6.697 -0.3650  0.1722 -0.2871
   64MOL   C28531911   2.569   1.424   6.541  0.4069  0.3284  0.0558
   64MOL   H28631912   3.088   1.880   7.181  1.2231 -1.1712  0.6176
   64MOL   H28731913   3.019   1.879   7.347 -0.4507  0.6267  0.0603
   64MOL   H28831914   2.961   1.639   7.320  0.4093  0.4546  0.6680
   64MOL   H28931915   2.808   1.589   7.145 -0.2122  1.2255 -1.0409
   64MOL   H29031916   2.923   1.458   7.119 -1.2798 -0.2506  0.1361
   64MOL   H29131917   2.946   1.501   6.897  1.3680  1.3232  1.0351
   64MOL   H29231918   2.885   1.660   6.899  0.3596  0.9170  0.5780
   64MOL   H29331919   2.734   1.390   6.921  0.0685 -0.2197 -2.2613
   64MOL   H29431920   2.653   1.538   6.953 -0.3096  0.5811 -0.4131
   64MOL   H29531921   2.710   1.612   6.713  2.0165 -0.5040 -2.5669
   64MOL   H29631922   2.814   1.467   6.707 -0.6538 -2.2959  1.2618
   64MOL   H29731923   2.585   1.330   6.747  1.4926 -1.6653 -3.2322
   64MOL   H29831924   2.503   1.460   6.742  1.1863 -0.1525  3.2985
   64MOL   H29931925   2.485   1.362   6.508  1.6035 -1.4458  0.2832
   64MOL   H30031926   2.550   1.518   6.490 -1.0306 -0.9985 -1.9765
   64MOL   H30131927   2.662   1.408   6.485  0.3411  2.1858 -0.6309
   64MOL   C30231928   3.167   1.650   7.282  0.2887  0.1980 -0.1268
   64MOL   C30331929   3.168   1.490   7.308 -0.5719  0.4054 -0.1226
   64MOL   O30431930   3.120   1.476   7.441 -0.5107 -0.4393  0.1337
   64MOL   C30531931   3.003   1.391   7.461  0.5180 -0.0284  0.0265
   64MOL   C30631932   3.017   1.324   7.597 -0.3151 -0.1847  0.4244
   64MOL   C30731933   2.907   1.220   7.614 -0.3003 -0.3416  0.2120
   64MOL   C30831934   2.918   1.133   7.728  0.2349 -0.1461  0.2853
   64MOL   C30931935   2.857   0.992   7.722  0.2578  0.1835  0.3885
   64MOL   C31031936   2.705   1.007   7.707  0.1221 -0.3738 -0.0770
   64MOL   H31131937   3.244   1.691   7.216 -0.4725  2.6550  0.4325
   64MOL   H31231938   3.193   1.700   7.375  0.9550 -1.5761  0.6578
   64MOL   H31331939   3.110   1.434   7.234  1.0470 -1.3574 -0.1094
   64MOL   H31431940   3.008   1.320   7.378  0.8478  0.1741 -0.1281
   64MOL   H31531941   2.909   1.445   7.449  1.4656  2.2800  2.4734
   64MOL   H31631942   3.026   1.404   7.671 -1.3210  0.8124 -0.5135
   64MOL   H31731943   3.119   1.285   7.595 -0.2846 -0.0633 -0.9550
   64MOL   H31831944   2.809   1.268   7.612  0.4885  1.2588 -0.8418
   64MOL   H31931945   2.911   1.158   7.524 -2.4506 -1.6521  0.9725
   64MOL   H32031946   3.023   1.111   7.744  0.2523 -1.1478 -1.1809
   64MOL   H32131947   2.888   1.196   0.035 -0.9974  2.6307 -2.1269
   64MOL   H32231948   2.898   0.937   7.638  1.6833  1.1804  0.4039
   64MOL   H32331949   2.878   0.940   0.038 -0.4730 -0.9569 -0.0691
   64MOL   H32431950   2.668   1.078   0.003  0.9160 -0.9654  0.9119
   64MOL   H32531951   2.678   1.027   7.603  0.1332 -0.4666 -0.0975
   64MOL   H32631952   2.651   0.913   7.714  0.8738 -0.8018 -0.0112
   64MOL   C32731953   3.309   1.440   7.297  0.7819 -0.3021  0.7978
   64MOL   C32831954   3.339   1.367   7.158 -0.1059 -0.0806 -0.7831
   64MOL   O32931955   3.240   1.269   7.120 -0.0298 -0.1959 -0.3248
   64MOL   C33031956   3.223   1.149   7.183  0.2969 -0.3448 -0.2881
   64MOL   C33131957   3.085   1.088   7.157 -0.0549  0.5625  0.5361
   64MOL   C33231958   3.030   1.001   7.274  0.2271 -0.6213 -0.0703
   64MOL   C33331959   2.881   0.960   7.260 -0.4780 -0.2989 -0.0547
   64MOL   C33431960   2.870   0.832   7.337  0.2614 -0.0817  0.5169
   64MOL   C33531961   2.729   0.807   7.368  0.2344 -0.4004 -0.0775
   64MOL   H33631962   3.324   1.369   7.379  1.3507  2.9524  3.6137
   64MOL   H33731963   3.377   1.523   7.317  2.2790 -1.1600 -0.5914
   64MOL   H33831964   3.440   1.325   7.157  0.2990  0.8900 -1.0666
   64MOL   H33931965   3.244   1.170   7.288 -1.2870 -1.4725  0.2702
   64MOL   H34031966   3.297   1.086   7.136 -0.7317  0.9143 -3.7515
   64MOL   H34131967   3.081   1.026   7.067  2.7492 -0.6422  1.1963
   64MOL   H34231968   3.015   1.171   7.148 -0.8439 -0.2548 -1.0976
   64MOL   H34331969   3.093   0.914   7.294  0.7513 -0.3788 -0.6605
   64MOL   H34431970   3.041   1.069   7.359 -1.1095 -0.2690 -0.1707
   64MOL   H34531971   2.815   1.040   7.294  1.2054  2.1721 -2.3852
   64MOL   H34631972   2.861   0.943   7.154 -0.0915 -0.6738 -0.0684
   64MOL   H34731973   2.917   0.748   7.285  0.0023 -0.5268  0.9967
   64MOL   H34831974   2.925   0.832   7.432  0.5569 -3.5816  0.4232
   64MOL   H34931975   2.696   0.872   7.449  1.7417 -2.3140  2.1448
   64MOL   H35031976   2.671   0.834   7.280 -0.8664  0.9541  1.0416
   64MOL   H35131977   2.717   0.704   7.404 -0.0120  0.6138  2.8451
   64MOL   C35231978   3.355   1.466   7.045 -0.0505 -0.1478 -0.2008
   64MOL   C35331979   3.404   1.400   6.916  0.3607  0.0816 -0.6264
   64MOL   O35431980   3.549   1.402   6.934  0.2372  0.8634  0.4798
   64MOL   C35531981   3.624   1.301   6.862 -0.4220 -0.2357  0.3404
   64MOL   C35631982   3.620   1.162   6.937  0.6236 -0.2144 -0.4940
   64MOL   C35731983   3.727   1.065   6.877 -0.0068  0.0825  0.2248
   64MOL   C35831984   3.721   0.923   6.940  0.5859 -0.2373 -0.2130
   64MOL   C35931985   3.812   0.828   6.857  0.0898 -0.5296  0.1578
   64MOL   C36031986   3.958   0.840   6.880  0.8566 -0.3452  0.3986
   64MOL   H36131987   3.257   1.512   7.034 -1.0819 -2.6095 -1.4754
   64MOL   H36231988   3.418   1.552   7.071 -0.5137  0.0840  0.1737
   64MOL   H36331989   3.363   1.299   6.911 -2.3075  1.1003 -0.2004
   64MOL   H36431990   3.727   1.333   6.852 -0.6711  0.3551 -0.4322
   64MOL   H36531991   3.573   1.281   6.768  0.1153 -3.2354  0.6367
   64MOL   H36631992   3.519   1.123   6.931 -0.2418  1.7418  1.0085
   64MOL   H36731993   3.641   1.183   7.042 -0.9268  1.0535 -0.4315
   64MOL   H36831994   3.725   1.061   6.768 -0.2836  0.7807  0.1994
   64MOL   H36931995   3.826   1.100   6.907  0.3895 -0.4049 -0.5061
   64MOL   H37031996   3.741   0.928   7.047  0.6342  3.4707 -0.3189
   64MOL   H37131997   3.622   0.878   6.936  1.2377 -2.0948  2.8380
   64MOL   H37231998   3.781   0.725   6.874  0.0734 -0.2909  1.6927
   64MOL   H37331999   3.783   0.850   6.754  1.0782  1.3334  0.2649
   64MOL   H37432000   3.981   0.800   6.979  2.3487 -0.1077  0.1595
   64MOL   H37532001   4.010   0.791   6.797 -1.5621 -1.4829 -0.5077
   64MOL   H37632002   3.988   0.944   6.888 -1.7458  0.5936 -1.2596
   64MOL   C37732003   3.375   1.471   6.775  0.0179  0.3614 -0.1333
   64MOL   C37832004   3.230   1.457   6.734  0.6646 -0.0069 -0.5145
   64MOL   O37932005   3.198   1.318   6.696 -0.6059  0.4383  0.3130
   64MOL   C38032006   3.098   1.261   6.784 -0.0107 -0.7915  0.1798
   64MOL   C38132007   3.109   1.107   6.763  0.1323  0.2593 -0.2979
   64MOL   C38232008   3.245   1.050   6.811 -0.2932  0.7241  0.2264
   64MOL   C38332009   3.246   0.895   6.789  0.0573 -0.1999 -0.7791
   64MOL   C38432010   3.359   0.830   6.862 -0.2134 -0.1727 -0.0638
   64MOL   C38532011   3.370   0.850   7.011 -0.1674 -0.1838 -0.1975
   64MOL   H38632012   3.406   1.575   6.790  0.1577  0.1488  1.0720
   64MOL   H38732013   3.437   1.423   6.699  2.2864  1.3476  1.0498
   64MOL   H38832014   3.161   1.504   6.804 -0.0870  1.0360 -1.9119
   64MOL   H38932015   2.996   1.294   6.763 -0.3468 -2.5707 -1.1239
   64MOL   H39032016   3.120   1.281   6.889  0.4292 -0.7154  0.0726
   64MOL   H39132017   3.102   1.067   6.662 -0.4428 -0.7811  0.1497
   64MOL   H39232018   3.040   1.057   6.831  0.1114 -0.4800 -0.8554
   64MOL   H39332019   3.316   1.103   6.748 -0.0524  0.9294  0.6677
   64MOL   H39432020   3.269   1.071   6.915  1.0077 -1.1310  0.3286
   64MOL   H39532021   3.158   0.844   6.829 -0.7070  2.3036  0.8456
   64MOL   H39632022   3.253   0.884   6.681 -0.7603  0.1265 -0.8710
   64MOL   H39732023   3.341   0.723   6.856  1.1313 -0.4061 -0.2516
   64MOL   H39832024   3.457   0.848   6.816  0.7078 -1.0645  1.5203
   64MOL   H39932025   3.429   0.767   7.052 -0.2440  0.1273  0.5609
   64MOL   H40032026   3.420   0.943   7.037  0.8634 -0.8161  0.0865
   64MOL   H40132027   3.275   0.850   7.066  0.8071  0.9735  1.5381
   64MOL   C40232028   3.186   1.546   6.618 -0.0640  0.2962  0.1453
   64MOL   C40332029   3.264   1.543   6.487 -1.2355 -0.0094 -0.0345
   64MOL   O40432030   3.383   1.630   6.490  0.1032 -0.1914  0.2109
   64MOL   C40532031   3.509   1.577   6.454  0.3753  0.0654  0.0412
   64MOL   C40632032   3.601   1.685   6.384 -0.5227  0.3053  0.2612
   64MOL   C40732033   3.546   1.750   6.248 -0.1352  0.5085 -0.6683
   64MOL   C40832034   3.648   1.837   6.177  0.2304  0.2990  0.1998
   64MOL   C40932035   3.743   1.758   6.094 -0.2430  0.6689  0.0961
   64MOL   C41032036   3.845   1.842   6.015 -0.5394  0.3397 -0.3216
   64MOL   H41132037   3.192   1.644   6.664 -0.6955 -0.1825  1.2470
   64MOL   H41232038   3.083   1.516   6.603  0.3885 -0.6749 -1.1832
   64MOL   H41332039   3.303   1.444   6.461 -1.9126  0.3110 -2.3723
   64MOL   H41432040   3.504   1.493   6.384  0.7202  0.9496 -1.0604
   64MOL   H41532041   3.555   1.536   6.544 -1.2721 -1.8670  0.0525
   64MOL   H41632042   3.701   1.649   6.361  0.9043  4.4198 -0.3321
   64MOL   H41732043   3.619   1.769   6.452  0.8658  0.4197 -0.2387
   64MOL   H41832044   3.512   1.668   6.185  0.0089 -1.5721  1.8754
   64MOL   H41932045   3.464   1.816   6.276 -2.0539 -1.2382 -1.9795
   64MOL   H42032046   3.596   1.907   6.112 -2.5530 -0.6821  1.3085
   64MOL   H42132047   3.707   1.899   6.245  1.1617  1.6086 -1.7528
   64MOL   H42232048   3.802   1.690   6.155 -1.4172 -1.2423 -0.8240
   64MOL   H42332049   3.696   1.693   6.020 -0.6649 -0.3363  1.2415
   64MOL   H42432050   3.929   1.776   5.995  0.3943  0.8985  1.6395
   64MOL   H42532051   3.803   1.886   5.924  0.8911  1.0702 -0.6309
   64MOL   H42632052   3.887   1.909   6.090 -2.1989 -0.2151  1.1387
   64MOL   C42732053   3.175   1.602   6.375  0.7747  0.1812 -0.2614
   64MOL   C42832054   3.106   1.503   6.282 -0.4469 -0.4328  0.2962
   64MOL   O42932055   3.201   1.436   6.192  0.2018 -0.3555 -0.0736
   64MOL   C43032056   3.236   1.512   6.069 -0.1338 -0.5384  0.2292
   64MOL   C43132057   3.337   1.429   5.982 -0.8357  0.9855  0.8422
   64MOL   C43232058   3.456   1.375   6.070 -0.3257  0.4804  0.2237
   64MOL   C43332059   3.563   1.304   5.986 -0.1286 -0.7896  0.5512
   64MOL   C43432060   3.691   1.276   6.071  0.9965  0.9067 -0.4876
   64MOL   C43532061   3.752   1.399   6.143 -0.2086  0.1993  0.0801
   64MOL   H43632062   3.094   1.660   6.419 -1.6759 -1.2667 -2.6996
   64MOL   H43732063   3.235   1.673   6.318  1.6057 -1.7450 -1.8886
   64MOL   H43832064   3.049   1.572   6.220  1.2667  1.7208  1.0465
   64MOL   H43932065   3.286   1.605   6.094  1.3828 -0.7444 -1.9492
   64MOL   H44032066   3.150   1.542   6.008  0.6269 -2.4072 -1.8237
   64MOL   H44132067   3.369   1.480   5.891  3.9908 -0.2861  1.6754
   64MOL   H44232068   3.284   1.344   5.939  0.5809  1.7605 -2.5750
   64MOL   H44332069   3.489   1.463   6.125 -1.8381  0.2303  1.5653
   64MOL   H44432070   3.407   1.300   6.132  3.4251 -2.9523 -0.7401
   64MOL   H44532071   3.526   1.209   5.948  0.0306 -1.2501  1.5386
   64MOL   H44632072   3.597   1.357   5.897  1.2177  0.4153  1.7470
   64MOL   H44732073   3.662   1.198   6.142  0.1891  0.2922 -1.4843
   64MOL   H44832074   3.771   1.222   6.020  1.0842 -0.1365  0.7206
   64MOL   H44932075   3.681   1.447   6.210 -1.1082 -1.2165  0.1585
   64MOL   H45032076   3.839   1.361   6.197 -1.3554  0.4548  2.1653
   64MOL   H45132077   3.778   1.489   6.086 -0.8049  0.4518  0.1966
   64MOL   C45232078   3.021   1.395   6.352 -0.4291 -0.5829 -0.0067
   64MOL   C45332079   2.945   1.291   6.264  0.3038 -0.1061  0.2312
   64MOL   O45432080   2.822   1.359   6.222 -0.2525  0.1263 -0.6730
   64MOL   C45532081   2.829   1.425   6.098  0.8912  0.1129  0.4344
   64MOL   C45632082   2.690   1.495   6.059 -0.3411  0.0013  0.8011
   64MOL   C45732083   2.633   1.573   6.178  0.1104  0.0575 -0.1024
   64MOL   C45832084   2.535   1.688   6.141 -0.3032  1.0674  0.2168
   64MOL   C45932085   2.391   1.634   6.121  0.1874  0.2121 -0.3255
   64MOL   C46032086   2.295   1.742   6.083 -0.3578  0.4116 -0.1505
   64MOL   H46132087   3.088   1.334   6.414 -0.7207 -0.5849  0.3100
   64MOL   H46232088   2.945   1.440   6.415 -0.6028  0.2002 -0.7698
   64MOL   H46332089   3.011   1.267   6.181  0.2956  2.6649 -0.6260
   64MOL   H46432090   2.838   1.344   6.025 -0.0042 -0.7617  1.2704
   64MOL   H46532091   2.916   1.484   6.070  0.3496  0.1738 -1.2284
   64MOL   H46632092   2.627   1.410   6.034 -1.7825  1.3585 -0.2356
   64MOL   H46732093   2.696   1.551   5.966 -1.1864 -0.1721  0.6388
   64MOL   H46832094   2.597   1.498   6.249  0.8486 -2.0998 -1.9631
   64MOL   H46932095   2.725   1.616   6.217 -0.6705  0.5058  1.2698
   64MOL   H47032096   2.541   1.759   6.224  0.3342 -0.8573  1.8652
   64MOL   H47132097   2.572   1.735   6.050  0.2169 -0.6052 -0.4488
   64MOL   H47232098   2.396   1.551   6.050  1.7678  0.5782 -0.6694
   64MOL   H47332099   2.357   1.591   6.215  0.2315 -0.1198 -0.4624
   64MOL   H47432100   2.207   1.708   6.029 -1.9473  0.7012  2.2111
   64MOL   H47532101   2.253   1.779   6.176 -0.8477  0.7278 -0.4938
   64MOL   H47632102   2.343   1.823   6.027 -0.3171  0.3355 -0.2272
   64MOL   C47732103   2.915   1.155   6.334  0.7939  0.2441 -0.6789
   64MOL   C47832104   2.843   1.167   6.466 -0.7478  0.4213 -0.6454
   64MOL   O47932105   2.823   1.040   6.518  0.0677 -0.1482 -0.2277
   64MOL   C48032106   2.759   1.056   6.646 -0.3340  0.6111 -0.2025
   64MOL   C48132107   2.703   0.920   6.704  0.4483  0.3217 -1.2141
   64MOL   C48232108   2.602   0.933   6.821  1.2046 -0.1087 -0.0329
   64MOL   C48332109   2.593   0.801   6.901 -0.2414 -0.4389 -0.0564
   64MOL   C48432110   2.476   0.818   7.004 -0.2390 -0.0610 -0.9109
   64MOL   C48532111   2.466   0.690   7.085  0.2811 -0.0136 -0.1940
   64MOL   H48632112   2.872   1.082   6.264 -1.3458  3.4275 -2.8097
   64MOL   H48732113   3.011   1.110   6.359  0.1555 -1.1647 -0.6956
   64MOL   H48832114   2.899   1.232   6.533 -0.4673 -1.9162  1.4601
   64MOL   H48932115   2.666   1.111   6.634 -2.0261 -1.6562  1.8028
   64MOL   H49032116   2.818   1.093   6.730 -2.2310 -1.5214  2.1416
   64MOL   H49132117   2.783   0.854   6.736  1.3088  2.3076  0.8434
   64MOL   H49232118   2.643   0.863   6.633  0.2166 -0.7067 -0.2012
   64MOL   H49332119   2.642   1.011   6.887  1.9786 -0.4930 -0.0437
   64MOL   H49432120   2.509   0.968   6.778  2.6044  1.3098 -1.9918
   64MOL   H49532121   2.567   0.716   6.838  1.7157 -0.5794 -0.7128
   64MOL   H49632122   2.692   0.783   6.943 -0.6833 -2.2371  0.2575
   64MOL   H49732123   2.505   0.902   7.067  1.4569 -1.4488  0.2106
   64MOL   H49832124   2.383   0.838   6.952  1.6228  0.5462 -4.1094
   64MOL   H49932125   2.553   0.673   7.150  0.5573  1.7911 -0.0680
   64MOL   H50032126   2.371   0.692   7.138 -0.1531  1.0892 -0.9856
   64MOL   H50132127   2.470   0.598   7.027 -0.8756  0.4311 -0.9906
   64MOL   H50232128   2.749   1.218   6.444 -1.1126  0.2931  0.5862
   65MOL     C132129   5.831   6.839   1.495  0.2449 -1.0453 -0.0153
   65MOL     C232130   5.985   6.844   1.518 -0.2663 -0.2761 -0.6613
   65MOL     O332131   6.034   6.888   1.394  0.1787  0.0683  0.3700
   65MOL     C432132   6.133   6.991   1.406 -0.3760  0.5856 -0.0658
   65MOL     C532133   6.150   7.071   1.262 -0.0490  0.0977 -0.1985
   65MOL     C632134   6.218   6.984   1.149 -0.2093 -0.4003 -0.8250
   65MOL     C732135   6.231   7.065   1.018  0.0889  0.0071 -0.5229
   65MOL     C832136   6.302   6.998   0.899 -0.0645  0.4473  0.2756
   65MOL     C932137   6.238   6.872   0.852  0.2991 -0.8926 -0.3363
   65MOL    H1032138   5.779   6.813   1.588 -0.5803  1.3435  0.2270
   65MOL    H1132139   5.775   6.928   1.466  3.5525  1.4210  0.8097
   65MOL    H1232140   5.993   6.915   1.600 -1.8432  0.1246 -0.8490
   65MOL    H1332141   6.227   6.950   1.443 -0.4828  0.5331  0.1479
   65MOL    H1432142   6.098   7.068   1.474  0.0641 -0.7352  1.7098
   65MOL    H1532143   6.220   7.153   1.276 -1.1791  1.3718 -1.8058
   65MOL    H1632144   6.057   7.110   1.223 -0.4981 -1.0110 -0.2633
   65MOL    H1732145   6.320   6.954   1.173 -0.4838 -1.7798 -1.3697
   65MOL    H1832146   6.155   6.895   1.142  0.1425 -0.8660  1.4748
   65MOL    H1932147   6.130   7.087   0.983  0.1938 -1.2785 -1.6780
   65MOL    H2032148   6.280   7.158   1.046  0.8218 -1.6224  3.9620
   65MOL    H2132149   6.404   6.975   0.930 -0.0419  0.9472  0.5787
   65MOL    H2232150   6.310   7.074   0.821  1.7559 -0.4540 -0.4400
   65MOL    H2332151   6.198   6.804   0.927 -0.6032  0.6286  0.5838
   65MOL    H2432152   6.168   6.882   0.770  0.3544  0.7842 -0.1941
   65MOL    H2532153   6.319   6.813   0.809  0.9747 -0.2679  0.0759
   65MOL    H2632154   5.807   6.749   1.439 -0.2893 -0.8044 -0.1757
   65MOL    C2732155   6.062   6.713   1.553 -0.2571  0.6647 -0.4381
   65MOL    C2832156   6.026   6.658   1.690 -0.2874  0.3781 -0.0774
   65MOL    O2932157   6.057   6.518   1.692 -0.4183 -0.5970  0.1345
   65MOL    C3032158   5.949   6.430   1.657  0.0729 -0.2577  0.1648
   65MOL    C3132159   5.996   6.281   1.672  1.1141 -0.3834  0.2963
   65MOL    C3232160   5.872   6.194   1.697 -0.6951  1.0799  0.5151
   65MOL    C3332161   5.887   6.044   1.735  0.2977 -1.1315  0.4293
   65MOL    C3432162   5.958   5.949   1.638  0.0662  0.5159  0.4803
   65MOL    C3532163   5.879   5.941   1.509 -0.2436 -0.2585  0.6880
   65MOL    H3632164   6.052   6.643   1.470 -0.7856  0.4714 -0.2117
   65MOL    H3732165   6.167   6.742   1.547 -0.1944  0.6041  0.3202
   65MOL    H3832166   5.918   6.671   1.700 -0.5322  1.6643 -3.5310
   65MOL    H3932167   5.910   6.439   1.556  1.4157 -1.9509 -0.5116
   65MOL    H4032168   5.871   6.450   1.731  1.7037 -0.9764  2.1353
   65MOL    H4132169   6.064   6.277   1.756  3.1683 -0.8864 -1.3623
   65MOL    H4232170   6.060   6.242   1.593  0.4348 -0.1562 -0.3796
   65MOL    H4332171   5.810   6.227   1.781 -0.4427  2.3149  0.2193
   65MOL    H4432172   5.808   6.203   1.610 -0.7083  2.7967  0.6953
   65MOL    H4532173   5.931   6.043   1.835  1.4144 -0.0631 -0.0487
   65MOL    H4632174   5.789   6.006   1.764 -0.1802 -0.7435 -0.6616
   65MOL    H4732175   6.056   5.989   1.610 -0.3662  0.3530 -1.3643
   65MOL    H4832176   5.967   5.852   1.688 -0.9863 -1.6480 -3.2716
   65MOL    H4932177   5.777   5.902   1.520  0.2063 -1.9059 -0.8486
   65MOL    H5032178   5.882   6.036   1.454 -0.9750  1.6842  3.8725
   65MOL    H5132179   5.920   5.864   1.445  1.2798  0.5244  0.7047
   65MOL    C5232180   6.100   6.737   1.803 -0.5268 -0.2679 -0.7856
   65MOL    C5332181   6.010   6.774   1.924 -0.0264 -0.4198  0.5579
   65MOL    O5432182   6.089   6.828   2.027  0.7909 -0.0460  0.0431
   65MOL    C5532183   6.169   6.733   2.093 -0.6732  0.0380 -0.1398
   65MOL    C5632184   6.236   6.814   2.202 -0.5558  0.0568 -1.0629
   65MOL    C5732185   6.355   6.726   2.251  0.3850  0.2714 -0.3074
   65MOL    C5832186   6.324   6.618   2.356 -1.1658  0.6924 -0.8483
   65MOL    C5932187   6.448   6.529   2.386 -0.3444  0.0012 -0.0532
   65MOL    C6032188   6.559   6.606   2.460 -0.2196  0.0810  0.0921
   65MOL    H6132189   6.141   6.833   1.770  3.1843 -1.6369 -0.3944
   65MOL    H6232190   6.190   6.682   1.832 -0.5991  1.1099  2.2183
   65MOL    H6332191   5.967   6.681   1.960  0.9681 -1.0865  0.0274
   65MOL    H6432192   6.245   6.687   2.029  1.1213  0.1019  1.8795
   65MOL    H6532193   6.115   6.659   2.153 -0.4334  0.0523  0.0973
   65MOL    H6632194   6.171   6.827   2.289 -0.0713 -0.3064 -0.6396
   65MOL    H6732195   6.267   6.909   2.159 -0.3059  0.6992  0.5039
   65MOL    H6832196   6.407   6.676   2.170 -0.1264  0.1779 -0.5817
   65MOL    H6932197   6.428   6.801   2.281  0.4551 -0.0391  0.2896
   65MOL    H7032198   6.282   6.665   2.446  1.1745  0.9467  0.1508
   65MOL    H7132199   6.255   6.554   2.302  0.3210 -0.8780 -0.9326
   65MOL    H7232200   6.411   6.456   2.458  0.9997  0.0128  0.6559
   65MOL    H7332201   6.493   6.491   2.294 -1.5212 -1.7108  0.0388
   65MOL    H7432202   6.510   6.670   2.533 -0.8563 -1.6921  1.2582
   65MOL    H7532203   6.613   6.531   2.517 -0.7266 -1.2022 -1.0901
   65MOL    H7632204   6.613   6.673   2.392 -0.5527 -0.0058 -0.2639
   65MOL    C7732205   5.908   6.881   1.886 -1.2438  0.7717  0.8856
   65MOL    C7832206   5.808   6.923   1.990 -0.0245  0.1918  0.6768
   65MOL    O7932207   5.706   6.819   1.986  0.0606 -0.2427  0.7040
   65MOL    C8032208   5.702   6.747   2.107 -0.5768 -0.4902  0.6783
   65MOL    C8132209   5.632   6.623   2.094 -0.7470  0.8922  0.3309
   65MOL    C8232210   5.698   6.521   1.994 -1.0796 -0.5279  0.2182
   65MOL    C8332211   5.617   6.388   1.994 -0.8927  0.7763  0.0174
   65MOL    C8432212   5.662   6.281   2.099 -0.4485 -0.2543  0.1528
   65MOL    C8532213   5.577   6.151   2.099 -0.1453 -0.1134 -0.0413
   65MOL    H8632214   5.857   6.839   1.799 -0.4557 -1.0642  1.2753
   65MOL    H8732215   5.971   6.965   1.858 -0.6665 -0.4451 -1.5950
   65MOL    H8832216   5.862   6.926   2.084 -1.1017 -0.3739  1.3160
   65MOL    H8932217   5.664   6.810   2.187 -1.9815 -0.8996  0.3380
   65MOL    H9032218   5.803   6.721   2.138 -0.6094  0.6210  1.7437
   65MOL    H9132219   5.534   6.651   2.056 -0.7072 -1.1529 -1.3840
   65MOL    H9232220   5.614   6.573   2.189 -3.6419 -0.4721 -0.8830
   65MOL    H9332221   5.678   6.548   1.890 -4.0347 -3.6740 -0.1150
   65MOL    H9432222   5.804   6.505   2.010 -0.8355 -0.4682 -1.2855
   65MOL    H9532223   5.508   6.395   1.998 -0.9494 -0.7408  1.5195
   65MOL    H9632224   5.635   6.349   1.894  1.1866  2.1749 -0.1763
   65MOL    H9732225   5.767   6.264   2.076 -1.2155 -1.5176 -2.6730
   65MOL    H9832226   5.660   6.320   2.201  1.0673 -1.5576  0.7020
   65MOL    H9932227   5.473   6.175   2.120  0.1172  0.4341  0.6696
   65MOL   H10032228   5.584   6.111   1.998 -1.0365 -2.5979  0.8449
   65MOL   H10132229   5.614   6.080   2.173 -2.1627 -0.8073  0.3387
   65MOL   C10232230   5.730   7.051   1.948 -0.4172  0.4299 -0.3272
   65MOL   C10332231   5.626   7.096   2.057 -0.2688 -0.2463  0.2795
   65MOL   O10432232   5.690   7.161   2.159  0.4434  0.1897  0.3047
   65MOL   C10532233   5.693   7.094   2.281  0.3532  0.4605  0.0646
   65MOL   C10632234   5.745   7.188   2.394  0.5753 -0.2784 -1.0185
   65MOL   C10732235   5.881   7.248   2.365  0.8341  0.0871  0.1367
   65MOL   C10832236   5.941   7.356   2.461  0.8675 -0.1172  0.0559
   65MOL   C10932237   6.079   7.419   2.421 -0.3042 -0.1823  0.3055
   65MOL   C11032238   6.130   7.521   2.523  0.4911 -1.4466 -0.1583
   65MOL   H11132239   5.800   7.132   1.925 -0.1348  0.8370  1.8672
   65MOL   H11232240   5.677   7.028   1.856 -0.5644  0.3501 -0.2222
   65MOL   H11332241   5.590   7.003   2.102  0.2083  0.5639  2.3801
   65MOL   H11432242   5.759   7.009   2.263  2.2990  2.3557 -2.1640
   65MOL   H11532243   5.596   7.056   2.315  0.1723  0.4737 -0.4298
   65MOL   H11632244   5.740   7.127   2.484 -0.6680 -0.8812 -1.4945
   65MOL   H11732245   5.676   7.272   2.406  0.1173 -0.8114  0.1828
   65MOL   H11832246   5.955   7.169   2.350 -1.1648 -1.5470 -1.2612
   65MOL   H11932247   5.865   7.287   2.265 -0.1939  3.3560  1.4804
   65MOL   H12032248   5.864   7.434   2.458  1.9317  1.0184  1.5921
   65MOL   H12132249   5.943   7.313   2.561 -0.3930  2.1296  1.1028
   65MOL   H12232250   6.159   7.345   2.407  1.3137  1.3305  1.3108
   65MOL   H12332251   6.063   7.477   2.331  1.0033  1.1113  0.8832
   65MOL   H12432252   6.164   7.482   2.619  0.2632  3.1198  1.9182
   65MOL   H12532253   6.218   7.576   2.491 -1.9281  3.4325  1.0117
   65MOL   H12632254   6.061   7.597   2.559  2.8652  1.0745 -0.8304
   65MOL   C12732255   5.511   7.188   2.007 -0.5548 -0.2918  0.0656
   65MOL   C12832256   5.393   7.209   2.103  0.3405 -0.1338 -0.0129
   65MOL   O12932257   5.309   7.090   2.099  0.3468 -0.6682 -0.2382
   65MOL   C13032258   5.277   7.048   2.228 -0.6995 -0.4042  0.2544
   65MOL   C13132259   5.200   6.921   2.215  0.1654 -0.0878 -0.7341
   65MOL   C13232260   5.283   6.799   2.161  0.6098 -0.3015  0.1067
   65MOL   C13332261   5.243   6.644   2.177 -0.0409  0.1206 -0.3771
   65MOL   C13432262   5.133   6.589   2.078 -0.2758 -0.2161 -0.0479
   65MOL   C13532263   4.988   6.650   2.070 -0.4205  0.5877 -0.2485
   65MOL   H13632264   5.565   7.280   1.984  0.1692 -1.2552 -2.2513
   65MOL   H13732265   5.463   7.139   1.922  0.3109  0.2117 -0.7220
   65MOL   H13832266   5.424   7.231   2.205  1.6331 -0.0990 -0.4104
   65MOL   H13932267   5.211   7.122   2.273  0.8848  1.5079 -0.5145
   65MOL   H14032268   5.357   7.046   2.303  0.8826  2.2289 -1.3063
   65MOL   H14132269   5.111   6.936   2.155 -1.1530 -1.1313  0.8981
   65MOL   H14232270   5.161   6.878   2.308 -1.3716  0.0235 -1.3234
   65MOL   H14332271   5.297   6.821   2.055  2.6853 -0.7056  0.2785
   65MOL   H14432272   5.385   6.813   2.196  0.8421 -0.9216 -0.3293
   65MOL   H14532273   5.330   6.580   2.172 -1.0091 -1.1806 -0.9840
   65MOL   H14632274   5.202   6.626   2.276 -1.4511 -0.2814 -1.0089
   65MOL   H14732275   5.169   6.569   1.977 -0.1311 -0.7797  0.1153
   65MOL   H14832276   5.115   6.486   2.108 -0.5806 -0.0562  0.3207
   65MOL   H14932277   4.940   6.659   2.167 -0.6219 -0.6496 -0.2225
   65MOL   H15032278   4.979   6.742   2.012 -0.9652 -0.0372 -1.1802
   65MOL   H15132279   4.925   6.581   2.014  0.5680 -0.3142 -0.2655
   65MOL   C15232280   5.310   7.334   2.055 -0.5151  0.2420 -0.6306
   65MOL   C15332281   5.193   7.384   2.141  1.0452 -0.2009  0.1907
   65MOL   O15432282   5.255   7.429   2.261  0.3597  0.2251 -0.3378
   65MOL   C15532283   5.166   7.446   2.376 -0.3603  0.7585 -0.6270
   65MOL   C15632284   5.234   7.376   2.497  0.5269  0.2913 -0.4872
   65MOL   C15732285   5.158   7.407   2.621 -0.0056  0.5568 -0.4143
   65MOL   C15832286   5.214   7.332   2.742 -0.7018 -0.1560 -0.1323
   65MOL   C15932287   5.161   7.365   2.878 -0.0788  0.3263  0.0262
   65MOL   C16032288   5.196   7.269   2.993  0.2410 -0.0012  0.3911
   65MOL   H16132289   5.381   7.416   2.051  0.7857 -0.9504 -3.1169
   65MOL   H16232290   5.283   7.324   1.950 -0.3326 -2.6718 -0.4336
   65MOL   H16332291   5.118   7.308   2.165 -1.2215  1.3351 -1.7390
   65MOL   H16432292   5.077   7.383   2.365  0.1234 -0.3452  1.5845
   65MOL   H16532293   5.149   7.551   2.397  0.0972  0.0912  3.4511
   65MOL   H16632294   5.338   7.408   2.503  1.1329 -1.6181 -0.2600
   65MOL   H16732295   5.243   7.268   2.481  1.4189  0.5267 -1.5881
   65MOL   H16832296   5.168   7.514   2.641 -0.0715  0.5971 -0.5958
   65MOL   H16932297   5.054   7.377   2.610  0.3875 -0.4244 -1.4453
   65MOL   H17032298   5.221   7.225   2.726 -0.2936 -0.1791  0.1846
   65MOL   H17132299   5.321   7.353   2.743 -0.2102 -2.6065  0.6546
   65MOL   H17232300   5.212   7.456   2.907  2.1576 -0.6659 -0.6853
   65MOL   H17332301   5.056   7.396   2.873 -0.2212  0.4541  2.9168
   65MOL   H17432302   5.184   7.165   2.965 -0.4049  0.2317 -0.2387
   65MOL   H17532303   5.299   7.286   3.024 -0.1989  0.7640  1.4722
   65MOL   H17632304   5.126   7.294   3.073 -0.8885  1.9811 -1.1485
   65MOL   C17732305   5.122   7.510   2.094 -0.4906 -0.2595 -0.0653
   65MOL   C17832306   5.014   7.483   1.990  0.0676 -0.0538  0.7990
   65MOL   O17932307   4.916   7.406   2.055 -0.4166 -0.3759 -1.1505
   65MOL   C18032308   4.894   7.275   2.018  0.1600 -0.5643 -0.4982
   65MOL   C18132309   4.842   7.193   2.135 -0.2592 -0.2936  1.0213
   65MOL   C18232310   4.805   7.055   2.079  0.3173  0.1687 -0.1188
   65MOL   C18332311   4.788   6.945   2.186  0.2443  0.5141 -0.1850
   65MOL   C18432312   4.707   6.823   2.145 -0.1529 -1.1421 -0.9354
   65MOL   C18532313   4.654   6.723   2.243  0.0038 -0.0720 -0.1940
   65MOL   H18632314   5.063   7.555   2.174  1.2041  0.8013  0.6099
   65MOL   H18732315   5.200   7.581   2.065 -1.0208  0.4001  0.0983
   65MOL   H18832316   5.054   7.426   1.906  0.9594 -0.2688  1.3689
   65MOL   H18932317   4.988   7.228   1.987  1.2978  1.1420  0.2893
   65MOL   H19032318   4.832   7.270   1.929 -1.4585 -0.8766  0.6382
   65MOL   H19132319   4.747   7.231   2.171 -1.0224 -0.6965 -0.5000
   65MOL   H19232320   4.913   7.187   2.217 -0.0230 -1.8031  0.7331
   65MOL   H19332321   4.715   7.049   2.019  0.1754 -1.6378  0.2487
   65MOL   H19432322   4.882   7.020   2.010 -0.0588  2.0240 -1.5347
   65MOL   H19532323   4.883   6.915   2.230  0.0594  0.6270  0.2892
   65MOL   H19632324   4.736   6.987   2.272  1.1390  0.9947  0.1279
   65MOL   H19732325   4.617   6.874   2.112 -0.8099 -0.5772  1.5961
   65MOL   H19832326   4.738   6.774   2.052  0.3582  0.8200 -1.8387
   65MOL   H19932327   4.729   6.645   2.259  0.8017  0.9193  0.9982
   65MOL   H20032328   4.635   6.763   2.343 -2.2008 -0.5541 -0.3943
   65MOL   H20132329   4.565   6.672   2.208  0.4746 -0.3693 -0.9537
   65MOL   C20232330   4.951   7.611   1.932 -0.1018  0.3673 -0.4232
   65MOL   C20332331   4.845   7.594   1.816  0.6709  0.6166 -0.7746
   65MOL   O20432332   4.924   7.550   1.706  0.4607  0.3833 -0.3164
   65MOL   C20532333   4.868   7.440   1.626  0.2857 -0.5873  0.3668
   65MOL   C20632334   4.979   7.387   1.544  0.4024  0.3004  0.3108
   65MOL   C20732335   5.088   7.307   1.624  0.1818  0.3245  0.0870
   65MOL   C20832336   5.053   7.161   1.665  0.4842  0.6777 -0.8066
   65MOL   C20932337   5.172   7.098   1.746  0.0248  0.2571  0.0239
   65MOL   C21032338   5.156   6.950   1.796  0.4386  0.7984 -0.2452
   65MOL   H21132339   4.899   7.666   2.011  1.1897 -0.4949  1.0589
   65MOL   H21232340   5.029   7.676   1.895  0.3442  0.4266  0.6081
   65MOL   H21332341   4.774   7.523   1.860  0.3817  1.8684  0.8185
   65MOL   H21432342   4.782   7.472   1.567  0.4325  1.0509  1.0206
   65MOL   H21532343   4.829   7.359   1.687 -1.5054 -1.0866 -1.3911
   65MOL   H21632344   5.046   7.462   1.502  0.3268 -0.3905 -1.0693
   65MOL   H21732345   4.941   7.329   1.460  1.5916 -1.9087  1.2524
   65MOL   H21832346   5.180   7.298   1.566  2.0237  0.5048  2.8384
   65MOL   H21932347   5.117   7.365   1.712 -0.3133  1.3790 -0.4323
   65MOL   H22032348   4.965   7.178   1.726  0.5225 -0.3995 -0.4397
   65MOL   H22132349   5.031   7.089   1.586  2.3072 -1.1570  0.3009
   65MOL   H22232350   5.249   7.102   1.669 -0.2795 -1.2119 -0.3686
   65MOL   H22332351   5.213   7.157   1.828  0.6010  1.9193 -1.4303
   65MOL   H22432352   5.260   6.931   1.821  0.0250 -1.0346  0.1500
   65MOL   H22532353   5.103   6.926   1.888 -0.9934 -0.4468 -1.3765
   65MOL   H22632354   5.138   6.883   1.712  1.2068  0.1797  0.0770
   65MOL   C22732355   4.766   7.719   1.765 -0.4038 -0.3471 -0.3815
   65MOL   C22832356   4.661   0.012   1.853 -0.2650  0.5424  0.4194
   65MOL   O22932357   4.632   0.135   1.790  0.2241 -0.3506 -0.5316
   65MOL   C23032358   4.718   0.244   1.832  0.9420 -0.5545  0.4796
   65MOL   C23132359   4.653   0.325   1.946 -0.3421  0.6492  0.4365
   65MOL   C23232360   4.762   0.411   2.013  0.2891 -0.4731 -0.5406
   65MOL   C23332361   4.700   0.523   2.102  0.3980 -0.0234  0.1168
   65MOL   C23432362   4.801   0.617   2.168  0.3075  0.3761  0.0479
   65MOL   C23532363   4.724   0.721   2.253  0.2782 -0.7128  0.3759
   65MOL   H23632364   4.837   0.022   1.742 -1.4423  0.2078 -1.7049
   65MOL   H23732365   4.733   7.691   1.665  0.6827  2.9652 -1.7393
   65MOL   H23832366   4.704   0.021   1.953  2.2770 -1.7528 -0.3716
   65MOL   H23932367   4.719   0.302   1.740  0.3174 -0.7902  0.3170
   65MOL   H24032368   4.817   0.211   1.863  0.0833 -3.1379  0.5500
   65MOL   H24132369   4.615   0.255   2.021 -1.4432 -1.4327 -1.9762
   65MOL   H24232370   4.572   0.388   1.911  0.6504  2.5249  1.4848
   65MOL   H24332371   4.820   0.351   2.083 -0.4789 -0.7899 -0.1669
   65MOL   H24432372   4.829   0.456   1.940  0.3548  1.3781  0.6117
   65MOL   H24532373   4.646   0.585   2.031  0.2210  0.9654  1.0941
   65MOL   H24632374   4.625   0.489   2.174  0.5246  0.3422  0.4222
   65MOL   H24732375   4.860   0.568   2.244  2.1277 -0.2372 -1.7280
   65MOL   H24832376   4.870   0.666   2.099 -0.3223  0.4087 -0.5730
   65MOL   H24932377   4.679   0.666   2.336  1.8544 -0.1836  1.6035
   65MOL   H25032378   4.789   0.794   2.301 -0.8526 -0.4882  1.6113
   65MOL   H25132379   4.638   0.775   2.211 -0.8885 -2.0680  0.9775
   65MOL   C25232380   4.531   7.702   1.864  0.2692  0.1461 -0.1260
   65MOL   C25332381   4.427   7.757   1.963  0.8119  0.0985 -0.4927
   65MOL   O25432382   4.327   7.656   1.996  0.6915 -0.3278  0.7276
   65MOL   C25532383   4.361   7.561   2.097 -0.2890 -0.4448  0.3219
   65MOL   C25632384   4.232   7.489   2.142 -0.5870 -0.9827  0.2779
   65MOL   C25732385   4.246   7.397   2.263  0.1634 -0.0118 -0.1836
   65MOL   C25832386   4.324   7.264   2.237 -0.0058 -0.2930 -0.1362
   65MOL   C25932387   4.304   7.155   2.348 -0.3810 -0.3093  0.5201
   65MOL   C26032388   4.375   7.030   2.303 -0.0611  0.0888 -0.3499
   65MOL   H26132389   4.502   7.681   1.761 -2.3411 -0.1999  0.6255
   65MOL   H26232390   4.559   7.599   1.885 -1.0419  0.1527  1.7817
   65MOL   H26332391   4.475   0.016   2.055 -0.5260 -2.1388  1.1306
   65MOL   H26432392   4.389   7.614   2.188 -0.8290  0.0616  0.1986
   65MOL   H26532393   4.437   7.487   2.074 -0.7711 -0.4065 -1.5165
   65MOL   H26632394   4.188   7.433   2.059  0.6103  0.2943 -1.2371
   65MOL   H26732395   4.153   7.558   2.170 -1.7749 -2.0014 -0.4983
   65MOL   H26832396   4.282   7.442   2.355  2.0301 -2.0390  0.1153
   65MOL   H26932397   4.147   7.359   2.288  0.1983 -2.9795 -3.9764
   65MOL   H27032398   4.292   7.222   2.141  2.8127 -1.1906 -0.7223
   65MOL   H27132399   4.432   7.274   2.228 -0.0967  0.4734 -0.4204
   65MOL   H27232400   4.333   7.195   2.445  1.0121 -1.6083  0.6591
   65MOL   H27332401   4.204   7.115   2.362 -0.5981  0.2635  0.5985
   65MOL   H27432402   4.325   7.002   2.210 -1.8368  0.6393  0.4228
   65MOL   H27532403   4.474   7.055   2.265  0.1432  0.0701  0.1622
   65MOL   H27632404   4.386   6.952   2.379 -2.1664 -0.0755 -0.1884
   65MOL   C27732405   4.337   0.092   1.909  0.5128  0.5133  0.3027
   65MOL   C27832406   4.242   0.162   2.008 -0.4466 -0.6740  0.3624
   65MOL   O27932407   4.319   0.218   2.115  0.6291  0.6215  0.2557
   65MOL   C28032408   4.269   0.211   2.250 -0.2948 -0.8614 -0.4486
   65MOL   C28132409   4.320   0.092   2.333  0.8190 -0.6077  0.4454
   65MOL   C28232410   4.301   0.115   2.479 -0.2725 -0.0984 -0.3829
   65MOL   C28332411   4.386   0.018   2.567 -0.2430 -0.3991 -0.1325
   65MOL   C28432412   4.346   0.017   2.719 -0.0947 -0.2977 -0.2242
   65MOL   C28532413   4.435   7.706   2.809  0.4274  0.8050 -0.0882
   65MOL   H28632414   4.398   0.170   1.862 -1.3414 -0.1386 -3.3465
   65MOL   H28732415   4.279   0.057   1.823  3.5307 -0.1047 -1.5724
   65MOL   H28832416   4.157   0.102   2.040 -0.4935 -1.8407 -1.8249
   65MOL   H28932417   4.162   0.195   2.248 -0.2809 -0.8336 -2.9364
   65MOL   H29032418   4.296   0.303   2.303 -0.5267 -0.8153 -0.4113
   65MOL   H29132419   4.428   0.082   2.326  0.7608 -2.1452  1.5636
   65MOL   H29232420   4.281   7.773   2.299  1.2537 -0.7485  0.3502
   65MOL   H29332421   4.341   0.214   2.504 -0.6078 -0.1333  0.3113
   65MOL   H29432422   4.197   0.104   2.509 -0.1920  2.5373  1.0577
   65MOL   H29532423   4.369   7.695   2.526  3.7245  0.0165 -3.0372
   65MOL   H29632424   4.494   0.026   2.562 -0.2002  0.1003  1.4213
   65MOL   H29732425   4.350   0.120   2.754 -2.1925  0.0790 -1.0079
   65MOL   H29832426   4.241   7.764   2.724 -0.7514  1.9610  0.1896
   65MOL   H29932427   4.425   7.601   2.783  0.7371  0.7870 -0.1372
   65MOL   H30032428   4.539   7.737   2.799  0.4648  0.6436 -0.1871
   65MOL   H30132429   4.404   7.723   2.913 -0.5832 -0.8227 -0.0990
   65MOL   C30232430   4.184   0.279   1.924  0.0785  0.4310 -0.2305
   65MOL   C30332431   4.096   0.367   2.013  0.2910  0.1877 -0.3800
   65MOL   O30432432   3.975   0.389   1.943 -0.4998  0.0467  0.6839
   65MOL   C30532433   3.882   0.280   1.972  0.0622 -0.1349  0.3845
   65MOL   C30632434   3.746   0.324   1.903 -0.0411  0.2119  0.1913
   65MOL   C30732435   3.634   0.223   1.905 -0.0658 -0.0655  0.0059
   65MOL   C30832436   3.502   0.286   1.874 -0.1640 -0.3170  0.1615
   65MOL   C30932437   3.491   0.310   1.721  0.3122 -0.2369 -0.4799
   65MOL   C31032438   3.358   0.381   1.686 -0.8950  0.4417  0.1238
   65MOL   H31132439   4.265   0.340   1.884 -0.8099 -0.1299 -3.0091
   65MOL   H31232440   4.135   0.254   1.830  1.0771  1.2678 -0.9857
   65MOL   H31332441   4.064   0.330   2.110  2.0929  1.5723  0.7730
   65MOL   H31432442   3.866   0.260   2.078 -0.0397  2.2864  0.8688
   65MOL   H31532443   3.915   0.189   1.922 -0.2546 -0.3575  0.5802
   65MOL   H31632444   3.773   0.338   1.799  1.5993 -0.2230  0.5352
   65MOL   H31732445   3.710   0.414   1.952  1.3941  0.4225  0.8862
   65MOL   H31832446   3.666   0.138   1.845 -0.1800  1.2783 -2.0125
   65MOL   H31932447   3.619   0.166   1.997  0.3988 -0.9183 -0.4431
   65MOL   H32032448   3.423   0.226   1.920  1.6521 -3.5064 -0.6810
   65MOL   H32132449   3.505   0.377   1.933  1.1215  0.8079 -1.5779
   65MOL   H32232450   3.578   0.368   1.689  1.4268 -0.3074  2.2364
   65MOL   H32332451   3.501   0.217   1.665 -1.3752 -1.1302  0.6831
   65MOL   H32432452   3.275   0.315   1.712 -1.2128  0.4784 -0.7985
   65MOL   H32532453   3.345   0.481   1.728  2.1320  0.7693  0.3888
   65MOL   H32632454   3.343   0.385   1.578 -1.2970 -1.1960  0.1133
   65MOL   C32732455   4.150   0.514   2.038 -0.1348 -0.0904  0.1908
   65MOL   C32832456   4.050   0.605   2.114  0.5702  0.3187  0.2640
   65MOL   O32932457   4.038   0.539   2.242 -0.1908 -0.3605 -0.3277
   65MOL   C33032458   3.930   0.574   2.326 -0.2917  0.0042  0.0973
   65MOL   C33132459   3.947   0.474   2.437  0.4596  0.6066 -0.6347
   65MOL   C33232460   3.886   0.335   2.415  0.3035  0.1128  0.1541
   65MOL   C33332461   3.930   0.229   2.516 -0.3302 -0.1062 -0.3089
   65MOL   C33432462   3.839   0.236   2.643 -0.1229  0.4757  0.4209
   65MOL   C33532463   3.701   0.169   2.637  0.3594  0.0318  0.6776
   65MOL   H33632464   4.205   0.558   1.956 -0.6215  0.0807 -0.0484
   65MOL   H33732465   4.235   0.506   2.105  0.5934  1.8365 -0.4768
   65MOL   H33832466   3.952   0.601   2.067  0.3060 -2.1129  0.9051
   65MOL   H33932467   3.835   0.569   2.271  0.0765  1.0857 -0.6555
   65MOL   H34032468   3.947   0.674   2.366 -2.1934  1.4537 -2.4791
   65MOL   H34132469   3.899   0.506   2.530 -0.0426 -1.3302 -0.1972
   65MOL   H34232470   4.051   0.454   2.466  1.2482  1.2597 -2.9210
   65MOL   H34332471   3.778   0.348   2.415  0.1032 -1.5341 -0.2279
   65MOL   H34432472   3.912   0.304   2.314  1.7802  2.1689 -0.1472
   65MOL   H34532473   3.914   0.125   2.488 -1.7062 -0.0947  0.3864
   65MOL   H34632474   4.030   0.244   2.556 -0.7496 -0.9625  1.0775
   65MOL   H34732475   3.897   0.186   2.721 -3.0475 -2.1564  1.0105
   65MOL   H34832476   3.828   0.336   2.684  2.5205  1.7348 -1.7306
   65MOL   H34932477   3.625   0.246   2.633  2.2731  1.8997 -0.3629
   65MOL   H35032478   3.679   0.102   2.554 -1.1773  0.6442  0.5828
   65MOL   H35132479   3.684   0.108   2.726 -0.1112  1.2397  1.4242
   65MOL   C35232480   4.103   0.747   2.121 -0.1340  0.2700 -0.1429
   65MOL   C35332481   4.101   0.836   1.994  0.0317  0.2890 -0.5559
   65MOL   O35432482   4.225   0.905   1.987 -0.5122 -0.3838  0.2367
   65MOL   C35532483   4.327   0.832   1.919  0.0562  0.2872  0.0861
   65MOL   C35632484   4.453   0.900   1.951  0.0960 -0.1922 -0.0842
   65MOL   C35732485   4.573   0.865   1.863 -0.0100 -0.8520  0.0417
   65MOL   C35832486   4.679   0.979   1.886 -0.4393  0.3836  0.4967
   65MOL   C35932487   4.813   0.964   1.819 -0.2958 -0.5937  0.1169
   65MOL   C36032488   4.808   0.956   1.665 -0.3820 -0.0248  0.2669
   65MOL   H36132489   4.049   0.799   2.200 -0.1492 -0.1253  0.1054
   65MOL   H36232490   4.201   0.749   2.171 -0.6735 -0.4297  0.9703
   65MOL   H36332491   4.088   0.767   1.911 -0.1241  1.6307 -1.6467
   65MOL   H36432492   4.306   0.829   1.812 -2.4356  0.1546  0.5534
   65MOL   H36532493   4.342   0.729   1.952 -0.4700  0.4207  0.7613
   65MOL   H36632494   4.478   0.875   2.053  0.9147 -0.8658 -0.4480
   65MOL   H36732495   4.424   1.005   1.946  2.7635  0.6514  1.4351
   65MOL   H36832496   4.604   0.761   1.874 -1.1706 -1.2211 -0.0409
   65MOL   H36932497   4.538   0.870   1.760  0.6881  0.5109 -0.1421
   65MOL   H37032498   4.641   1.073   1.848 -2.0328 -0.1973  0.6250
   65MOL   H37132499   4.702   0.986   1.993  0.5253  4.0218  0.1063
   65MOL   H37232500   4.877   1.048   1.843 -0.3608  0.0448 -1.8005
   65MOL   H37332501   4.860   0.878   1.867 -0.3682  0.2247  1.6500
   65MOL   H37432502   4.718   0.906   1.627 -2.5533  2.0087  2.5275
   65MOL   H37532503   4.815   1.053   1.617  2.3886 -0.3523 -0.0671
   65MOL   H37632504   4.896   0.902   1.631  0.4766  2.4027 -1.4849
   65MOL   C37732505   3.992   0.943   1.982 -0.6282  0.1524 -0.0082
   65MOL   C37832506   3.862   0.876   1.955 -0.1743 -0.6149 -0.5884
   65MOL   O37932507   3.868   0.815   1.824  0.6003  0.3289  0.0883
   65MOL   C38032508   3.777   0.707   1.810  0.5123 -0.2254 -1.0029
   65MOL   C38132509   3.790   0.624   1.679  0.0311 -0.6310  0.1154
   65MOL   C38232510   3.927   0.564   1.648  1.1272 -0.4560  0.2476
   65MOL   C38332511   3.938   0.495   1.506  0.5239 -0.0683 -0.3484
   65MOL   C38432512   3.872   0.361   1.487  0.0817  0.2943 -0.2606
   65MOL   C38532513   3.941   0.238   1.557  0.3135 -0.2673 -0.1263
   65MOL   H38632514   3.972   0.998   2.075 -1.6504  1.3083 -0.8899
   65MOL   H38732515   4.015   1.018   1.906  0.2661 -0.4518 -0.3344
   65MOL   H38832516   3.842   0.803   2.033 -0.4129  0.4872  0.3975
   65MOL   H38932517   3.674   0.743   1.809  0.5387 -0.1662 -1.9161
   65MOL   H39032518   3.790   0.636   1.892  0.2983 -1.9994 -2.4674
   65MOL   H39132519   3.755   0.690   1.599 -1.2351  0.2805  1.4100
   65MOL   H39232520   3.712   0.547   1.683 -0.9113  0.1924 -1.5480
   65MOL   H39332521   3.998   0.647   1.643  0.1784  0.4461  1.6271
   65MOL   H39432522   3.957   0.498   1.729  0.1288  0.3970  1.3213
   65MOL   H39532523   3.893   0.558   1.430  0.1627 -0.7259 -0.6897
   65MOL   H39632524   4.042   0.482   1.477  0.3113 -3.2126  0.0629
   65MOL   H39732525   3.775   0.369   1.536  0.4661  0.5507  0.4664
   65MOL   H39832526   3.858   0.327   1.385 -2.6805  1.1660 -0.1993
   65MOL   H39932527   3.899   0.146   1.517 -1.8292  1.5161 -2.1830
   65MOL   H40032528   4.045   0.228   1.529  0.5442  0.7742  0.3408
   65MOL   H40132529   3.931   0.237   1.665  4.6657 -0.5044  0.3358
   65MOL   C40232530   3.746   0.973   1.954  0.0401 -0.1550  0.0748
   65MOL   C40332531   3.717   1.038   2.090  0.1457  0.2954 -0.0907
   65MOL   O40432532   3.687   0.925   2.170  0.4975 -0.0220 -0.1961
   65MOL   C40532533   3.726   0.925   2.309  0.4342 -0.5445  0.3260
   65MOL   C40632534   3.617   0.989   2.398  0.2080 -0.3063 -0.3900
   65MOL   C40732535   3.628   0.962   2.551  0.4160 -0.2916  0.1152
   65MOL   C40832536   3.590   0.821   2.588 -0.2363  0.0371 -0.4912
   65MOL   C40932537   3.563   0.800   2.737 -0.5304 -0.0742  0.5358
   65MOL   C41032538   3.687   0.806   2.833 -0.4457  0.2683 -0.3474
   65MOL   H41132539   3.652   0.934   1.916  0.2386 -1.5793  1.0069
   65MOL   H41232540   3.774   1.055   1.888  0.3908  0.1147  0.5627
   65MOL   H41332541   3.796   1.106   2.121  0.6222  0.7205 -2.1340
   65MOL   H41432542   3.824   0.972   2.309  0.7129 -1.1114  2.0075
   65MOL   H41532543   3.752   0.823   2.334  0.8570 -0.2531  1.0830
   65MOL   H41632544   3.525   0.946   2.359  0.5475 -0.4744 -1.0098
   65MOL   H41732545   3.599   1.096   2.389 -1.1168 -0.5547 -0.7738
   65MOL   H41832546   3.729   0.971   2.590 -0.3067 -1.0959  2.2325
   65MOL   H41932547   3.570   1.033   2.610 -0.3962  0.2274 -1.2598
   65MOL   H42032548   3.507   0.784   2.527  1.2518 -1.1333 -1.8595
   65MOL   H42132549   3.654   0.735   2.569 -1.3745 -1.2052  1.1417
   65MOL   H42232550   3.476   0.846   2.783 -0.1532  0.6570  0.5300
   65MOL   H42332551   3.533   0.695   2.729  0.1179 -0.2464  0.2838
   65MOL   H42432552   3.663   0.750   2.924 -0.1777  0.9019  0.1173
   65MOL   H42532553   3.769   0.747   2.792  0.7310  0.8148  1.1772
   65MOL   H42632554   3.726   0.906   2.853 -0.0661 -0.1582  1.1458
   65MOL   C42732555   3.580   1.111   2.069 -0.3647  0.1763  0.5304
   65MOL   C42832556   3.584   1.257   2.030 -0.3054  0.5346  0.1080
   65MOL   O42932557   3.674   1.275   1.916  0.3111 -0.8247 -0.5922
   65MOL   C43032558   3.792   1.348   1.951  0.2837 -0.3959 -0.0018
   65MOL   C43132559   3.888   1.349   1.832 -0.1612 -1.2934 -0.2186
   65MOL   C43232560   4.026   1.413   1.868  0.1408  0.2961  0.0513
   65MOL   C43332561   4.125   1.383   1.756 -0.0800 -0.5691  0.5406
   65MOL   C43432562   4.195   1.250   1.775 -0.6477  0.0487 -1.0519
   65MOL   C43532563   4.293   1.209   1.663  0.7433  0.2358 -1.1111
   65MOL   H43632564   3.513   1.056   2.004 -1.7262 -1.0758  2.9167
   65MOL   H43732565   3.521   1.088   2.158 -1.1686 -2.1454 -0.5719
   65MOL   H43832566   3.620   1.315   2.115  0.8710 -0.0887  0.0466
   65MOL   H43932567   3.844   1.297   2.033 -1.4384  0.6536  1.7891
   65MOL   H44032568   3.771   1.449   1.987  1.6106 -0.5656  1.3053
   65MOL   H44132569   3.839   1.409   1.756  1.8727 -1.2970 -1.5808
   65MOL   H44232570   3.897   1.248   1.791 -2.7390 -0.5797 -2.6625
   65MOL   H44332571   4.016   1.518   1.894  3.2480  0.6642  0.0100
   65MOL   H44432572   4.065   1.369   1.960 -0.7648 -1.0870 -0.2145
   65MOL   H44532573   4.073   1.373   1.661 -0.4322 -0.1551  0.6939
   65MOL   H44632574   4.195   1.467   1.757 -0.8653  0.0959 -0.3747
   65MOL   H44732575   4.251   1.250   1.869 -1.1044 -1.6614 -0.7664
   65MOL   H44832576   4.111   1.183   1.788 -1.5585  1.3551 -0.0740
   65MOL   H44932577   4.378   1.277   1.665  0.3365  0.7459 -0.7698
   65MOL   H45032578   4.340   1.112   1.678  0.6728  0.4908  0.9589
   65MOL   H45132579   4.259   1.215   1.559  0.4036 -2.2137 -1.1531
   65MOL   C45232580   3.449   1.311   1.993 -0.1076  0.2466  0.3324
   65MOL   C45332581   3.447   1.459   1.940  1.0474  1.2376 -0.9261
   65MOL   O45432582   3.315   1.509   1.955  0.6424 -0.5557 -0.0691
   65MOL   C45532583   3.303   1.636   2.021  0.1599  0.2718 -0.7080
   65MOL   C45632584   3.157   1.663   2.053  0.8533 -0.6544 -0.0739
   65MOL   C45732585   3.133   1.800   2.123  0.5358  0.3040  0.3036
   65MOL   C45832586   2.990   1.850   2.135  0.9159 -0.1337 -0.3559
   65MOL   C45932587   2.889   1.749   2.192  0.3410 -0.2505 -0.7941
   65MOL   C46032588   2.746   1.788   2.186 -0.6161  0.5621 -0.1083
   65MOL   H46132589   3.400   1.240   1.926 -1.5317  1.7110 -0.1966
   65MOL   H46232590   3.398   1.304   2.089 -1.8018  0.5864 -0.5328
   65MOL   H46332591   3.516   1.520   1.998  0.4512  0.7840  0.2876
   65MOL   H46432592   3.343   1.713   1.956 -1.9585  1.3625 -0.7679
   65MOL   H46532593   3.357   1.629   2.115 -0.6278  1.5909 -0.1552
   65MOL   H46632594   3.122   1.571   2.100 -0.6718 -0.2767 -0.4387
   65MOL   H46732595   3.114   1.657   1.953 -0.5999 -0.2074  0.5088
   65MOL   H46832596   3.183   1.788   2.220 -0.5344  1.5734  1.0193
   65MOL   H46932597   3.183   1.881   2.070  1.2914  1.4029  2.5785
   65MOL   H47032598   2.998   1.929   2.209  2.7460 -0.7622  0.1289
   65MOL   H47132599   2.961   1.876   2.033 -0.7374 -3.6566 -0.8774
   65MOL   H47232600   2.898   1.660   2.129  1.7669 -0.0179 -0.9487
   65MOL   H47332601   2.920   1.729   2.294 -0.7835  0.9804 -0.2105
   65MOL   H47432602   2.723   1.890   2.218  3.0666  0.6169  2.8163
   65MOL   H47532603   2.721   1.787   2.080  3.1936  2.0590 -1.1304
   65MOL   H47632604   2.673   1.714   2.218  0.2179  0.2760  1.2079
   65MOL   C47732605   3.468   1.468   1.786  0.5712  0.1236 -0.1622
   65MOL   C47832606   3.355   1.411   1.705  0.4649  0.3893 -0.4242
   65MOL   O47932607   3.359   1.477   1.583  0.1627 -0.2288  0.2716
   65MOL   C48032608   3.253   1.435   1.495  0.2136  0.0953  0.3611
   65MOL   C48132609   3.276   1.289   1.444  0.1025  0.1647 -0.6448
   65MOL   C48232610   3.156   1.246   1.350 -0.1242 -0.1610  0.2198
   65MOL   C48332611   3.162   1.097   1.310 -0.4084 -0.5762 -0.9921
   65MOL   C48432612   3.043   1.065   1.217  0.0056 -0.3506  0.9126
   65MOL   C48532613   2.907   1.082   1.287  0.1209  0.5628  0.2084
   65MOL   H48632614   3.485   1.572   1.759  1.2440  0.0505 -0.0370
   65MOL   H48732615   3.568   1.430   1.764  1.6519  0.4103  3.8329
   65MOL   H48832616   3.348   1.303   1.707 -1.0597  0.4829  0.4869
   65MOL   H48932617   3.259   1.503   1.410  4.0743  0.8636  1.1259
   65MOL   H49032618   3.156   1.451   1.541 -0.7302 -1.3469 -1.0892
   65MOL   H49132619   3.278   1.215   1.524  0.5629 -0.1449 -0.9383
   65MOL   H49232620   3.367   1.271   1.387  1.0045 -0.0955  0.8277
   65MOL   H49332621   3.067   1.272   1.408 -0.6059 -0.4887 -0.3681
   65MOL   H49432622   3.152   1.309   1.261  2.3841 -1.3983 -0.8203
   65MOL   H49532623   3.255   1.081   1.254 -0.4436 -0.8126 -0.9801
   65MOL   H49632624   3.155   1.027   1.392  0.2528  0.2723 -0.1948
   65MOL   H49732625   3.034   1.135   1.135  0.2033  0.0940  1.2705
   65MOL   H49832626   3.044   0.963   1.180 -5.1720 -0.4020  0.6287
   65MOL   H49932627   2.892   1.189   1.306  0.3639  0.1314  3.1340
   65MOL   H50032628   2.833   1.044   1.217  2.5628 -1.8034 -1.1642
   65MOL   H50132629   2.900   1.026   1.381  0.7181  1.0111  0.5266
   65MOL   H50232630   3.258   1.449   1.740  1.9106  3.9011  0.0306
   66MOL     C132631   3.763   1.519   2.544  0.4879  0.1164 -0.5065
   66MOL     C232632   3.739   1.452   2.410 -0.0290  0.6584 -0.3753
   66MOL     O332633   3.604   1.399   2.401 -0.5404  0.0479  0.2719
   66MOL     C432634   3.508   1.488   2.345 -0.0863  0.1808 -0.1292
   66MOL     C532635   3.372   1.407   2.335  0.1184  0.5529 -0.4555
   66MOL     C632636   3.319   1.387   2.473 -0.4252 -0.0615  0.6347
   66MOL     C732637   3.176   1.334   2.479 -0.3348 -0.5914  0.3573
   66MOL     C832638   3.068   1.447   2.465 -0.2133 -0.3676 -0.6140
   66MOL     C932639   2.919   1.402   2.447  0.0603  0.7406  0.1872
   66MOL    H1032640   3.723   1.471   2.633 -0.4057 -1.4694 -1.7315
   66MOL    H1132641   3.870   1.535   2.559  0.5011 -0.7702  0.3674
   66MOL    H1232642   3.759   1.522   2.329  0.8843  0.0286 -0.7037
   66MOL    H1332643   3.544   1.518   2.246  2.2458  0.3837  0.7359
   66MOL    H1432644   3.500   1.581   2.401  0.1375 -0.5530  1.1484
   66MOL    H1532645   3.395   1.305   2.304 -0.5821 -0.0192  0.8564
   66MOL    H1632646   3.305   1.451   2.262 -0.1403 -1.4778 -1.4807
   66MOL    H1732647   3.389   1.321   2.524  0.4785 -1.3528 -2.1479
   66MOL    H1832648   3.320   1.482   2.526 -1.9931  1.4412 -1.9322
   66MOL    H1932649   3.163   1.255   2.405  1.7534 -0.9959  0.3905
   66MOL    H2032650   3.159   1.291   2.578 -0.2893 -0.8293  0.2635
   66MOL    H2132651   3.082   1.517   2.382 -1.4637 -0.7389 -1.1563
   66MOL    H2232652   3.068   1.508   2.556  2.9767 -1.0208 -0.1438
   66MOL    H2332653   2.857   1.486   2.414 -0.6070  0.6855  1.2823
   66MOL    H2432654   2.905   1.321   2.375  1.0793  2.7367 -2.3517
   66MOL    H2532655   2.878   1.372   2.543  0.6010 -1.1120 -0.1499
   66MOL    H2632656   3.718   1.618   2.534  0.3064 -0.0619 -1.4919
   66MOL    C2732657   3.829   1.323   2.400  0.3114  0.2031  0.4791
   66MOL    C2832658   3.982   1.340   2.392 -0.6261  0.5421  0.2042
   66MOL    O2932659   4.022   1.211   2.351  0.1970  0.2662 -0.0405
   66MOL    C3032660   4.160   1.181   2.361 -0.0811 -0.1838 -0.2757
   66MOL    C3132661   4.193   1.034   2.403  0.2593  0.1546  0.3114
   66MOL    C3232662   4.329   0.990   2.353 -0.9558 -0.1787 -0.4358
   66MOL    C3332663   4.436   1.014   2.471  0.2054 -0.2886  0.6088
   66MOL    C3432664   4.580   1.000   2.428  1.3695  0.2513 -0.1703
   66MOL    C3532665   4.670   1.027   2.543  0.1656  0.0371  0.0419
   66MOL    H3632666   3.801   1.252   2.478  1.5663  0.8366  1.5208
   66MOL    H3732667   3.795   1.272   2.310  1.6317 -2.6524  1.5374
   66MOL    H3832668   4.020   1.362   2.491  0.9394 -1.3977  0.0524
   66MOL    H3932669   4.231   1.248   2.407 -2.4106  0.5339  2.4000
   66MOL    H4032670   4.181   1.170   2.254 -1.5057  0.1639 -0.6084
   66MOL    H4132671   4.115   0.977   2.352 -1.7414  0.7061  2.6738
   66MOL    H4232672   4.172   1.033   2.510 -0.8912 -0.8011  0.0819
   66MOL    H4332673   4.334   0.882   2.339  2.2138 -0.2481  0.7031
   66MOL    H4432674   4.345   1.017   2.249 -0.6023 -0.0607 -0.3523
   66MOL    H4532675   4.436   1.121   2.489  0.3253  0.1448 -1.8195
   66MOL    H4632676   4.400   0.959   2.557  1.3613 -1.4091  0.3879
   66MOL    H4732677   4.591   0.898   2.392  0.2436 -1.0815  3.0891
   66MOL    H4832678   4.604   1.069   2.347 -0.1552  1.4116  0.3498
   66MOL    H4932679   4.776   1.035   2.519 -0.2370  0.5734 -1.5628
   66MOL    H5032680   4.636   1.122   2.583 -1.3509 -0.1528 -0.7768
   66MOL    H5132681   4.666   0.939   2.608  1.4330 -1.6973 -2.1335
   66MOL    C5232682   4.021   1.445   2.282 -0.1436 -0.8112  0.5302
   66MOL    C5332683   4.153   1.511   2.299 -0.1361 -0.7725  0.3177
   66MOL    O5432684   4.166   1.585   2.176  0.0296 -0.4993 -0.5391
   66MOL    C5532685   4.277   1.543   2.097 -0.2808  0.5427 -0.1932
   66MOL    C5632686   4.309   1.642   1.982  0.5545 -0.7065  0.2324
   66MOL    C5732687   4.316   1.784   2.032 -0.2793 -0.6306 -0.2276
   66MOL    C5832688   4.182   1.854   2.018  0.3821 -0.3982 -0.1705
   66MOL    C5932689   4.196   2.000   1.995  0.0857  0.2846  0.0439
   66MOL    C6032690   4.260   2.070   2.120  0.4596  0.3238  0.1000
   66MOL    H6132691   3.946   1.525   2.278 -0.1620 -0.8822 -0.5455
   66MOL    H6232692   4.013   1.399   2.184 -0.7957  1.8543 -0.7266
   66MOL    H6332693   4.239   1.444   2.300  2.5566  2.5518  0.0477
   66MOL    H6432694   4.255   1.446   2.053 -1.8097  1.4406 -1.4748
   66MOL    H6532695   4.368   1.533   2.156 -1.8448 -2.8099  1.7543
   66MOL    H6632696   4.226   1.629   1.913 -0.8300  1.2467  1.4664
   66MOL    H6732697   4.405   1.612   1.940  0.9732 -0.1926  0.8124
   66MOL    H6832698   4.364   1.781   2.129 -0.6336  0.3230 -0.0228
   66MOL    H6932699   4.383   1.839   1.965 -2.6675 -0.1468 -2.2650
   66MOL    H7032700   4.124   1.812   1.936 -1.9221 -1.0482  1.7390
   66MOL    H7132701   4.121   1.841   2.108 -1.5863  0.5701 -1.3331
   66MOL    H7232702   4.258   2.015   1.907 -1.6707  1.5771 -1.0012
   66MOL    H7332703   4.103   2.053   1.972  1.0677  2.4184  0.7795
   66MOL    H7432704   4.351   2.029   2.164  1.7249 -0.4922 -3.1306
   66MOL    H7532705   4.288   2.172   2.091  3.4682 -0.2438  0.8251
   66MOL    H7632706   4.190   2.081   2.203 -1.3646 -0.1763 -1.3346
   66MOL    C7732707   4.159   1.603   2.421  0.1730  0.2203  0.0127
   66MOL    C7832708   4.298   1.677   2.437 -0.8225 -1.3180 -0.0935
   66MOL    O7932709   4.381   1.590   2.515  0.0581 -0.0830 -0.4448
   66MOL    C8032710   4.454   1.494   2.444  0.0153 -0.6333  0.7442
   66MOL    C8132711   4.569   1.439   2.530 -0.4436  0.1041 -0.3186
   66MOL    C8232712   4.676   1.537   2.569 -0.0577  0.3832  0.4723
   66MOL    C8332713   4.757   1.474   2.684 -0.4202 -0.0777  0.4671
   66MOL    C8432714   4.849   1.362   2.646 -0.0100  0.3530  0.0518
   66MOL    C8532715   4.891   1.285   2.771 -0.3922  0.3434  0.0265
   66MOL    H8632716   4.134   1.548   2.512 -0.0467 -0.2339 -0.3266
   66MOL    H8732717   4.082   1.680   2.418  0.6549  0.6725 -0.7928
   66MOL    H8832718   4.335   1.703   2.337  2.2392 -1.9643  0.8069
   66MOL    H8932719   4.497   1.531   2.351  3.4266 -1.0080  2.0776
   66MOL    H9032720   4.391   1.408   2.426  2.8787 -1.8348 -4.5802
   66MOL    H9132721   4.614   1.351   2.484 -2.7897 -0.4818 -1.5490
   66MOL    H9232722   4.512   1.411   2.619 -1.8743  1.6679 -0.7149
   66MOL    H9332723   4.737   1.560   2.482  1.9025 -0.3726  1.6314
   66MOL    H9432724   4.624   1.623   2.610 -1.1226  0.2647 -0.6105
   66MOL    H9532725   4.826   1.552   2.715  0.0959 -0.3105 -0.0943
   66MOL    H9632726   4.698   1.457   2.774  0.6957 -1.1314  1.0130
   66MOL    H9732727   4.802   1.290   2.579  1.5173 -1.4283  0.8442
   66MOL    H9832728   4.929   1.402   2.582 -1.0029  2.4011  0.0607
   66MOL    H9932729   4.802   1.251   2.824  0.8665 -1.0226  1.3231
   66MOL   H10032730   4.942   1.190   2.752  0.3979  0.5910  0.8456
   66MOL   H10132731   4.953   1.345   2.838  0.8305 -0.0714 -0.7181
   66MOL   C10232732   4.287   1.816   2.506  0.4146  0.1273  0.2796
   66MOL   C10332733   4.404   1.918   2.492 -0.8836 -0.0540 -0.6981
   66MOL   O10432734   4.383   2.030   2.587  0.4692 -0.5468  0.9511
   66MOL   C10532735   4.275   2.117   2.559 -0.1248 -0.1318  0.3635
   66MOL   C10632736   4.276   2.237   2.648  0.0854 -0.5210 -0.6166
   66MOL   C10732737   4.290   2.192   2.796  0.7550  0.6473 -0.0962
   66MOL   C10832738   4.292   2.306   2.902  0.5547 -0.0392 -0.8851
   66MOL   C10932739   4.291   2.262   3.050 -0.2360 -0.1276  0.1103
   66MOL   C11032740   4.247   2.372   3.143 -0.1390 -0.2968 -0.1201
   66MOL   H11132741   4.196   1.863   2.469  2.1167  1.8459 -1.8364
   66MOL   H11232742   4.271   1.809   2.614 -0.8485  1.5852  0.2013
   66MOL   H11332743   4.406   1.942   2.386 -0.3709  1.1475 -0.4187
   66MOL   H11432744   4.181   2.063   2.547 -0.2264  0.0009  0.5581
   66MOL   H11532745   4.289   2.163   2.461  1.8287  0.1099  0.7458
   66MOL   H11632746   4.181   2.286   2.627  0.1602 -0.2351 -0.3003
   66MOL   H11732747   4.363   2.293   2.612 -0.0359 -1.0847 -1.8089
   66MOL   H11832748   4.208   2.123   2.812  0.8151  0.2827 -1.2857
   66MOL   H11932749   4.379   2.131   2.807 -0.3190 -0.8418  0.5580
   66MOL   H12032750   4.374   2.373   2.877  1.6342 -1.4953 -1.2854
   66MOL   H12132751   4.207   2.370   2.877  0.0709  0.5950  2.1285
   66MOL   H12232752   4.215   2.183   3.045  0.0430 -0.2797 -1.9262
   66MOL   H12332753   4.388   2.223   3.081 -0.0005  0.5255  0.1992
   66MOL   H12432754   4.233   2.333   3.244  1.3493 -0.0159  0.2067
   66MOL   H12532755   4.323   2.450   3.151  3.2654 -3.3787 -0.9909
   66MOL   H12632756   4.150   2.418   3.125  0.3259  0.4847 -0.6138
   66MOL   C12732757   4.542   1.857   2.518 -0.1072  0.5251  0.4293
   66MOL   C12832758   4.668   1.943   2.479  0.2568  0.6287 -0.6827
   66MOL   O12932759   4.715   1.921   2.346  0.4396 -0.4950 -0.1896
   66MOL   C13032760   4.655   1.996   2.241  0.5726 -0.0471  0.0651
   66MOL   C13132761   4.742   1.978   2.113  0.0776  0.0271 -0.2065
   66MOL   C13232762   4.886   2.041   2.133  0.2962 -0.0333  0.3204
   66MOL   C13332763   4.886   2.194   2.098  0.0172  0.4254 -0.0485
   66MOL   C13432764   5.021   2.256   2.072 -0.0259  0.3651  0.4397
   66MOL   C13532765   5.006   2.406   2.027  0.6382 -0.4109  0.5139
   66MOL   H13632766   4.549   1.821   2.621  0.7261  0.3366  0.3051
   66MOL   H13732767   4.554   1.773   2.449 -0.4241  1.0856 -0.3189
   66MOL   H13832768   4.652   2.050   2.494 -0.4662  0.9492 -3.3556
   66MOL   H13932769   4.659   2.099   2.276 -1.5321 -0.4411  1.5582
   66MOL   H14032770   4.552   1.965   2.227  0.2000  0.4026  1.6779
   66MOL   H14132771   4.695   2.018   2.023 -0.5881  1.1518  0.6290
   66MOL   H14232772   4.757   1.872   2.095  1.9846  0.3374 -0.5552
   66MOL   H14332773   4.928   2.021   2.231  2.3380  3.4971  0.2491
   66MOL   H14432774   4.955   1.991   2.064 -0.1618 -0.4515  0.1626
   66MOL   H14532775   4.817   2.212   2.015  1.3361 -1.5326 -1.6057
   66MOL   H14632776   4.837   2.253   2.175 -2.7804  0.9683 -2.1315
   66MOL   H14732777   5.087   2.257   2.159 -0.2814  2.2870  0.6477
   66MOL   H14832778   5.071   2.207   1.988 -0.2236  2.4247 -0.9173
   66MOL   H14932779   4.934   2.426   1.947  0.5355  1.3578  1.0323
   66MOL   H15032780   4.965   2.456   2.114 -1.8569 -1.0640 -0.2540
   66MOL   H15132781   5.105   2.446   2.003  0.6336  1.4759  3.4323
   66MOL   C15232782   4.787   1.921   2.572  0.3817  0.1977 -0.0315
   66MOL   C15332783   4.909   2.005   2.544 -0.5832 -0.0382 -0.2204
   66MOL   O15432784   4.878   2.136   2.595 -0.6725  0.2882  0.0337
   66MOL   C15532785   4.947   2.237   2.520  0.3465  0.0159  0.3667
   66MOL   C15632786   4.958   2.376   2.595  0.3488  0.3744  0.3700
   66MOL   C15732787   5.013   2.499   2.509  0.7592  0.5434  0.6492
   66MOL   C15832788   5.031   2.630   2.595  0.5509  0.3192 -0.3211
   66MOL   C15932789   5.118   2.624   2.720 -0.3693 -0.1742  0.2067
   66MOL   C16032790   5.265   2.583   2.696 -0.3185 -0.0054  0.0795
   66MOL   H16132791   4.753   1.924   2.676  1.0395 -0.1777  0.1927
   66MOL   H16232792   4.798   1.814   2.560  0.9126  0.2406  0.0678
   66MOL   H16332793   4.934   1.989   2.439 -0.9329  0.2714 -0.3516
   66MOL   H16432794   4.894   2.256   2.426 -2.4691 -0.9230  1.7018
   66MOL   H16532795   5.048   2.214   2.487  0.0913  1.8868 -1.8813
   66MOL   H16632796   5.020   2.356   2.683  2.2026  1.5605 -0.6418
   66MOL   H16732797   4.860   2.407   2.630  0.4715  0.3866  0.7038
   66MOL   H16832798   5.102   2.465   2.456  0.8227 -1.3352  1.9210
   66MOL   H16932799   4.940   2.523   2.432 -0.5846 -3.4271  0.5598
   66MOL   H17032800   5.078   2.705   2.531  1.4821  1.0401  1.1941
   66MOL   H17132801   4.929   2.661   2.618  1.5090  1.6387  2.3648
   66MOL   H17232802   5.132   2.724   2.760 -0.3547  0.5016 -1.4735
   66MOL   H17332803   5.071   2.553   2.789 -0.2629 -1.7445 -1.2824
   66MOL   H17432804   5.316   2.564   2.790 -0.5275  3.5434  0.9712
   66MOL   H17532805   5.268   2.494   2.633  0.2603  0.4276 -0.5120
   66MOL   H17632806   5.320   2.662   2.644 -0.9926  0.0979 -0.4921
   66MOL   C17732807   5.022   1.980   2.648  0.4311 -0.0978  0.2368
   66MOL   C17832808   5.079   1.835   2.645 -0.2342 -0.0825  0.3474
   66MOL   O17932809   4.990   1.734   2.704 -0.1800 -0.0320 -0.0542
   66MOL   C18032810   5.006   1.714   2.847  0.1772 -0.2498  0.3461
   66MOL   C18132811   4.888   1.781   2.926  0.4227 -0.1352 -0.5382
   66MOL   C18232812   4.883   1.768   3.072 -0.2913 -0.1339 -0.4173
   66MOL   C18332813   4.781   1.857   3.143 -0.3137  1.0328 -0.1276
   66MOL   C18432814   4.759   1.815   3.294 -0.4462  0.6055  0.7103
   66MOL   C18532815   4.879   1.839   3.385 -1.0802 -0.2455  0.2903
   66MOL   H18632816   5.111   2.042   2.637 -0.9435  1.8572 -0.0808
   66MOL   H18732817   4.989   2.002   2.749 -0.3165 -1.5526  0.3243
   66MOL   H18832818   5.172   1.842   2.702  0.2199 -0.4125 -0.3549
   66MOL   H18932819   5.104   1.734   2.890  0.5084  1.8272 -1.2684
   66MOL   H19032820   4.989   1.606   2.851 -2.4782  0.0796 -0.7486
   66MOL   H19132821   4.788   1.768   2.885 -0.2849  3.2465 -0.0300
   66MOL   H19232822   4.903   1.887   2.906  0.0942 -0.2046 -1.1635
   66MOL   H19332823   4.855   1.668   3.103 -1.8628  0.1093 -1.0425
   66MOL   H19432824   4.984   1.793   3.106 -0.6794  2.1722 -0.8377
   66MOL   H19532825   4.807   1.962   3.139 -3.2092  1.8224  0.6065
   66MOL   H19632826   4.683   1.857   3.095 -0.4680  0.8082  0.1889
   66MOL   H19732827   4.670   1.862   3.335 -0.6495  1.7679 -1.0044
   66MOL   H19832828   4.738   1.708   3.298 -1.2404  0.7914  1.3924
   66MOL   H19932829   4.896   1.946   3.390  0.9977 -0.3739 -2.5335
   66MOL   H20032830   4.857   1.792   3.481 -0.4922 -0.1125  0.4924
   66MOL   H20132831   4.962   1.789   3.335 -1.8633 -0.2594 -1.0163
   66MOL   C20232832   5.125   1.775   2.504 -0.0053 -0.3168 -0.0857
   66MOL   C20332833   5.266   1.815   2.451  0.1968 -0.0607  0.5211
   66MOL   O20432834   5.263   1.961   2.455  0.0232 -0.2422  0.0990
   66MOL   C20532835   5.393   2.018   2.456 -1.0436 -0.5163 -0.4575
   66MOL   C20632836   5.380   2.172   2.479 -0.1870 -0.0154  0.3165
   66MOL   C20732837   5.519   2.230   2.496  0.1777 -0.0281  0.2773
   66MOL   C20832838   5.504   2.384   2.506  0.0578 -0.1868  0.3686
   66MOL   C20932839   5.642   2.445   2.469 -0.2274 -0.3512  0.1370
   66MOL   C21032840   5.759   2.419   2.562  0.8662  0.0065  0.0299
   66MOL   H21132841   5.138   1.666   2.511 -0.3289 -0.5653 -2.8027
   66MOL   H21232842   5.042   1.789   2.435  0.7042  0.0801 -0.8664
   66MOL   H21332843   5.354   1.781   2.506  0.5480 -0.7812 -0.4699
   66MOL   H21432844   5.453   1.995   2.368 -0.3825 -1.2861  0.1772
   66MOL   H21532845   5.448   1.972   2.539  1.8128  0.1313 -1.9200
   66MOL   H21632846   5.328   2.189   2.573  2.3227 -0.6251  1.8607
   66MOL   H21732847   5.315   2.218   2.404  1.7298  1.3120 -0.5778
   66MOL   H21832848   5.568   2.193   2.587 -0.2353  0.0774  0.5408
   66MOL   H21932849   5.588   2.202   2.415  0.0663  1.0466 -0.1916
   66MOL   H22032850   5.439   2.427   2.430 -0.3891  0.8586  1.3324
   66MOL   H22132851   5.477   2.423   2.604 -0.7792 -0.2012  0.1473
   66MOL   H22232852   5.670   2.404   2.372  0.2403 -1.4432  0.7308
   66MOL   H22332853   5.642   2.553   2.452  2.8924 -0.1072  1.3350
   66MOL   H22432854   5.774   2.314   2.586  2.3996  0.0045 -0.8409
   66MOL   H22532855   5.856   2.448   2.521  0.2548 -0.5660 -1.8543
   66MOL   H22632856   5.738   2.474   2.654 -1.3927 -0.4333 -0.2180
   66MOL   C22732857   5.270   1.791   2.293  0.1847 -0.6626  0.7218
   66MOL   C22832858   5.285   1.648   2.236 -0.1117 -0.5132 -0.1844
   66MOL   O22932859   5.290   1.647   2.091 -0.4769  0.6997  0.1703
   66MOL   C23032860   5.184   1.702   2.016  0.8532  0.4159 -0.0540
   66MOL   C23132861   5.191   1.677   1.873 -0.4025  0.0074  0.2082
   66MOL   C23232862   5.063   1.721   1.797 -0.0928  0.3792  0.2507
   66MOL   C23332863   5.061   1.872   1.757 -0.5701 -1.0113 -0.1492
   66MOL   C23432864   5.160   1.906   1.644  0.3663 -0.2047  0.4340
   66MOL   C23532865   5.139   2.049   1.594  0.0637 -0.0146  0.4886
   66MOL   H23632866   5.185   1.840   2.246  1.0120  0.0129 -0.0919
   66MOL   H23732867   5.350   1.851   2.249 -0.3660 -0.5044 -0.0916
   66MOL   H23832868   5.194   1.595   2.263 -0.8352  0.1617 -1.2571
   66MOL   H23932869   5.195   1.808   2.040  1.3882  0.2402  0.5078
   66MOL   H24032870   5.088   1.670   2.055  0.3797  2.1577  0.2470
   66MOL   H24132871   5.189   1.569   1.860  1.1266  0.0167 -0.2671
   66MOL   H24232872   5.280   1.713   1.820  0.8561 -0.4957  1.9336
   66MOL   H24332873   5.034   1.654   1.716 -0.7770  1.0486 -0.0653
   66MOL   H24432874   4.978   1.718   1.865 -0.0194 -4.9013  0.2617
   66MOL   H24532875   4.968   1.906   1.713 -0.4838 -0.5328  0.0271
   66MOL   H24632876   5.075   1.938   1.843  1.1265 -1.4233 -0.0771
   66MOL   H24732877   5.264   1.898   1.677  1.2822  0.3619 -2.1782
   66MOL   H24832878   5.158   1.828   1.567  0.5648  0.6870 -0.4924
   66MOL   H24932879   5.145   2.113   1.682 -0.9854  0.3952  0.2729
   66MOL   H25032880   5.209   2.087   1.519  0.5134  0.2531  1.0426
   66MOL   H25132881   5.037   2.075   1.567 -0.2432 -1.2999  0.3887
   66MOL   C25232882   5.408   1.572   2.295  0.8007 -0.4937 -0.7490
   66MOL   C25332883   5.548   1.595   2.242 -0.1316 -0.1017 -0.3854
   66MOL   O25432884   5.606   1.715   2.295  0.2134 -0.2852 -0.2348
   66MOL   C25532885   5.656   1.702   2.431 -0.0433  1.0732 -0.1017
   66MOL   C25632886   5.728   1.828   2.469 -0.1302  0.2314  0.1288
   66MOL   C25732887   5.851   1.852   2.369  1.0155  0.0484  0.1466
   66MOL   C25832888   5.927   1.982   2.397  0.0874 -0.0020 -0.3343
   66MOL   C25932889   6.029   2.013   2.289 -0.1137 -0.5261  0.1285
   66MOL   C26032890   6.111   2.141   2.328  0.9080 -0.0282 -0.0897
   66MOL   H26132891   5.402   1.562   2.404 -0.5347 -0.3180 -0.8014
   66MOL   H26232892   5.397   1.469   2.264  2.7693 -0.2434 -2.3557
   66MOL   H26332893   5.606   1.506   2.267  0.1538  0.1086 -0.3023
   66MOL   H26432894   5.715   1.612   2.447  0.2336  1.8201  3.2734
   66MOL   H26532895   5.576   1.678   2.501  0.8911  0.7431  0.8559
   66MOL   H26632896   5.770   1.828   2.569  2.0386  0.4833 -0.7486
   66MOL   H26732897   5.648   1.900   2.451 -0.6043  0.0760  1.5857
   66MOL   H26832898   5.922   1.770   2.385 -1.2326 -2.0248 -0.0866
   66MOL   H26932899   5.822   1.848   2.264  1.1759  1.3455  0.0536
   66MOL   H27032900   5.853   2.063   2.397 -1.0276 -0.9859  1.4472
   66MOL   H27132901   5.971   1.979   2.497  3.7758  0.9462 -1.8409
   66MOL   H27232902   6.093   1.926   2.290  0.4093 -0.1433  0.3023
   66MOL   H27332903   5.980   2.026   2.192  0.6055 -1.0670 -0.3134
   66MOL   H27432904   6.054   2.230   2.354 -0.9155 -0.7444 -1.4891
   66MOL   H27532905   6.191   2.121   2.399  0.1819 -0.0240  0.7318
   66MOL   H27632906   6.162   2.171   2.236 -0.6768 -0.5121 -1.1490
   66MOL   C27732907   5.570   1.613   2.086  0.0605  0.3762  0.4171
   66MOL   C27832908   5.723   1.603   2.042 -0.2653 -0.5554  0.1807
   66MOL   O27932909   5.774   1.470   2.053 -0.1443 -0.6832 -0.2506
   66MOL   C28032910   5.911   1.452   2.103 -0.0899 -0.0801  0.2034
   66MOL   C28132911   5.931   1.492   2.251  0.1197 -0.1722 -0.4756
   66MOL   C28232912   6.076   1.470   2.292 -0.1176 -0.2999 -0.4673
   66MOL   C28332913   6.096   1.322   2.345  0.3955 -0.4351 -0.1507
   66MOL   C28432914   6.233   1.281   2.382 -0.0516 -0.4455 -1.2799
   66MOL   C28532915   6.289   1.363   2.505 -0.3136 -0.1567 -0.0185
   66MOL   H28632916   5.510   1.542   2.028  0.3099 -0.1432  0.7921
   66MOL   H28732917   5.523   1.706   2.054  0.7899 -0.3770 -3.0792
   66MOL   H28832918   5.766   1.673   2.114  0.5373  0.2278 -1.0350
   66MOL   H28932919   5.993   1.499   2.048  0.8971 -1.3278  0.5789
   66MOL   H29032920   5.931   1.347   2.084 -0.6497  0.1500 -1.7454
   66MOL   H29132921   5.863   1.435   2.315 -0.1439 -0.6496 -1.1716
   66MOL   H29232922   5.899   1.595   2.266  0.2550 -0.5352  2.6032
   66MOL   H29332923   6.136   1.493   2.205  1.1343  0.0234  0.4610
   66MOL   H29432924   6.115   1.545   2.360  0.0818  0.2199 -1.1527
   66MOL   H29532925   6.038   1.312   2.436  0.2462 -0.1486 -0.2125
   66MOL   H29632926   6.050   1.260   2.268  0.7441  0.2122 -0.8903
   66MOL   H29732927   6.246   1.175   2.404 -0.4270 -0.7025 -2.2750
   66MOL   H29832928   6.301   1.314   2.304  1.4196 -1.3008 -0.3810
   66MOL   H29932929   6.320   1.463   2.476 -0.3402 -0.0188  0.4298
   66MOL   H30032930   6.234   1.370   2.599 -0.9700 -1.0473 -0.3257
   66MOL   H30132931   6.384   1.312   2.521 -0.9580 -1.4576 -0.2522
   66MOL   C30232932   5.739   1.657   1.901 -0.7329  0.1216  0.5419
   66MOL   C30332933   5.732   1.812   1.871 -0.5548 -0.6522  0.4267
   66MOL   O30432934   5.737   1.814   1.727  0.2699 -0.1105 -0.4110
   66MOL   C30532935   5.615   1.802   1.661  0.0945  0.0381 -0.6411
   66MOL   C30632936   5.635   1.833   1.520  0.6882 -0.3464  0.2347
   66MOL   C30732937   5.518   1.784   1.431 -0.2647 -0.4153  0.0417
   66MOL   C30832938   5.545   1.813   1.278  0.4998 -0.1262 -0.0370
   66MOL   C30932939   5.425   1.775   1.187  0.1275  0.0434 -1.0122
   66MOL   C31032940   5.417   1.626   1.173  1.1037 -0.6096 -0.3262
   66MOL   H31132941   5.832   1.614   1.864 -1.0666  1.6391 -2.2201
   66MOL   H31232942   5.671   1.598   1.840 -1.1477  0.1588  0.9669
   66MOL   H31332943   5.639   1.853   1.910 -1.4290  0.5723 -2.7535
   66MOL   H31432944   5.558   1.889   1.692  1.3195  0.8746 -0.7231
   66MOL   H31532945   5.554   1.713   1.679 -0.3368  0.6826  1.1967
   66MOL   H31632946   5.716   1.770   1.484 -0.1827 -0.4455 -1.5815
   66MOL   H31732947   5.677   1.932   1.500 -0.0079 -0.1669 -0.3643
   66MOL   H31832948   5.492   1.680   1.450 -1.3069 -0.2611 -0.5784
   66MOL   H31932949   5.427   1.836   1.460 -0.1890  0.4877 -1.2889
   66MOL   H32032950   5.562   1.919   1.258 -0.8858  0.0920 -0.0706
   66MOL   H32132951   5.635   1.764   1.240 -1.2829 -2.6744 -1.0863
   66MOL   H32232952   5.335   1.818   1.230  1.0984 -0.0548  1.1798
   66MOL   H32332953   5.440   1.838   1.100  0.9735  1.7488  0.3329
   66MOL   H32432954   5.352   1.608   1.088 -1.8134  2.4958  1.1489
   66MOL   H32532955   5.515   1.596   1.135  1.4744 -1.0150  0.9277
   66MOL   H32632956   5.397   1.573   1.266 -1.0689 -1.5145 -1.2810
   66MOL   C32732957   5.858   1.886   1.910 -0.5589 -0.3049 -0.5914
   66MOL   C32832958   5.856   2.023   1.862 -0.2843 -0.9294  0.3315
   66MOL   O32932959   5.890   2.112   1.969  0.0881 -0.4187 -0.1924
   66MOL   C33032960   5.813   2.236   1.957 -0.4390 -0.2204 -0.6840
   66MOL   C33132961   5.871   2.349   2.044 -0.7068  0.8925  0.2200
   66MOL   C33232962   5.789   2.484   2.044  0.6187 -0.1118  0.2500
   66MOL   C33332963   5.824   2.570   2.168  0.8346 -0.1637  0.1226
   66MOL   C33432964   5.761   2.712   2.165 -1.4061  0.4817  0.7396
   66MOL   C33532965   5.817   2.801   2.278 -0.5358  0.6022  0.1847
   66MOL   H33632966   5.945   1.829   1.878 -0.3001 -0.2926  0.0855
   66MOL   H33732967   5.865   1.882   2.019 -1.9977  2.7116 -0.3379
   66MOL   H33832968   5.766   2.058   1.811  0.1074  0.0664  0.3036
   66MOL   H33932969   5.713   2.210   1.993  1.1406 -2.1197  2.5279
   66MOL   H34032970   5.796   2.272   1.855 -2.1443  0.3554 -0.2065
   66MOL   H34132971   5.976   2.359   2.017 -0.4316  1.0840  1.3521
   66MOL   H34232972   5.875   2.308   2.145 -1.1076  1.3080  0.4088
   66MOL   H34332973   5.803   2.536   1.949 -2.4436  2.7383  1.2885
   66MOL   H34432974   5.684   2.455   2.042  0.6244 -0.1317  0.2602
   66MOL   H34532975   5.799   2.519   2.261 -1.3042 -0.1641 -0.4194
   66MOL   H34632976   5.933   2.564   2.167  0.7915 -0.8187 -1.3566
   66MOL   H34732977   5.782   2.761   2.070 -1.7213 -0.2545  0.2838
   66MOL   H34832978   5.652   2.714   2.168 -1.5635 -0.6098 -2.2760
   66MOL   H34932979   5.813   2.745   2.371 -0.1017 -0.2995 -0.3369
   66MOL   H35032980   5.922   2.829   2.264 -1.3302  3.4935 -0.4203
   66MOL   H35132981   5.763   2.893   2.302  1.5585  1.9242  0.0180
   66MOL   C35232982   5.955   2.029   1.752 -0.2179 -0.2946 -0.4370
   66MOL   C35332983   5.956   2.159   1.663  0.1501  0.1914 -0.2275
   66MOL   O35432984   5.829   2.160   1.595 -0.0006 -0.5027 -1.0556
   66MOL   C35532985   5.798   2.282   1.529  0.4740  0.8280  0.2517
   66MOL   C35632986   5.643   2.276   1.508 -0.5918  0.1314  0.1731
   66MOL   C35732987   5.574   2.255   1.649  0.5126  0.0751  0.2194
   66MOL   C35832988   5.417   2.243   1.641  0.0851 -0.2064  0.1427
   66MOL   C35932989   5.350   2.334   1.741 -0.3078 -0.5353 -0.4943
   66MOL   C36032990   5.393   2.481   1.733  0.8545  0.0155 -0.3012
   66MOL   H36132991   6.055   2.015   1.792 -0.7807 -0.3208  0.9936
   66MOL   H36232992   5.934   1.952   1.677 -1.8453  0.1547 -0.4674
   66MOL   H36332993   5.968   2.252   1.719  3.4658 -2.1783  3.2463
   66MOL   H36432994   5.860   2.300   1.441 -1.3466 -0.5982 -1.3853
   66MOL   H36532995   5.822   2.360   1.601  1.8034  0.9209 -0.2926
   66MOL   H36632996   5.615   2.194   1.442 -0.5788  1.0910 -1.0380
   66MOL   H36732997   5.606   2.370   1.466 -3.1373 -0.6056  0.6802
   66MOL   H36832998   5.609   2.166   1.702  1.1212  0.2194  0.0550
   66MOL   H36932999   5.615   2.334   1.712 -0.7814  0.6058  0.4230
   66MOL   H37033000   5.373   2.246   1.541 -2.2996  0.5319  1.1506
   66MOL   H37133001   5.409   2.139   1.672  2.7353 -0.3495  0.4404
   66MOL   H37233002   5.244   2.331   1.715 -0.1308 -2.6841 -1.0829
   66MOL   H37333003   5.372   2.297   1.841  1.1519 -2.2417 -1.4146
   66MOL   H37433004   5.500   2.493   1.752  0.6943  1.1003 -0.0143
   66MOL   H37533005   5.356   2.520   1.638 -0.6982  2.1286  1.1178
   66MOL   H37633006   5.342   2.552   1.799  0.0994 -0.8888  0.1089
   66MOL   C37733007   6.063   2.136   1.556 -0.6340  0.2705 -0.1488
   66MOL   C37833008   6.203   2.165   1.605 -0.4196  0.0057  0.2042
   66MOL   O37933009   6.209   2.292   1.660  0.0600 -0.4918 -0.3735
   66MOL   C38033010   6.300   2.314   1.762  1.3086 -0.2295 -0.9677
   66MOL   C38133011   6.246   2.442   1.835  0.6658 -0.5698  0.6879
   66MOL   C38233012   6.296   2.473   1.973 -0.6140  0.2825  0.0284
   66MOL   C38333013   6.219   2.584   2.041 -0.5995  0.1691  0.3086
   66MOL   C38433014   6.277   2.601   2.184 -0.6708 -0.6024 -0.4899
   66MOL   C38533015   6.220   2.712   2.264  0.8314 -0.1307 -0.1239
   66MOL   H38633016   6.051   2.038   1.510  1.7557  0.7236 -1.8430
   66MOL   H38733017   6.040   2.201   1.472  0.5528  0.4322 -0.3532
   66MOL   H38833018   6.216   2.091   1.684  1.3876  0.3236  0.2274
   66MOL   H38933019   6.403   2.327   1.731  1.0149  1.5062 -1.2515
   66MOL   H39033020   6.302   2.235   1.838 -0.1917 -0.8275 -1.5280
   66MOL   H39133021   6.137   2.447   1.845  0.3311  0.6990 -2.7527
   66MOL   H39233022   6.261   2.520   1.760 -0.2808  0.4760  1.5732
   66MOL   H39333023   6.279   2.380   2.027  1.1625 -1.6419 -2.6093
   66MOL   H39433024   6.402   2.496   1.985 -0.5298 -0.8670  1.5166
   66MOL   H39533025   6.215   2.677   1.984  0.1332 -0.6653 -1.1417
   66MOL   H39633026   6.114   2.553   2.048 -0.0644 -1.7745  0.0008
   66MOL   H39733027   6.263   2.503   2.230 -1.3816 -0.0299  0.5409
   66MOL   H39833028   6.385   2.603   2.177 -0.7072  0.6665 -0.7958
   66MOL   H39933029   6.122   2.680   2.299  1.7545 -2.6902  0.2653
   66MOL   H40033030   6.288   2.720   2.349 -1.7209 -2.0612  2.2146
   66MOL   H40133031   6.203   2.816   2.236  1.1842  0.4978  1.9323
   66MOL   C40233032   6.315   2.160   1.501  0.5909  0.3247 -0.7383
   66MOL   C40333033   6.343   2.023   1.433 -0.5922  0.5104 -0.4560
   66MOL   O40433034   6.416   1.940   1.520  0.1457 -0.1676  0.4383
   66MOL   C40533035   6.360   1.811   1.542 -0.1965 -0.2856  0.6247
   66MOL   C40633036   6.402   1.766   1.681  0.2336 -0.7412 -0.4464
   66MOL   C40733037   6.333   1.856   1.790  0.1485  0.2257 -0.0139
   66MOL   C40833038   6.342   1.792   1.933  0.1391 -0.6707  0.0979
   66MOL   C40933039   6.306   1.880   2.052  0.9706 -0.2684  1.1748
   66MOL   C41033040   6.341   1.799   2.179  0.5028  0.0614 -0.0590
   66MOL   H41133041   6.409   2.192   1.548  0.6084 -1.2179  0.3355
   66MOL   H41233042   6.316   2.238   1.425 -0.0279  1.1726  0.1115
   66MOL   H41333043   6.245   1.979   1.411 -0.1250 -1.3001  0.9453
   66MOL   H41433044   6.390   1.739   1.466  0.6113 -1.5347  2.0959
   66MOL   H41533045   6.252   1.815   1.546 -0.2154 -0.0487 -0.1899
   66MOL   H41633046   6.510   1.769   1.690  0.3088 -0.2975 -1.4437
   66MOL   H41733047   6.374   1.661   1.693 -0.0757 -0.7613 -1.3013
   66MOL   H41833048   6.382   1.954   1.794 -0.4841  0.4636  2.8120
   66MOL   H41933049   6.226   1.864   1.771  0.0714 -0.5840  0.0732
   66MOL   H42033050   6.278   1.704   1.935 -0.8617 -0.0322 -2.2635
   66MOL   H42133051   6.447   1.762   1.943  0.5566  0.3201 -1.2128
   66MOL   H42233052   6.359   1.976   2.051 -0.8582  0.7429  0.3009
   66MOL   H42333053   6.201   1.907   2.049  1.2262  0.8820  2.1246
   66MOL   H42433054   6.319   1.847   2.275  0.2423  1.0051 -0.5887
   66MOL   H42533055   6.289   1.704   2.190 -0.0803  0.5097  1.2728
   66MOL   H42633056   6.447   1.777   2.171 -0.0661 -2.0402 -2.4089
   66MOL   C42733057   6.429   2.022   1.303  0.2654 -0.6321  0.3215
   66MOL   C42833058   6.429   1.899   1.211 -0.5658  0.3613 -0.9688
   66MOL   O42933059   6.304   1.890   1.155  0.0954  0.2259  0.1494
   66MOL   C43033060   6.235   1.769   1.179 -0.2967  0.1667  0.3805
   66MOL   C43133061   6.094   1.783   1.142  0.3045 -0.7157  0.3315
   66MOL   C43233062   6.078   1.805   0.989 -0.3149  0.5954 -0.9252
   66MOL   C43333063   5.930   1.818   0.958 -0.3537  0.0516  0.5282
   66MOL   C43433064   5.895   1.868   0.820  0.6458  0.7543 -0.1643
   66MOL   C43533065   5.745   1.893   0.811 -0.1137 -0.7823  0.2356
   66MOL   H43633066   6.401   2.111   1.247  0.7486 -0.6704  0.0236
   66MOL   H43733067   6.534   2.038   1.325  0.2685  0.3048 -0.3138
   66MOL   H43833068   6.456   1.812   1.271  1.9422  0.7594 -1.4511
   66MOL   H43933069   6.252   1.723   1.276 -0.3559 -1.5385 -0.3929
   66MOL   H44033070   6.268   1.694   1.108  2.1337  0.2692  1.3600
   66MOL   H44133071   6.051   1.868   1.195 -2.2459 -1.3458 -0.6245
   66MOL   H44233072   6.044   1.693   1.180  0.5052 -1.6834 -1.6540
   66MOL   H44333073   6.138   1.892   0.963 -0.5840  0.5659 -1.6708
   66MOL   H44433074   6.128   1.725   0.935  0.2692  0.5167 -0.2672
   66MOL   H44533075   5.889   1.719   0.978  2.2181 -1.1026  0.2887
   66MOL   H44633076   5.883   1.871   1.041  0.2583 -0.9911  1.5579
   66MOL   H44733077   5.945   1.958   0.783  2.2292 -0.6044 -1.4380
   66MOL   H44833078   5.909   1.791   0.744 -0.0293  1.6888 -1.2498
   66MOL   H44933079   5.706   1.982   0.861  1.5662  0.2927 -0.3242
   66MOL   H45033080   5.707   1.912   0.710 -2.5756 -0.9546  1.1079
   66MOL   H45133081   5.686   1.805   0.837 -0.6941 -0.6210 -0.4901
   66MOL   C45233082   6.538   1.906   1.099 -0.0779  0.4257  0.0861
   66MOL   C45333083   6.552   1.783   1.013 -0.1565  0.0709 -0.2777
   66MOL   O45433084   6.624   1.695   1.093 -0.3878 -0.7791  0.2271
   66MOL   C45533085   6.599   1.563   1.081  0.3548 -0.0763  0.2971
   66MOL   C45633086   6.681   1.489   1.180 -0.2515  0.4142 -0.1770
   66MOL   C45733087   6.630   1.498   1.326 -0.0011 -0.6052  0.0953
   66MOL   C45833088   6.720   1.453   1.440  0.8063 -0.0350  0.3559
   66MOL   C45933089   6.831   1.548   1.478  0.3151 -0.6802 -0.5341
   66MOL   C46033090   6.777   1.677   1.536 -0.7049 -1.2794  1.1952
   66MOL   H46133091   6.511   1.994   1.042 -1.7123 -0.5020 -0.5947
   66MOL   H46233092   6.632   1.939   1.143  0.1637 -0.2917  0.1122
   66MOL   H46333093   6.452   1.743   0.995 -0.7006  0.3651  1.9027
   66MOL   H46433094   6.622   1.529   0.980 -1.9501  0.7610 -0.5471
   66MOL   H46533095   6.493   1.538   1.094  0.3213  0.3946  0.9492
   66MOL   H46633096   6.784   1.521   1.167 -0.0908  0.0214  0.1080
   66MOL   H46733097   6.682   1.381   1.164 -2.0325  0.1450  1.2860
   66MOL   H46833098   6.580   1.593   1.347 -0.3868 -0.7002 -0.3667
   66MOL   H46933099   6.547   1.427   1.332 -0.4765 -0.0034  0.7453
   66MOL   H47033100   6.666   1.429   1.532  1.4051 -3.5263 -0.1340
   66MOL   H47133101   6.754   1.351   1.422  1.3781  0.3306 -0.6365
   66MOL   H47233102   6.901   1.503   1.549  0.5354 -1.1739 -1.0656
   66MOL   H47333103   6.888   1.573   1.388  1.0686 -2.2630 -0.5092
   66MOL   H47433104   6.724   1.742   1.467 -2.6659 -3.5415  0.4947
   66MOL   H47533105   6.706   1.657   1.617 -1.7573  1.9729  1.1481
   66MOL   H47633106   6.867   1.725   1.574 -1.4352  1.3399 -0.2995
   66MOL   C47733107   6.634   1.808   0.878  0.3066 -0.1576  0.6881
   66MOL   C47833108   6.545   1.854   0.764  0.8545 -0.0894 -0.1036
   66MOL   O47933109   6.622   1.878   0.652 -0.2004 -0.6148  0.2000
   66MOL   C48033110   6.539   1.924   0.547  0.2446 -0.3389 -0.3256
   66MOL   C48133111   6.627   1.897   0.425  0.0556 -0.2273 -0.4116
   66MOL   C48233112   6.546   1.893   0.289  0.5823 -0.2681 -0.1450
   66MOL   C48333113   6.633   1.850   0.173 -0.7257 -0.3770 -0.4834
   66MOL   C48433114   6.541   1.831   0.062 -0.6671 -0.6936  0.5740
   66MOL   C48533115   6.598   1.765   7.712  0.7043 -0.4532  0.3388
   66MOL   H48633116   6.717   1.877   0.895 -0.1457  0.5992 -0.1227
   66MOL   H48733117   6.686   1.718   0.846  0.1132 -0.6933  1.8519
   66MOL   H48833118   6.468   1.783   0.733 -1.0116  1.6924  0.3569
   66MOL   H48933119   6.507   2.027   0.563  1.1819 -0.0558 -0.2681
   66MOL   H49033120   6.446   1.868   0.537  0.3680 -0.3807 -1.2675
   66MOL   H49133121   6.683   1.804   0.431 -0.2469 -0.4328 -0.7556
   66MOL   H49233122   6.710   1.967   0.415 -0.6432  0.2504 -3.6113
   66MOL   H49333123   6.463   1.825   0.306  1.7498 -1.4770  0.8319
   66MOL   H49433124   6.500   1.991   0.274  1.9929  0.3028 -0.8151
   66MOL   H49533125   6.704   1.928   0.143 -0.3207 -0.6702 -0.2823
   66MOL   H49633126   6.688   1.760   0.198  0.2172 -0.3119 -2.2327
   66MOL   H49733127   6.454   1.772   0.089 -1.9095  0.1419 -1.4428
   66MOL   H49833128   6.499   1.927   0.030 -0.0547 -0.4836  0.3926
   66MOL   H49933129   6.677   1.827   7.668  0.6240 -0.6969 -0.1599
   66MOL   H50033130   6.654   1.674   7.736  1.9401  0.2841  0.2835
   66MOL   H50133131   6.527   1.742   7.632 -1.3154  2.8449  1.1196
   66MOL   H50233132   6.490   1.945   0.787 -0.1020 -0.9181  0.8936
   67MOL     C133133   4.034   3.265   6.771 -0.7495 -0.3376  0.1902
   67MOL     C233134   4.145   3.191   6.699 -0.1751  0.0826 -0.1786
   67MOL     O333135   4.125   3.196   6.560  0.8519 -0.3449  0.0655
   67MOL     C433136   4.175   3.312   6.498  0.3327 -0.1923 -0.0789
   67MOL     C533137   4.134   3.337   6.357  0.0020  0.3644 -0.4480
   67MOL     C633138   4.212   3.451   6.289  0.2904 -0.5379 -0.0329
   67MOL     C733139   4.175   3.587   6.337  0.4341  0.2275 -0.3829
   67MOL     C833140   4.237   3.706   6.263 -0.1304  0.4836  0.4642
   67MOL     C933141   4.197   3.835   6.337 -0.5594  0.4249 -0.0587
   67MOL    H1033142   4.020   3.363   6.725 -0.0234 -0.3647 -0.1040
   67MOL    H1133143   3.934   3.223   6.761 -1.8214  2.2681 -0.3135
   67MOL    H1233144   4.236   3.239   6.737  1.3195 -2.3719 -0.5209
   67MOL    H1333145   4.283   3.309   6.514  0.3507 -2.3302 -0.4337
   67MOL    H1433146   4.157   3.401   6.558 -0.3938 -0.9422  0.8323
   67MOL    H1533147   4.027   3.353   6.345 -0.1353 -1.3016 -1.4531
   67MOL    H1633148   4.162   3.258   6.287 -0.2201  0.5592 -0.7598
   67MOL    H1733149   4.319   3.448   6.308  0.3053  0.6491  0.1611
   67MOL    H1833150   4.208   3.430   6.182 -1.9103 -0.6621  0.0650
   67MOL    H1933151   4.067   3.602   6.345  0.8443  2.6884  0.9702
   67MOL    H2033152   4.200   3.584   6.443 -0.8334 -0.1723 -0.0804
   67MOL    H2133153   4.193   3.717   6.164  0.6332 -0.5568  0.0069
   67MOL    H2233154   4.345   3.695   6.255 -0.1652 -2.2595  2.9300
   67MOL    H2333155   4.231   3.838   6.441 -0.7536  2.7640 -0.0287
   67MOL    H2433156   4.237   3.925   6.289  2.4383  0.5630  2.4727
   67MOL    H2533157   4.089   3.850   6.333 -0.8086 -1.2272  0.2880
   67MOL    H2633158   4.060   3.274   6.876  0.0526  0.5537 -0.0740
   67MOL    C2733159   4.147   3.044   6.742  0.0453  0.4170 -0.0485
   67MOL    C2833160   4.288   2.979   6.705  0.7835  1.1263  0.0790
   67MOL    O2933161   4.391   3.057   6.765  0.0823 -0.5147  0.3817
   67MOL    C3033162   4.493   3.102   6.677 -0.1079  0.0219 -0.3653
   67MOL    C3133163   4.592   3.182   6.746 -0.0539 -0.5538 -1.1090
   67MOL    C3233164   4.705   3.242   6.650  0.2945  0.0463 -0.1242
   67MOL    C3333165   4.814   3.322   6.721  0.5634 -0.3014 -0.0022
   67MOL    C3433166   4.950   3.336   6.649 -0.3346  0.2267  0.0182
   67MOL    C3533167   5.050   3.404   6.737  0.2659 -0.2899  0.6790
   67MOL    H3633168   4.129   3.041   6.850  0.2484  1.7774  0.0411
   67MOL    H3733169   4.067   2.984   6.699 -0.5107  1.8005 -0.9707
   67MOL    H3833170   4.300   2.991   6.597 -0.6158  0.6104 -0.1375
   67MOL    H3933171   4.455   3.161   6.593 -1.1068 -0.4123 -0.2243
   67MOL    H4033172   4.551   3.018   6.638  0.3403  0.9578 -1.7574
   67MOL    H4133173   4.641   3.126   6.825 -2.0117 -3.4272 -1.8604
   67MOL    H4233174   4.544   3.268   6.793 -2.4992 -2.4371 -0.0519
   67MOL    H4333175   4.743   3.156   6.594 -2.6297 -2.1085  1.0572
   67MOL    H4433176   4.661   3.295   6.566 -0.8507  0.8386  0.9581
   67MOL    H4533177   4.776   3.418   6.756 -0.0587 -1.0711  1.4662
   67MOL    H4633178   4.845   3.268   6.810  1.2739  1.3166  0.7424
   67MOL    H4733179   4.982   3.235   6.624  0.7055  0.6654 -0.4348
   67MOL    H4833180   4.937   3.391   6.556 -0.1333  0.9142  0.3888
   67MOL    H4933181   5.089   3.334   6.810  2.0885  1.2679  1.2386
   67MOL    H5033182   5.129   3.446   6.674 -0.8205  1.3044  0.3145
   67MOL    H5133183   5.006   3.493   6.783  2.5325  0.5933  1.1874
   67MOL    C5233184   4.299   2.834   6.756  0.8974  0.3298 -0.1207
   67MOL    C5333185   4.429   2.756   6.725 -0.2259  0.1099  0.0947
   67MOL    O5433186   4.441   2.635   6.798 -0.9817  0.1656 -0.3724
   67MOL    C5533187   4.481   2.649   6.932  0.1962  0.5565  0.4524
   67MOL    C5633188   4.412   2.567   7.037  0.1254  0.3648  0.5378
   67MOL    C5733189   4.432   2.419   7.028  0.6295 -0.5008  0.1887
   67MOL    C5833190   4.328   2.336   7.120 -0.1086 -0.1473  0.0482
   67MOL    C5933191   4.335   2.186   7.080  0.5995 -0.1360  0.1240
   67MOL    C6033192   4.262   2.090   7.165 -0.2848  1.0161 -0.6620
   67MOL    H6133193   4.208   2.780   6.729  0.5818 -1.4354  4.0365
   67MOL    H6233194   4.297   2.842   6.865  1.3471  0.7506 -0.1427
   67MOL    H6333195   4.515   2.821   6.743  0.8871 -1.2856 -0.1090
   67MOL    H6433196   4.454   2.748   6.968  0.8047  1.2470 -0.9647
   67MOL    H6533197   4.588   2.630   6.933  0.4079  1.7011  0.4229
   67MOL    H6633198   4.308   2.598   7.023 -0.0604 -0.7476 -0.6013
   67MOL    H6733199   4.438   2.603   7.137 -0.0099  2.3027 -0.0933
   67MOL    H6833200   4.417   2.383   6.926 -0.7498  0.2585  0.1176
   67MOL    H6933201   4.537   2.392   7.042  0.4383 -1.6564 -0.5676
   67MOL    H7033202   4.361   2.358   7.222 -1.6737  0.8475  0.3612
   67MOL    H7133203   4.228   2.374   7.103  0.3450  0.4811 -1.2826
   67MOL    H7233204   4.307   2.180   6.975  0.0958  0.0108  0.2490
   67MOL    H7333205   4.441   2.162   7.087  0.6376  0.3283  1.1009
   67MOL    H7433206   4.154   2.099   7.157 -0.2737  0.3827 -1.6228
   67MOL    H7533207   4.289   1.989   7.133 -3.3309  0.0298 -0.2510
   67MOL    H7633208   4.295   2.083   7.268  1.2461  0.5400 -1.1713
   67MOL    C7733209   4.432   2.717   6.572 -0.0391  0.1682  0.4705
   67MOL    C7833210   4.564   2.644   6.544 -0.0613  0.2704  0.7611
   67MOL    O7933211   4.665   2.738   6.553  0.0493  0.3781  0.0277
   67MOL    C8033212   4.792   2.699   6.615  0.0311 -0.6120 -0.5827
   67MOL    C8133213   4.891   2.815   6.603 -0.2547 -0.4626  0.2263
   67MOL    C8233214   5.037   2.779   6.602  0.3984  0.4718  0.1653
   67MOL    C8333215   5.126   2.902   6.588  0.2313 -0.1683 -0.4010
   67MOL    C8433216   5.274   2.872   6.612 -0.4677  0.1481  0.5053
   67MOL    C8533217   5.348   2.830   6.482 -0.0368  0.3307 -0.2343
   67MOL    H8633218   4.415   2.798   6.501 -1.5719 -1.7094 -1.3853
   67MOL    H8733219   4.357   2.640   6.552  1.7523 -1.6175  0.4892
   67MOL    H8833220   4.567   2.557   6.610 -1.1806 -0.3874 -0.0486
   67MOL    H8933221   4.825   2.611   6.560  0.2379 -0.9566  0.0883
   67MOL    H9033222   4.785   2.664   6.718  0.2324  2.8906  0.6881
   67MOL    H9133223   4.882   2.876   6.693  0.5071  1.1633 -0.7690
   67MOL    H9233224   4.868   2.878   6.517  0.6596 -0.0784  0.2540
   67MOL    H9333225   5.054   2.728   6.697 -1.6691 -2.0004 -0.7374
   67MOL    H9433226   5.061   2.717   6.516 -1.3608  0.3092 -0.2418
   67MOL    H9533227   5.102   2.957   6.497 -2.6352  0.3539  0.6062
   67MOL    H9633228   5.105   2.969   6.672 -0.7237 -1.9094  0.7857
   67MOL    H9733229   5.330   2.959   6.646  1.5050 -1.3095  1.0316
   67MOL    H9833230   5.268   2.795   6.689 -1.5085 -1.8882 -1.5741
   67MOL    H9933231   5.457   2.839   6.483 -0.0478  0.7936 -2.3240
   67MOL   H10033232   5.319   2.727   6.463  0.2500  0.2060 -0.0107
   67MOL   H10133233   5.305   2.886   6.399 -0.8114  3.3667  2.1195
   67MOL   C10233234   4.580   2.582   6.402  0.2438 -0.6928 -0.5029
   67MOL   C10333235   4.536   2.438   6.390  0.4185  0.7286  0.0724
   67MOL   O10433236   4.587   2.361   6.495  0.1331  0.3001 -0.2938
   67MOL   C10533237   4.715   2.309   6.465  0.2369 -0.0239 -0.1458
   67MOL   C10633238   4.780   2.226   6.585  0.4434  0.1966 -0.4816
   67MOL   C10733239   4.841   2.315   6.692 -0.0120 -0.2362  0.4596
   67MOL   C10833240   4.913   2.243   6.813  1.0048  0.3163  0.1520
   67MOL   C10933241   5.037   2.169   6.758 -0.7220 -0.1850  0.3751
   67MOL   C11033242   5.098   2.074   6.857  0.3735 -0.6861 -0.5234
   67MOL   H11133243   4.519   2.649   6.341  0.5193 -1.8421 -2.0541
   67MOL   H11233244   4.677   2.581   6.352  0.7935 -0.6495  0.5561
   67MOL   H11333245   4.565   2.406   6.290  0.2590  0.1759  0.2029
   67MOL   H11433246   4.793   2.380   6.436 -0.2093 -0.2946 -2.0421
   67MOL   H11533247   4.699   2.240   6.383  1.4973  0.2842 -0.6653
   67MOL   H11633248   4.844   2.150   6.541  1.2069  0.4478  0.1760
   67MOL   H11733249   4.694   2.173   6.627 -1.6342  2.0019 -2.2948
   67MOL   H11833250   4.908   2.380   6.635 -3.2093  0.4007 -2.7499
   67MOL   H11933251   4.758   2.363   6.743 -1.6259 -0.8241 -1.5504
   67MOL   H12033252   4.940   2.315   6.890  0.6568  2.3778 -1.6020
   67MOL   H12133253   4.838   2.175   6.854 -0.3235  1.3205 -0.5875
   67MOL   H12233254   5.011   2.107   6.671 -3.6073  1.4681 -0.0041
   67MOL   H12333255   5.109   2.247   6.732  0.0283 -1.1205 -0.4201
   67MOL   H12433256   5.028   1.999   6.894 -0.0132 -0.7173 -1.3136
   67MOL   H12533257   5.181   2.023   6.808  0.8936  0.5101 -0.9143
   67MOL   H12633258   5.134   2.128   6.944 -0.3324 -2.2065  0.7420
   67MOL   C12733259   4.387   2.426   6.408 -0.6522 -0.4749 -0.0429
   67MOL   C12833260   4.322   2.299   6.343 -0.0055 -0.3209 -0.7025
   67MOL   O12933261   4.179   2.316   6.351 -0.8076 -0.5264 -0.3120
   67MOL   C13033262   4.100   2.345   6.234  0.4708 -0.1062  0.5366
   67MOL   C13133263   3.967   2.287   6.261  0.3022 -0.0383  1.0448
   67MOL   C13233264   3.881   2.294   6.136  0.2075  0.5837 -0.0314
   67MOL   C13333265   3.735   2.239   6.158  0.6333 -0.5904  0.1208
   67MOL   C13433266   3.646   2.269   6.044  0.9847  0.1947  0.1672
   67MOL   C13533267   3.496   2.233   6.065  0.4811 -0.3983  0.4742
   67MOL   H13633268   4.359   2.439   6.513  1.4700 -0.8199  0.5745
   67MOL   H13733269   4.342   2.514   6.361 -0.6115 -0.3790  0.0979
   67MOL   H13833270   4.354   2.305   6.239 -0.0034 -1.8878 -0.7989
   67MOL   H13933271   4.148   2.297   6.149 -0.2814 -0.1748  0.1440
   67MOL   H14033272   4.094   2.448   6.200  1.2517  0.0696  0.9125
   67MOL   H14133273   3.922   2.344   6.342 -0.7070  1.2160 -0.3742
   67MOL   H14233274   3.978   2.181   6.283  0.9873 -0.6117 -1.8566
   67MOL   H14333275   3.881   2.400   6.111  0.6773  0.8933  1.2353
   67MOL   H14433276   3.925   2.243   6.051  0.5478  1.1449 -0.1887
   67MOL   H14533277   3.736   2.133   6.180 -0.9376 -0.5429  0.4846
   67MOL   H14633278   3.691   2.292   6.243 -0.7243 -1.7825  0.1713
   67MOL   H14733279   3.649   2.378   6.043  0.4443  0.2614  3.0982
   67MOL   H14833280   3.673   2.239   5.942  0.4186 -0.9237  0.3416
   67MOL   H14933281   3.470   2.245   6.170 -2.2957 -2.6738  0.1014
   67MOL   H15033282   3.432   2.295   6.003  1.5106  0.6505  0.4389
   67MOL   H15133283   3.478   2.129   6.038  1.7629 -0.8095  1.1508
   67MOL   C15233284   4.357   2.167   6.410 -0.1553  0.4039  0.5697
   67MOL   C15333285   4.294   2.044   6.344  0.5080 -0.3378  0.6461
   67MOL   O15433286   4.315   2.055   6.201  0.2075  0.2792  0.2389
   67MOL   C15533287   4.210   1.987   6.128 -0.1453  0.2266 -0.5146
   67MOL   C15633288   4.230   1.986   5.977 -0.2446  0.4145  0.4265
   67MOL   C15733289   4.364   1.916   5.947 -0.2854  0.6097  0.5373
   67MOL   C15833290   4.401   1.929   5.801  0.4121  0.3410 -0.2844
   67MOL   C15933291   4.537   1.867   5.752  0.9517  0.1477  0.3245
   67MOL   C16033292   4.569   1.862   5.596  0.0011  0.7500 -0.1325
   67MOL   H16133293   4.466   2.158   6.411 -0.2629 -0.8388  1.0759
   67MOL   H16233294   4.334   2.169   6.516 -1.1613  0.0758  0.3629
   67MOL   H16333295   4.188   2.038   6.367  0.7266 -0.2805  1.6715
   67MOL   H16433296   4.110   2.028   6.145 -0.5701 -1.0932  0.2456
   67MOL   H16533297   4.202   1.887   6.170 -2.1381  1.0531  1.2203
   67MOL   H16633298   4.232   2.092   5.951  2.4537  0.4535  0.5746
   67MOL   H16733299   4.148   1.931   5.931  0.3167  0.3895 -0.5536
   67MOL   H16833300   4.437   1.974   6.003  1.0952 -0.0569 -0.5443
   67MOL   H16933301   4.357   1.812   5.978  0.0405 -0.2375 -2.0773
   67MOL   H17033302   4.321   1.883   5.743 -0.4978  0.9912  0.4333
   67MOL   H17133303   4.401   2.035   5.778  0.4170  0.5398  0.6315
   67MOL   H17233304   4.614   1.931   5.795 -0.0692  0.9732  0.9037
   67MOL   H17333305   4.542   1.767   5.795 -1.0879 -1.2999 -2.6375
   67MOL   H17433306   4.652   1.791   5.596  0.1415  0.8711  2.2860
   67MOL   H17533307   4.493   1.819   5.529 -0.5277  0.5730  0.5795
   67MOL   H17633308   4.618   1.949   5.553 -0.1371  0.1156 -1.6301
   67MOL   C17733309   4.355   1.913   6.391 -0.1931 -0.1223  0.0242
   67MOL   C17833310   4.332   1.899   6.549  0.0513  0.4326  0.1288
   67MOL   O17933311   4.199   1.920   6.582  0.0511  0.0497  0.1832
   67MOL   C18033312   4.171   1.938   6.719 -0.3704  0.0611  0.1350
   67MOL   C18133313   4.029   1.988   6.738 -0.7166 -0.3143 -0.3552
   67MOL   C18233314   4.002   2.115   6.663 -0.0877 -0.1204 -0.2408
   67MOL   C18333315   4.093   2.232   6.708 -1.2206 -0.0961  0.6782
   67MOL   C18433316   4.065   2.371   6.651  0.5170 -0.3252 -0.6542
   67MOL   C18533317   4.151   2.481   6.719 -0.0475  0.4872 -0.9047
   67MOL   H18633318   4.301   1.829   6.347  0.3394 -0.2671 -0.3708
   67MOL   H18733319   4.461   1.913   6.365  0.2456  0.5258  1.7649
   67MOL   H18833320   4.392   1.974   6.601  0.7812 -0.5514  0.7188
   67MOL   H18933321   4.244   2.014   6.747 -2.1137  1.1784  1.6935
   67MOL   H19033322   4.194   1.852   6.782 -0.4173 -2.3979 -3.0342
   67MOL   H19133323   4.010   1.997   6.845  0.7860  1.3615 -0.2093
   67MOL   H19233324   3.966   1.905   6.705 -1.3292 -0.4603  1.1422
   67MOL   H19333325   4.008   2.101   6.555 -0.4335 -1.3122 -0.1143
   67MOL   H19433326   3.898   2.136   6.689  0.1774  2.7692 -1.3486
   67MOL   H19533327   4.107   2.234   6.816 -0.1414 -0.7849  0.5566
   67MOL   H19633328   4.187   2.213   6.658 -0.0256  1.4279  2.2769
   67MOL   H19733329   4.066   2.374   6.542  0.6360 -1.1966 -0.6778
   67MOL   H19833330   3.962   2.384   6.683  0.8125 -1.0966  0.6468
   67MOL   H19933331   4.132   2.486   6.827  2.0289  1.5535 -0.5713
   67MOL   H20033332   4.257   2.464   6.702  0.1126  3.5655 -3.4276
   67MOL   H20133333   4.132   2.583   6.686 -0.0535  0.5958 -0.5707
   67MOL   C20233334   4.374   1.759   6.594  0.7198 -0.5060 -0.4252
   67MOL   C20333335   4.520   1.710   6.563  0.4599  0.0546 -0.0311
   67MOL   O20433336   4.533   1.588   6.631 -0.3705 -0.5299  0.1702
   67MOL   C20533337   4.490   1.465   6.567 -0.2797  0.4017  0.2998
   67MOL   C20633338   4.576   1.432   6.441 -0.1896 -0.1241  0.0774
   67MOL   C20733339   4.540   1.294   6.383 -0.2515 -0.1638  0.4941
   67MOL   C20833340   4.607   1.283   6.246  0.2111  0.1288 -0.1723
   67MOL   C20933341   4.554   1.171   6.156  0.1460 -0.0642  0.1469
   67MOL   C21033342   4.596   1.032   6.214 -0.6186  0.1904 -0.1150
   67MOL   H21133343   4.366   1.741   6.702 -0.5226  0.4554 -0.3476
   67MOL   H21233344   4.298   1.690   6.559 -1.4953  1.5449  0.2062
   67MOL   H21333345   4.533   1.696   6.456 -2.2381 -3.0150 -0.0213
   67MOL   H21433346   4.381   1.465   6.557 -0.2433  1.3258 -0.1042
   67MOL   H21533347   4.497   1.379   6.634 -0.0512  0.3518  0.2105
   67MOL   H21633348   4.679   1.442   6.475 -0.1176 -0.1829 -0.1215
   67MOL   H21733349   4.558   1.508   6.364  0.6757  0.9888  0.9520
   67MOL   H21833350   4.570   1.219   6.456  1.4513  0.8367  0.8373
   67MOL   H21933351   4.433   1.296   6.359 -0.2625  0.1014  0.5722
   67MOL   H22033352   4.588   1.372   6.187  0.5916  0.5920  0.3968
   67MOL   H22133353   4.713   1.263   6.264  0.0709 -0.6423 -0.1843
   67MOL   H22233354   4.446   1.174   6.166  0.1486 -1.5255  0.6979
   67MOL   H22333355   4.590   1.193   6.055  1.3577  1.9085  0.9869
   67MOL   H22433356   4.705   1.029   6.218 -0.5247  1.2730 -1.3003
   67MOL   H22533357   4.552   1.016   6.312  0.2929  1.7894  0.5769
   67MOL   H22633358   4.563   0.952   6.147 -0.1630  1.2040 -1.5781
   67MOL   C22733359   4.633   1.797   6.624  0.2316  0.4963 -0.0755
   67MOL   C22833360   4.767   1.765   6.548  0.2853 -0.2410 -0.3343
   67MOL   O22933361   4.766   1.876   6.449  0.4173 -0.0827  0.5072
   67MOL   C23033362   4.828   1.844   6.326  0.8120 -0.0471  0.3064
   67MOL   C23133363   4.828   1.967   6.245  0.0547 -0.6607  0.0807
   67MOL   C23233364   4.696   2.027   6.201 -0.2765 -0.0705  0.0179
   67MOL   C23333365   4.724   2.153   6.108 -0.7001 -0.2255  0.5810
   67MOL   C23433366   4.600   2.197   6.029 -0.2378 -0.2235 -0.0509
   67MOL   C23533367   4.622   2.320   5.946 -0.4306 -0.3042 -0.4266
   67MOL   H23633368   4.606   1.902   6.640 -1.0301 -0.2138  2.8444
   67MOL   H23733369   4.644   1.767   6.729  0.2269  0.9361  0.0523
   67MOL   H23833370   4.761   1.663   6.512 -0.8841 -1.2709  2.6220
   67MOL   H23933371   4.767   1.766   6.280 -0.9231  0.7293  1.2289
   67MOL   H24033372   4.927   1.800   6.340 -0.2766 -2.5291  0.4818
   67MOL   H24133373   4.889   1.940   6.159 -0.6309  0.9020 -0.9161
   67MOL   H24233374   4.895   2.039   6.295 -0.6890 -0.1691  0.3804
   67MOL   H24333375   4.656   1.943   6.144 -1.3758  1.6434 -1.8395
   67MOL   H24433376   4.635   2.062   6.284  1.2663  0.3870  0.9669
   67MOL   H24533377   4.752   2.240   6.167 -0.8842 -0.2793  0.7457
   67MOL   H24633378   4.803   2.137   6.034 -1.0155  0.6489  0.0421
   67MOL   H24733379   4.579   2.126   5.950 -0.4976  0.8820 -0.9834
   67MOL   H24833380   4.516   2.207   6.097  1.1072  1.9842  1.3487
   67MOL   H24933381   4.637   2.410   6.006  1.0209 -0.5093 -0.4547
   67MOL   H25033382   4.715   2.315   5.889  0.0921  0.3375  0.3546
   67MOL   H25133383   4.537   2.337   5.880  0.2501 -1.4909 -1.6114
   67MOL   C25233384   4.901   1.780   6.634 -0.6724 -0.1088  0.5807
   67MOL   C25333385   4.939   1.660   6.719  0.4188 -0.1666  0.9114
   67MOL   O25433386   4.989   1.560   6.631  0.2160  0.9485  0.8462
   67MOL   C25533387   5.123   1.583   6.585 -0.3645 -0.0540  0.6478
   67MOL   C25633388   5.221   1.473   6.637  0.7751 -0.1040  0.2231
   67MOL   C25733389   5.367   1.470   6.572 -0.4218  0.1388 -0.4860
   67MOL   C25833390   5.472   1.407   6.665 -0.3298 -0.2794  0.5019
   67MOL   C25933391   5.591   1.493   6.690  0.5374  0.0879  0.2513
   67MOL   C26033392   5.570   1.603   6.789 -0.1514  0.2709 -0.1900
   67MOL   H26133393   4.975   1.832   6.573 -0.3709 -0.1077  0.9445
   67MOL   H26233394   4.874   1.856   6.707 -2.0481 -1.4998  1.5448
   67MOL   H26333395   5.016   1.692   6.789  0.2098 -1.6683  1.8595
   67MOL   H26433396   5.160   1.681   6.613 -0.8553 -0.6810  3.6181
   67MOL   H26533397   5.119   1.579   6.476 -1.7804  0.1486  0.6829
   67MOL   H26633398   5.169   1.379   6.625 -1.2363  0.7619  1.8134
   67MOL   H26733399   5.231   1.478   6.746  1.8535  2.8076  0.0379
   67MOL   H26833400   5.369   1.415   6.478  0.3711  1.5945 -1.3466
   67MOL   H26933401   5.391   1.575   6.559 -0.3604  1.0976  5.7337
   67MOL   H27033402   5.425   1.359   6.751 -0.0960  0.4077  1.0161
   67MOL   H27133403   5.522   1.331   6.605 -0.2317  1.6513 -1.9589
   67MOL   H27233404   5.675   1.430   6.721 -0.5123 -2.0101 -1.1024
   67MOL   H27333405   5.642   1.545   6.608  3.1889 -3.9477 -0.8142
   67MOL   H27433406   5.651   1.670   6.816 -0.1467  0.1954 -0.0134
   67MOL   H27533407   5.492   1.665   6.746  0.6299  0.0565 -1.9739
   67MOL   H27633408   5.543   1.560   6.886  0.7147 -0.7344 -0.3780
   67MOL   C27733409   4.835   1.602   6.806 -0.2242  0.0659 -0.4686
   67MOL   C27833410   4.898   1.502   6.901 -0.3375 -0.1177 -0.0333
   67MOL   O27933411   4.990   1.563   6.989  0.7729  0.3880 -0.1929
   67MOL   C28033412   5.092   1.475   7.035  0.4804 -0.0507 -0.7694
   67MOL   C28133413   5.199   1.548   7.120 -0.1690 -0.0364  0.4951
   67MOL   C28233414   5.264   1.673   7.046 -0.0424 -0.0857 -0.7094
   67MOL   C28333415   5.348   1.784   7.131 -0.2849  0.5643  0.3759
   67MOL   C28433416   5.450   1.853   7.038 -0.1630 -0.1969 -0.0297
   67MOL   C28533417   5.514   1.973   7.106 -0.7695 -0.2769  0.7251
   67MOL   H28633418   4.786   1.685   6.857  0.9968 -0.2203  1.2091
   67MOL   H28733419   4.752   1.543   6.766 -0.5814 -1.4449  2.4035
   67MOL   H28833420   4.948   1.421   6.847  0.3126 -0.0841  0.5174
   67MOL   H28933421   5.142   1.424   6.953  1.2273 -0.0995 -0.2880
   67MOL   H29033422   5.048   1.401   7.101  0.6479 -1.7076 -2.4671
   67MOL   H29133423   5.281   1.482   7.149  0.6049  0.0936 -1.3181
   67MOL   H29233424   5.158   1.583   7.215  2.0623 -0.0676  1.5067
   67MOL   H29333425   5.335   1.639   6.971  0.1863  1.2733 -1.1328
   67MOL   H29433426   5.191   1.724   6.982 -0.1206 -0.0554 -0.5981
   67MOL   H29533427   5.270   1.849   7.168 -2.7118 -1.9806 -0.1168
   67MOL   H29633428   5.417   1.760   7.212 -0.6400  1.4236  0.9304
   67MOL   H29733429   5.523   1.783   6.997 -1.5522 -2.6260  1.5154
   67MOL   H29833430   5.401   1.894   6.950 -0.2834 -3.2965 -1.4729
   67MOL   H29933431   5.435   2.046   7.127 -1.8850 -1.3823  0.4075
   67MOL   H30033432   5.560   1.949   7.202  0.6716  2.1066  0.6792
   67MOL   H30133433   5.590   2.014   7.040 -0.9478  1.3901  1.5214
   67MOL   C30233434   4.779   1.442   6.983 -0.1216  0.2204 -0.2764
   67MOL   C30333435   4.703   1.319   6.942  0.4111  0.9999  0.9966
   67MOL   O30433436   4.580   1.312   7.014 -0.1353  0.5351 -0.1558
   67MOL   C30533437   4.474   1.376   6.951  0.1240 -0.1180 -0.1652
   67MOL   C30633438   4.360   1.398   7.047  0.3032 -0.4785 -0.2395
   67MOL   C30733439   4.388   1.503   7.149  0.1398 -0.5617  0.7772
   67MOL   C30833440   4.295   1.502   7.267 -0.2053 -0.3006 -0.3986
   67MOL   C30933441   4.265   1.638   7.331  0.1980  0.0692 -0.1103
   67MOL   C31033442   4.177   1.737   7.252  0.0871 -0.9985 -0.1628
   67MOL   H31133443   4.806   1.417   7.085  0.3042 -1.4150 -0.7723
   67MOL   H31233444   4.703   1.519   6.999 -0.3300  0.4612 -2.2875
   67MOL   H31333445   4.690   1.329   6.834  1.6780 -0.7741  0.6576
   67MOL   H31433446   4.439   1.299   6.882  1.8555 -2.0162  1.0133
   67MOL   H31533447   4.502   1.458   6.885 -0.4523 -1.8398 -2.6497
   67MOL   H31633448   4.330   1.306   7.096 -2.9436  0.9270  0.5652
   67MOL   H31733449   4.270   1.431   6.995  0.1584  0.2954  0.4778
   67MOL   H31833450   4.491   1.513   7.184  0.1299 -1.7720  1.1650
   67MOL   H31933451   4.368   1.597   7.097  1.9231 -0.5008  0.1461
   67MOL   H32033452   4.198   1.471   7.227 -0.2024 -0.7246 -0.0705
   67MOL   H32133453   4.333   1.434   7.343 -0.6987  0.0596  0.1767
   67MOL   H32233454   4.222   1.617   7.429  0.6202 -0.8892 -0.1233
   67MOL   H32333455   4.362   1.685   7.345  0.0646  0.5736 -0.8510
   67MOL   H32433456   4.192   1.728   7.145  0.5755 -1.7311 -0.0366
   67MOL   H32533457   4.071   1.720   7.271  0.3374 -2.1271  0.2428
   67MOL   H32633458   4.205   1.841   7.271 -3.5909  0.0615 -0.2976
   67MOL   C32733459   4.782   1.178   6.951 -1.0213 -0.1903 -0.0878
   67MOL   C32833460   4.735   1.083   6.846 -0.4024 -1.0729 -0.0375
   67MOL   O32933461   4.830   1.084   6.735  0.3702 -0.4605  0.3840
   67MOL   C33033462   4.795   1.172   6.622  0.5526  0.0963 -0.4458
   67MOL   C33133463   4.902   1.165   6.515 -0.1499 -0.1941  0.0957
   67MOL   C33233464   4.913   1.029   6.434  0.1283  0.1330 -0.4130
   67MOL   C33333465   5.030   0.933   6.469 -0.3687 -0.3158  0.2388
   67MOL   C33433466   5.058   0.803   6.386  0.2697  0.6214 -0.3511
   67MOL   C33533467   4.939   0.726   6.318  0.0568 -0.9541 -0.3538
   67MOL   H33633468   4.758   1.143   7.051 -2.0294 -0.1136 -0.3024
   67MOL   H33733469   4.889   1.201   6.956 -0.8217 -0.8251 -1.1140
   67MOL   H33833470   4.632   1.104   6.818 -0.0208 -1.0777 -1.4899
   67MOL   H33933471   4.775   1.270   6.664  0.6114 -1.2504  2.8811
   67MOL   H34033472   4.708   1.126   6.573  0.8961 -0.1618 -0.8146
   67MOL   H34133473   5.004   1.183   6.549 -0.0565  3.3445 -1.8547
   67MOL   H34233474   4.872   1.240   6.442 -1.7350  0.4214  1.3489
   67MOL   H34333475   4.820   0.974   6.425  0.3167 -0.7629  2.7343
   67MOL   H34433476   4.922   1.056   6.329 -1.3619  0.3627 -0.4929
   67MOL   H34533477   5.118   0.997   6.465 -0.5163  0.0564  2.6418
   67MOL   H34633478   5.022   0.893   6.570  2.2754 -2.7963 -0.4767
   67MOL   H34733479   5.132   0.823   6.309 -0.0902  0.1095 -0.8322
   67MOL   H34833480   5.110   0.743   6.461  0.5384 -1.1965 -1.9618
   67MOL   H34933481   4.886   0.776   6.237 -0.3350  0.5901  0.8366
   67MOL   H35033482   4.978   0.635   6.272 -0.1110 -0.3948 -1.6155
   67MOL   H35133483   4.869   0.701   6.398  0.0181  0.4133  0.0435
   67MOL   C35233484   4.745   0.932   6.892  0.2001 -0.0278  0.1528
   67MOL   C35333485   4.640   0.889   6.996 -0.1679  1.4109 -0.0602
   67MOL   O35433486   4.687   0.760   7.032 -0.2381 -0.1281 -0.3338
   67MOL   C35533487   4.760   0.746   7.157  0.1530 -0.2700  0.2375
   67MOL   C35633488   4.791   0.599   7.185 -1.0215  0.2227 -0.8109
   67MOL   C35733489   4.667   0.503   7.162  0.1252  0.3461  0.6539
   67MOL   C35833490   4.695   0.350   7.194  0.0836  0.4299  0.1240
   67MOL   C35933491   4.560   0.274   7.190  0.1257  0.6200  0.7391
   67MOL   C36033492   4.516   0.244   7.046  0.1374  0.3000 -0.6703
   67MOL   H36133493   4.741   0.861   6.810 -0.7350 -0.0027  0.1649
   67MOL   H36233494   4.846   0.924   6.932 -0.3227  1.9632  1.9882
   67MOL   H36333495   4.634   0.957   7.081 -0.7677 -0.2897  1.2899
   67MOL   H36433496   4.697   0.770   7.243 -0.9507 -0.7231 -0.4378
   67MOL   H36533497   4.841   0.818   7.147 -1.6145  1.6607 -0.5965
   67MOL   H36633498   4.844   0.583   7.279  1.7619  0.4798 -2.2762
   67MOL   H36733499   4.870   0.580   7.111  0.1377  1.4538  0.0911
   67MOL   H36833500   4.596   0.545   7.233  0.3860 -0.0566  1.1482
   67MOL   H36933501   4.626   0.524   7.063  1.2059 -1.0247 -0.1044
   67MOL   H37033502   4.762   0.309   7.118 -1.1590  1.6168 -1.6524
   67MOL   H37133503   4.744   0.340   7.291 -0.4414  2.9300  0.6646
   67MOL   H37233504   4.563   0.182   7.248 -1.2824  0.3139  0.3398
   67MOL   H37333505   4.486   0.331   7.245 -1.4997 -1.4972  0.8050
   67MOL   H37433506   4.447   0.160   7.042  2.2205 -1.5450  0.6193
   67MOL   H37533507   4.466   0.332   7.005 -0.0108  0.0870 -0.9480
   67MOL   H37633508   4.598   0.226   6.977 -0.2236  0.2771 -1.0957
   67MOL   C37733509   4.499   0.870   6.932 -0.5141 -0.5010 -0.3026
   67MOL   C37833510   4.389   0.866   7.042 -0.6145  0.1480  0.2585
   67MOL   O37933511   4.277   0.780   7.009  0.2105  0.0120 -0.1025
   67MOL   C38033512   4.293   0.640   7.037  0.0257  0.3489  0.1849
   67MOL   C38133513   4.155   0.573   7.043 -0.2424 -0.0123  0.2169
   67MOL   C38233514   4.154   0.423   7.036 -0.2797  0.4313 -1.0370
   67MOL   C38333515   4.152   0.353   7.177  0.1598  0.3517  0.8121
   67MOL   C38433516   4.021   0.356   7.257 -0.4938  0.3229 -0.3901
   67MOL   C38533517   4.020   0.254   7.364 -0.0389 -0.1679  0.7883
   67MOL   H38633518   4.466   0.941   6.857  0.7374 -2.1489 -2.4697
   67MOL   H38733519   4.478   0.781   6.872 -1.3212  1.0749 -2.3911
   67MOL   H38833520   4.424   0.828   7.139 -1.1035 -1.0883 -0.0439
   67MOL   H38933521   4.352   0.626   7.128  0.9233 -0.4014 -0.4990
   67MOL   H39033522   4.340   0.590   6.952  0.8277  0.2536  0.6790
   67MOL   H39133523   4.094   0.605   6.958 -0.3303 -0.3006  0.1703
   67MOL   H39233524   4.112   0.598   7.140  2.8569 -2.2243  2.2815
   67MOL   H39333525   4.070   0.390   6.976 -2.1448  2.0409  0.5929
   67MOL   H39433526   4.238   0.386   6.978 -1.0226 -0.1480 -1.7421
   67MOL   H39533527   4.168   0.245   7.168  0.1703  0.2803  1.7074
   67MOL   H39633528   4.240   0.375   7.236  0.5789 -0.6699  0.5737
   67MOL   H39733529   4.013   0.457   7.297  0.4133 -0.6233  2.3537
   67MOL   H39833530   3.935   0.329   7.197 -1.0746 -2.7498  1.7334
   67MOL   H39933531   4.021   0.153   7.324  0.1598 -1.1764  3.2811
   67MOL   H40033532   4.107   0.270   7.427 -0.1469  2.0177  0.4210
   67MOL   H40133533   3.928   0.260   7.423 -0.0778 -2.0258  0.9557
   67MOL   C40233534   4.321   1.001   7.057 -0.0030 -0.2750  0.2572
   67MOL   C40333535   4.243   1.003   7.195  0.3504 -0.5901  0.3066
   67MOL   O40433536   4.152   1.109   7.198  0.0886  0.4164 -0.3324
   67MOL   C40533537   4.013   1.072   7.170 -0.6455 -0.1033 -0.0365
   67MOL   C40633538   3.934   1.148   7.274  0.6092 -0.1219  0.4705
   67MOL   C40733539   3.916   1.303   7.239 -0.2125 -0.0090 -0.7132
   67MOL   C40833540   3.852   1.368   7.356 -0.7077 -0.0988 -0.1400
   67MOL   C40933541   3.773   1.492   7.314  0.5681  0.5083 -0.5498
   67MOL   C41033542   3.696   1.545   7.430  0.4255  0.0026  0.1651
   67MOL   H41133543   4.252   1.017   6.974  0.2559 -0.2848  0.0390
   67MOL   H41233544   4.396   1.080   7.052  0.1869 -0.5012 -0.7929
   67MOL   H41333545   4.194   0.906   7.206 -1.2907  0.3428  1.3260
   67MOL   H41433546   3.992   0.967   7.191  1.3047 -0.5431 -0.2336
   67MOL   H41533547   3.976   1.101   7.071  2.0953  1.0328 -0.7630
   67MOL   H41633548   3.974   1.131   7.374 -2.1625  1.2680  1.9008
   67MOL   H41733549   3.836   1.100   7.284  1.8742 -2.6647  0.9065
   67MOL   H41833550   4.008   1.355   7.214  0.5169 -0.9917 -0.1402
   67MOL   H41933551   3.853   1.316   7.151 -0.2324 -1.5221 -0.9416
   67MOL   H42033552   3.790   1.292   7.404 -1.4782  1.1871  0.9619
   67MOL   H42133553   3.930   1.395   7.428 -1.2533 -2.9643  1.6028
   67MOL   H42233554   3.847   1.567   7.287  2.4377 -0.9282  0.4397
   67MOL   H42333555   3.699   1.483   7.235 -0.4840 -2.7669  0.7347
   67MOL   H42433556   3.632   1.471   7.478  0.3939  0.1277  0.3140
   67MOL   H42533557   3.758   1.602   7.499 -0.2329 -0.1078  0.8585
   67MOL   H42633558   3.619   1.617   7.401 -0.4154 -0.2700  1.6891
   67MOL   C42733559   4.328   1.028   7.325 -0.0014 -0.0745  0.1226
   67MOL   C42833560   4.247   1.007   7.456 -0.0826  0.0955  0.0810
   67MOL   O42933561   4.197   0.874   7.454  0.3521  0.7828  0.4240
   67MOL   C43033562   4.058   0.858   7.498 -0.5561 -0.0492  1.1065
   67MOL   C43133563   3.992   0.743   7.433  0.3536 -0.6826  0.0518
   67MOL   C43233564   3.844   0.723   7.478 -0.0779 -0.2332  0.5611
   67MOL   C43333565   3.775   0.595   7.434 -0.3102 -0.3974 -0.3631
   67MOL   C43433566   3.705   0.597   7.299 -0.1844 -0.3512  0.3127
   67MOL   C43533567   3.616   0.473   7.276 -0.5493  0.1660 -0.0754
   67MOL   H43633568   4.416   0.963   7.329 -0.1305 -0.2616 -0.0700
   67MOL   H43733569   4.370   1.128   7.327  0.7993 -0.4214  1.0355
   67MOL   H43833570   4.167   1.080   7.449  0.7599  1.0472  0.3617
   67MOL   H43933571   4.006   0.949   7.469 -2.9564 -1.2810  1.4422
   67MOL   H44033572   4.060   0.850   7.606  2.0684 -0.9270  1.0307
   67MOL   H44133573   4.055   0.661   7.464 -0.7701 -1.7201 -0.3561
   67MOL   H44233574   4.006   0.744   7.325  3.0390 -0.8380  0.3669
   67MOL   H44333575   3.841   0.708   7.586 -0.9387 -2.3473  0.2634
   67MOL   H44433576   3.786   0.813   7.459 -0.4212 -0.9519 -1.9981
   67MOL   H44533577   3.836   0.505   7.445  0.1591 -0.0187  0.2374
   67MOL   H44633578   3.705   0.567   7.513 -0.5642 -0.1205 -0.4886
   67MOL   H44733579   3.650   0.691   7.286 -0.2950 -0.5086 -0.3998
   67MOL   H44833580   3.782   0.609   7.223  0.0862  0.0086  0.6363
   67MOL   H44933581   3.674   0.385   7.302 -2.2750 -0.8920  0.3189
   67MOL   H45033582   3.525   0.485   7.336 -0.2596  1.7306  0.0753
   67MOL   H45133583   3.601   0.470   7.168 -1.2933 -0.7601  0.0385
   67MOL   C45233584   4.327   1.019   7.589 -0.1890 -1.0245  0.1522
   67MOL   C45333585   4.236   1.085   7.701 -0.7589  0.7008 -0.9523
   67MOL   O45433586   4.218   1.223   7.661  0.1031 -0.1195  0.6776
   67MOL   C45533587   4.098   1.280   7.703 -0.5415 -0.0118 -0.4681
   67MOL   C45633588   4.095   1.425   7.669  0.1177 -0.3782  0.0390
   67MOL   C45733589   3.967   1.500   7.720  0.6530  0.0255  0.3130
   67MOL   C45833590   3.957   1.646   7.684  0.1645 -0.2640 -0.6273
   67MOL   C45933591   4.057   1.738   7.757 -0.0224  0.1384  0.1325
   67MOL   C46033592   4.049   1.880   7.704  0.1393  0.6209 -0.5676
   67MOL   H46133593   4.372   0.931   7.633  2.9989 -1.4487 -3.6343
   67MOL   H46233594   4.411   1.085   7.568 -0.1822 -0.6924  1.1954
   67MOL   H46333595   4.142   1.029   7.703 -0.3282  0.0041  0.0350
   67MOL   H46433596   4.103   1.273   0.035 -2.0957  1.6636 -0.2614
   67MOL   H46533597   4.009   1.226   7.673 -1.1513 -0.0977  1.4208
   67MOL   H46633598   4.120   1.440   7.564 -1.3765  0.0223 -0.2739
   67MOL   H46733599   4.181   1.469   7.719 -0.6321  1.0413  0.1322
   67MOL   H46833600   3.879   1.448   7.682  0.9182  1.3509 -2.2290
   67MOL   H46933601   3.952   1.484   0.049  0.2406 -1.8787 -0.0254
   67MOL   H47033602   3.978   1.651   7.577  0.8004  0.7066 -0.4615
   67MOL   H47133603   3.854   1.676   7.704  0.4209  0.2150 -0.0378
   67MOL   H47233604   4.010   1.733   0.078  0.4466 -0.0390  0.3510
   67MOL   H47333605   4.158   1.697   7.756 -0.1992 -0.2841 -0.0633
   67MOL   H47433606   3.945   1.910   7.693 -0.3697 -0.6604  0.6357
   67MOL   H47533607   4.112   1.951   7.758  0.4420  0.7828 -1.1343
   67MOL   H47633608   4.087   1.874   7.602  2.5277 -2.0352  0.4058
   67MOL   C47733609   4.312   1.082   0.058  0.7561  0.6765 -1.3357
   67MOL   C47833610   4.240   0.995   0.161  0.1660  0.8433  0.5560
   67MOL   O47933611   4.216   0.868   0.115 -0.3953 -0.2686 -0.2431
   67MOL   C48033612   4.161   0.779   0.211  0.6430  0.1748 -0.6135
   67MOL   C48133613   4.130   0.641   0.156  0.7509  0.2714  0.5822
   67MOL   C48233614   4.005   0.640   0.060  0.1002  0.3499  0.1517
   67MOL   C48333615   3.981   0.506   7.760  1.1350  0.1234 -0.5220
   67MOL   C48433616   3.967   0.377   0.071  0.1203  0.0381  1.0561
   67MOL   C48533617   3.948   0.260   7.756  0.2928  0.7717  0.5624
   67MOL   H48633618   4.413   1.047   0.038  0.2452  0.2290 -3.1327
   67MOL   H48733619   4.325   1.187   0.084 -0.1339  0.2731  0.8625
   67MOL   H48833620   4.302   0.990   0.251  0.7791 -0.5579  0.0493
   67MOL   H48933621   4.071   0.824   0.251 -0.4591 -2.8867  0.4282
   67MOL   H49033622   4.232   0.767   0.293 -1.4889  0.5263  1.3240
   67MOL   H49133623   4.122   0.576   0.243  1.0145 -0.0713  0.3515
   67MOL   H49233624   4.214   0.599   0.100 -1.2046 -1.4483 -1.1812
   67MOL   H49333625   3.916   0.671   0.115 -0.9483 -0.7481 -0.8740
   67MOL   H49433626   4.018   0.708   7.753  0.2967  2.1905  1.6381
   67MOL   H49533627   3.894   0.513   7.694 -0.9814  0.9906  2.2727
   67MOL   H49633628   4.066   0.493   7.693  1.2538 -1.5688 -0.0597
   67MOL   H49733629   4.043   0.353   0.144  1.0620 -2.4760 -0.6769
   67MOL   H49833630   3.877   0.368   0.131 -1.3402  0.4613 -0.9923
   67MOL   H49933631   4.049   0.256   7.715  0.3206  0.4779  0.6575
   67MOL   H50033632   3.916   0.174   0.036 -1.4792  0.7565 -0.4277
   67MOL   H50133633   3.881   0.274   7.671 -0.0206 -0.1509  0.6591
   67MOL   H50233634   4.145   1.035   0.199 -1.7197 -2.0203 -1.0287
   68MOL     C133635   4.895   3.560   4.449  0.3765  0.3847  0.1616
   68MOL     C233636   4.973   3.465   4.346 -1.0478  0.8294  0.5936
   68MOL     O333637   4.940   3.329   4.375  0.0746  0.0861 -0.2259
   68MOL     C433638   4.845   3.275   4.279 -0.2143 -0.3557 -0.2327
   68MOL     C533639   4.810   3.127   4.312  0.7687 -0.6279 -0.2630
   68MOL     C633640   4.721   3.120   4.443  0.1505 -1.0870 -0.6008
   68MOL     C733641   4.713   2.970   4.491 -0.9903  0.1124  0.7106
   68MOL     C833642   4.602   2.964   4.594  0.0109  0.0852  0.1635
   68MOL     C933643   4.612   2.832   4.670  0.1007  0.2927 -0.6236
   68MOL    H1033644   4.789   3.538   4.451  0.5914 -0.5258  1.8567
   68MOL    H1133645   4.909   3.530   4.553 -2.2039 -1.1714  0.1045
   68MOL    H1233646   4.949   3.492   4.243 -0.8245  0.4073  0.4311
   68MOL    H1333647   4.893   3.280   4.182 -1.9842 -1.0428 -1.1667
   68MOL    H1433648   4.759   3.336   4.251 -0.1734 -0.3805 -0.4096
   68MOL    H1533649   4.896   3.063   4.329  1.8007  0.7678 -0.1532
   68MOL    H1633650   4.753   3.091   4.226  1.2827 -2.1005  0.0082
   68MOL    H1733651   4.753   3.184   4.525 -2.0716 -1.2226  0.3866
   68MOL    H1833652   4.625   3.166   4.421  1.8371  1.6292 -2.7384
   68MOL    H1933653   4.693   2.903   4.407 -0.5394 -1.1080  1.5737
   68MOL    H2033654   4.807   2.944   4.540 -1.3434 -0.2978  1.1742
   68MOL    H2133655   4.507   2.986   4.545  1.2757  1.6169 -1.7135
   68MOL    H2233656   4.614   3.039   4.672  1.3864  0.6383 -0.5671
   68MOL    H2333657   4.525   2.815   4.733  0.1223  1.0833 -0.3726
   68MOL    H2433658   4.613   2.747   4.602  1.3294  0.5805 -0.9931
   68MOL    H2533659   4.700   2.822   4.734 -1.7743 -3.5184  1.5027
   68MOL    H2633660   4.906   3.666   4.424 -1.9354  0.5956 -0.0232
   68MOL    C2733661   5.129   3.477   4.361  0.0617  0.5534 -0.0338
   68MOL    C2833662   5.211   3.407   4.250 -0.3970  0.8484  0.5194
   68MOL    O2933663   5.330   3.487   4.225 -0.0997  0.6103 -0.4607
   68MOL    C3033664   5.322   3.553   4.098 -0.5828 -1.0707 -0.0463
   68MOL    C3133665   5.460   3.622   4.085  0.4373  0.3174  0.2573
   68MOL    C3233666   5.576   3.528   4.071 -0.6172  0.4670 -0.4818
   68MOL    C3333667   5.713   3.593   4.052 -0.0179 -0.2940  0.1010
   68MOL    C3433668   5.804   3.499   3.973  0.4685 -0.5689 -0.7222
   68MOL    C3533669   5.949   3.549   3.977  0.0345 -0.5136  0.4048
   68MOL    H3633670   5.157   3.581   4.371 -1.1052  0.8643  0.0711
   68MOL    H3733671   5.148   3.436   4.460 -1.5740  1.1402  0.5385
   68MOL    H3833672   5.141   3.408   4.167 -1.2670 -2.9506  1.1365
   68MOL    H3933673   5.240   3.625   4.096 -0.9707 -1.5159 -1.1026
   68MOL    H4033674   5.303   3.477   4.022 -1.3954  0.6006 -1.5570
   68MOL    H4133675   5.474   3.698   4.161  0.4336  2.6027 -1.9842
   68MOL    H4233676   5.475   3.670   3.988  0.9760 -2.4425 -1.1109
   68MOL    H4333677   5.579   3.466   4.160 -0.8970  2.3923  0.8793
   68MOL    H4433678   5.551   3.463   3.986  2.2879 -0.2913 -0.8418
   68MOL    H4533679   5.701   3.691   4.006 -0.2410  0.9581  2.7269
   68MOL    H4633680   5.750   3.618   4.151  3.2293  1.5477 -1.5180
   68MOL    H4733681   5.806   3.400   4.018  2.1836  0.8554  2.5238
   68MOL    H4833682   5.765   3.488   3.871  1.1699  0.1229 -1.0694
   68MOL    H4933683   5.965   3.609   3.888 -2.2812  0.9569  0.9411
   68MOL    H5033684   5.991   3.581   4.073 -0.7817  0.9691  0.2660
   68MOL    H5133685   6.018   3.466   3.961 -0.2336 -0.6219 -0.1740
   68MOL    C5233686   5.255   3.261   4.283  0.5702  0.8001 -0.6124
   68MOL    C5333687   5.290   3.185   4.154 -0.0302 -0.3607 -0.3012
   68MOL    O5433688   5.330   3.050   4.174 -0.5094 -0.2784  0.3951
   68MOL    C5533689   5.444   3.014   4.252  0.1568 -0.5659 -0.2244
   68MOL    C5633690   5.473   2.868   4.234 -0.3104  0.0283 -0.2709
   68MOL    C5733691   5.591   2.811   4.315  0.6736  0.6783  0.0598
   68MOL    C5833692   5.631   2.673   4.273  0.2882 -0.7973 -0.1977
   68MOL    C5933693   5.770   2.632   4.324  0.1028  0.0096 -0.0309
   68MOL    C6033694   5.807   2.509   4.252  0.0135  0.1842 -0.3291
   68MOL    H6133695   5.171   3.207   4.328 -0.6368  1.5256 -1.9380
   68MOL    H6233696   5.343   3.266   4.347  1.8140 -0.2648 -2.1956
   68MOL    H6333697   5.364   3.238   4.093 -0.6104 -0.7712 -1.3726
   68MOL    H6433698   5.420   3.033   4.357  0.4720  1.9539 -0.5746
   68MOL    H6533699   5.524   3.080   4.219 -1.0527  1.4184  0.7336
   68MOL    H6633700   5.477   2.848   4.127  1.5708 -1.6649  0.0837
   68MOL    H6733701   5.388   2.810   4.268 -0.0975 -0.1709 -0.0753
   68MOL    H6833702   5.680   2.873   4.313  0.3814  1.1987  1.8792
   68MOL    H6933703   5.564   2.812   4.421  1.0473 -0.5352  0.1685
   68MOL    H7033704   5.560   2.599   4.309  0.1568 -1.9559 -2.6828
   68MOL    H7133705   5.626   2.654   4.165  0.2930 -1.9978  0.0072
   68MOL    H7233706   5.851   2.699   4.297  0.3331  0.3426  1.4299
   68MOL    H7333707   5.772   2.638   4.433 -0.9513  0.8121 -0.0476
   68MOL    H7433708   5.792   2.525   4.145  1.6680 -0.9410 -0.7564
   68MOL    H7533709   5.909   2.477   4.274 -0.8847 -2.5852 -0.0443
   68MOL    H7633710   5.741   2.430   4.285  0.6670  0.4509  1.6726
   68MOL    C7733711   5.153   3.165   4.070 -0.3945 -0.5509 -0.6490
   68MOL    C7833712   5.189   3.105   3.936  0.3767 -0.0938  0.2357
   68MOL    O7933713   5.257   3.207   3.876  0.2090  0.2636 -0.1177
   68MOL    C8033714   5.360   3.176   3.789 -0.7946 -0.9221  0.0985
   68MOL    C8133715   5.413   3.306   3.716 -0.2445 -0.0593  0.3294
   68MOL    C8233716   5.541   3.271   3.645  0.3350 -0.0223  0.5662
   68MOL    C8333717   5.596   3.392   3.570 -0.6748 -0.9542  0.1955
   68MOL    C8433718   5.729   3.367   3.503  0.4812  0.2356 -0.5468
   68MOL    C8533719   5.850   3.344   3.590  0.1921  0.3384  0.2289
   68MOL    H8633720   5.098   3.258   4.062  1.0871  0.5181  1.0658
   68MOL    H8733721   5.092   3.094   4.125  0.2264  0.4445  1.3967
   68MOL    H8833722   5.249   3.015   3.940 -0.2472 -0.5363 -0.3037
   68MOL    H8933723   5.328   3.106   3.712 -0.7202  1.6143 -2.3669
   68MOL    H9033724   5.445   3.134   3.842  1.0539  0.9152 -1.2770
   68MOL    H9133725   5.431   3.386   3.787 -1.3852  0.9099 -0.4511
   68MOL    H9233726   5.334   3.343   3.650 -1.3473 -2.0200  0.5057
   68MOL    H9333727   5.608   3.231   3.721  2.2055 -0.3571 -1.2334
   68MOL    H9433728   5.532   3.184   3.580  0.9362 -0.5728  1.2120
   68MOL    H9533729   5.513   3.415   3.504  0.2816  1.1797 -0.2864
   68MOL    H9633730   5.611   3.474   3.640  0.4098 -2.4017  1.7094
   68MOL    H9733731   5.719   3.271   3.450  2.4618  0.2688 -1.0194
   68MOL    H9833732   5.762   3.433   3.423 -0.3914  1.6779  0.2722
   68MOL    H9933733   5.888   3.434   3.639 -1.5494 -0.2378  2.7240
   68MOL   H10033734   5.829   3.281   3.677  0.4756  0.8463  0.6717
   68MOL   H10133735   5.936   3.296   3.544 -0.5935 -0.4984 -0.3676
   68MOL   C10233736   5.056   3.080   3.857 -0.5950 -0.8209  0.0087
   68MOL   C10333737   5.029   2.935   3.840  0.0535  0.1731  0.6746
   68MOL   O10433738   5.003   2.907   3.975 -0.6595  0.6274 -0.2376
   68MOL   C10533739   5.064   2.786   4.033  0.3346 -0.2225 -0.2254
   68MOL   C10633740   5.040   2.782   4.180 -0.0252  0.4538  0.3103
   68MOL   C10733741   4.906   2.710   4.215  0.3475  0.5188  0.1374
   68MOL   C10833742   4.904   2.673   4.369  0.1325 -0.3220  1.1002
   68MOL   C10933743   4.788   2.585   4.396 -0.2728  0.2695 -0.0786
   68MOL   C11033744   4.779   2.543   4.548 -0.2449 -0.2226  1.1044
   68MOL   H11133745   4.966   3.135   3.887 -0.4186 -1.1187  1.1168
   68MOL   H11233746   5.064   3.121   3.757 -4.1432  1.1182  0.4447
   68MOL   H11333747   5.119   2.887   3.801  1.1580  2.2946  0.5880
   68MOL   H11433748   5.172   2.798   4.026  0.2997  0.9359  1.1124
   68MOL   H11533749   5.026   2.693   3.990  2.6822 -0.7964 -1.1582
   68MOL   H11633750   5.048   2.884   4.215 -0.0184  0.4991  0.1768
   68MOL   H11733751   5.126   2.732   4.224  0.1028  0.7262  0.3698
   68MOL   H11833752   4.827   2.771   4.171  0.7747  0.6169 -0.5045
   68MOL   H11933753   4.891   2.612   4.169  1.0147 -0.7988  2.6284
   68MOL   H12033754   4.999   2.628   4.397 -0.3681 -1.2941  1.2522
   68MOL   H12133755   4.914   2.768   4.421  1.6988 -0.3842  0.9270
   68MOL   H12233756   4.703   2.652   4.385  0.4481  0.9431 -1.7225
   68MOL   H12333757   4.781   2.489   4.345 -1.1382  1.2504 -1.8328
   68MOL   H12433758   4.838   2.454   4.571  0.1898 -0.6664 -1.6129
   68MOL   H12533759   4.818   2.624   4.610  0.2684 -0.7111  1.4266
   68MOL   H12633760   4.673   2.529   4.571 -0.6807 -0.6831 -1.0958
   68MOL   C12733761   4.899   2.902   3.758 -0.4250  0.1136 -0.0056
   68MOL   C12833762   4.886   2.752   3.709  0.2824  0.5510 -0.0245
   68MOL   O12933763   4.967   2.726   3.591 -0.1938 -0.2139  0.0467
   68MOL   C13033764   5.115   2.716   3.599  0.2301 -0.4748 -1.2037
   68MOL   C13133765   5.174   2.645   3.477  0.2679 -0.1809 -0.3330
   68MOL   C13233766   5.323   2.601   3.500 -0.3986  0.3474  0.6220
   68MOL   C13333767   5.383   2.511   3.387  0.5391  0.1088  0.3200
   68MOL   C13433768   5.522   2.454   3.416 -0.5941  0.1042 -0.3428
   68MOL   C13533769   5.567   2.352   3.308 -0.2926 -0.5746 -0.3884
   68MOL   H13633770   4.809   2.933   3.811 -0.0254 -0.3127  0.9231
   68MOL   H13733771   4.909   2.967   3.670 -1.0879 -0.5337 -0.5724
   68MOL   H13833772   4.933   2.683   3.780 -0.7114  0.1112  0.2272
   68MOL   H13933773   5.152   2.670   3.690 -1.7944 -0.4492 -0.3480
   68MOL   H14033774   5.157   2.817   3.605 -2.0728  0.4625 -0.2308
   68MOL   H14133775   5.172   2.699   3.383  0.3472  0.8372  0.2452
   68MOL   H14233776   5.108   2.558   3.475  0.5571 -0.3884 -1.1126
   68MOL   H14333777   5.388   2.689   3.501 -2.4329  1.8952 -0.3519
   68MOL   H14433778   5.332   2.547   3.594 -1.0284  0.9914  1.0479
   68MOL   H14533779   5.321   2.423   3.369 -0.3109  1.3135 -2.9092
   68MOL   H14633780   5.381   2.568   3.294 -2.2665 -0.8754 -0.2578
   68MOL   H14733781   5.591   2.537   3.401 -1.3629  0.6391 -1.0045
   68MOL   H14833782   5.541   2.409   3.513  0.7276 -0.2531 -0.7536
   68MOL   H14933783   5.510   2.355   3.215  0.3636  0.5818 -0.7648
   68MOL   H15033784   5.669   2.362   3.271 -0.2974 -0.0875 -0.2783
   68MOL   H15133785   5.553   2.251   3.347  0.9920 -0.1524  1.2430
   68MOL   C15233786   4.738   2.708   3.680  0.0979 -1.2831 -0.7636
   68MOL   C15333787   4.640   2.707   3.802  0.0438  0.1818  0.6566
   68MOL   O15433788   4.594   2.830   3.833 -0.1878 -0.0118  0.3117
   68MOL   C15533789   4.579   2.861   3.970  0.0933 -0.5109  0.3311
   68MOL   C15633790   4.531   3.002   3.988 -0.4783 -0.9031 -0.5856
   68MOL   C15733791   4.622   3.110   3.923  0.9017  0.4313  0.1095
   68MOL   C15833792   4.584   3.249   3.957 -0.0020  0.2118  0.2022
   68MOL   C15933793   4.685   3.357   3.908  0.0579  0.4738 -0.5076
   68MOL   C16033794   4.651   3.495   3.941 -0.4853  0.0731 -0.7809
   68MOL   H16133795   4.703   2.766   3.595  1.8255 -0.1758 -0.7252
   68MOL   H16233796   4.751   2.611   3.631  0.0685 -0.8163 -1.7015
   68MOL   H16333797   4.704   2.669   3.881 -0.4438 -0.1008  0.9195
   68MOL   H16433798   4.674   2.847   4.021 -1.4170 -3.7897  2.3881
   68MOL   H16533799   4.508   2.795   4.019  1.9587 -1.5966  1.6562
   68MOL   H16633800   4.525   3.030   4.093 -0.7251  0.0915 -0.8521
   68MOL   H16733801   4.428   3.014   3.952 -0.5763  1.0664  0.2810
   68MOL   H16833802   4.723   3.100   3.963  0.5607 -1.7267  0.4741
   68MOL   H16933803   4.627   3.096   3.815  1.9189 -1.0944  0.3421
   68MOL   H17033804   4.480   3.261   3.927  0.1129 -0.6571 -0.5927
   68MOL   H17133805   4.578   3.263   4.065 -1.3439 -0.9118  0.2908
   68MOL   H17233806   4.792   3.346   3.927 -0.2329 -1.7896 -0.0308
   68MOL   H17333807   4.691   3.359   3.799  1.1271 -0.0596 -0.4623
   68MOL   H17433808   4.735   3.562   3.919  0.5046 -1.0441 -0.4202
   68MOL   H17533809   4.568   3.513   3.873 -2.0210 -1.3660  0.6836
   68MOL   H17633810   4.612   3.501   4.042 -1.9710  1.5160 -1.4050
   68MOL   C17733811   4.513   2.624   3.775  0.6420  0.1280  0.4466
   68MOL   C17833812   4.529   2.471   3.756  0.5732 -0.2660  0.0781
   68MOL   O17933813   4.484   2.403   3.879  0.1786  0.1912  0.4484
   68MOL   C18033814   4.576   2.411   3.985  0.4357 -0.3986  0.7114
   68MOL   C18133815   4.539   2.295   4.080 -0.2385  0.3358 -0.5941
   68MOL   C18233816   4.566   2.153   4.012  0.4235 -0.2940 -0.4073
   68MOL   C18333817   4.711   2.121   3.967 -0.7329  0.9531  0.2001
   68MOL   C18433818   4.704   1.987   3.895  0.3021 -0.0888 -0.0631
   68MOL   C18533819   4.842   1.957   3.829 -0.0486 -0.2665  0.7701
   68MOL   H18633820   4.438   2.647   3.851 -0.9190 -2.1321 -0.3519
   68MOL   H18733821   4.470   2.671   3.687  0.7576 -1.1420 -0.2970
   68MOL   H18833822   4.629   2.445   3.722  0.1218 -3.0163  0.7225
   68MOL   H18933823   4.570   2.508   4.035 -0.1386 -0.1842  0.2298
   68MOL   H19033824   4.680   2.405   3.955  0.7803 -0.1700  1.8154
   68MOL   H19133825   4.434   2.306   4.108  0.3385  0.6223  1.5148
   68MOL   H19233826   4.594   2.296   4.174  1.2535  3.8553 -1.4437
   68MOL   H19333827   4.539   2.086   4.094 -0.2675 -0.6794 -0.9523
   68MOL   H19433828   4.496   2.138   3.930  0.0683 -1.9779  0.1777
   68MOL   H19533829   4.747   2.193   3.894  1.3644  1.3786  1.5900
   68MOL   H19633830   4.786   2.121   4.047 -1.2247  0.0963  0.6734
   68MOL   H19733831   4.686   1.900   3.958 -3.5579  0.1054 -0.8094
   68MOL   H19833832   4.626   1.994   3.820  0.7364 -0.6411 -0.5656
   68MOL   H19933833   4.839   1.898   3.738 -1.3242  0.3852  0.3694
   68MOL   H20033834   4.901   2.042   3.794  1.5549 -1.1349  1.3308
   68MOL   H20133835   4.908   1.931   3.912  2.5389  0.5876 -0.9643
   68MOL   C20233836   4.431   2.413   3.652  0.3467  0.5313  0.1148
   68MOL   C20333837   4.467   2.281   3.595 -0.1191 -0.0656  0.4625
   68MOL   O20433838   4.590   2.304   3.521  0.0646 -0.5356 -0.2358
   68MOL   C20533839   4.684   2.198   3.512  0.4187 -0.0140  0.9769
   68MOL   C20633840   4.779   2.226   3.392 -0.1283 -0.3863  0.2953
   68MOL   C20733841   4.706   2.234   3.258  0.3182 -1.3472  0.5858
   68MOL   C20833842   4.786   2.277   3.126 -0.2587  1.0332 -0.5150
   68MOL   C20933843   4.700   2.278   3.002  0.4835 -0.5484 -0.2430
   68MOL   C21033844   4.787   2.313   2.882  0.1668  0.2590 -0.0702
   68MOL   H21133845   4.327   2.416   3.686 -0.7000  3.4899 -2.9594
   68MOL   H21233846   4.423   2.484   3.569  1.2067  0.3867 -0.0981
   68MOL   H21333847   4.491   2.218   3.680 -0.5318 -1.7614 -0.6704
   68MOL   H21433848   4.642   2.100   3.487  0.2175  0.6024 -1.2095
   68MOL   H21533849   4.741   2.197   3.605  1.0096 -0.2249  0.6230
   68MOL   H21633850   4.854   2.147   3.395 -0.6736 -0.8708  1.5284
   68MOL   H21733851   4.826   2.323   3.409 -1.5164 -0.3336  4.5670
   68MOL   H21833852   4.663   2.136   3.234 -0.5600 -0.5105 -1.3813
   68MOL   H21933853   4.618   2.297   3.264 -0.4021 -2.4646  2.1033
   68MOL   H22033854   4.833   2.376   3.125  3.0155 -0.4306  0.9146
   68MOL   H22133855   4.862   2.202   3.105 -0.6269 -0.0787  1.9345
   68MOL   H22233856   4.645   2.185   2.988  2.0275 -1.4171 -0.6554
   68MOL   H22333857   4.615   2.344   3.016  0.2599 -0.8368 -0.2462
   68MOL   H22433858   4.803   2.421   2.871 -0.8464  0.1938 -2.6465
   68MOL   H22533859   4.889   2.276   2.884 -0.0042 -0.2401 -0.5199
   68MOL   H22633860   4.742   2.276   2.790  0.2978  1.9399 -0.8302
   68MOL   C22733861   4.353   2.221   3.507 -0.1469 -0.1648 -0.1178
   68MOL   C22833862   4.236   2.165   3.592  0.1360 -0.1989  0.3481
   68MOL   O22933863   4.129   2.151   3.506 -0.6080 -0.3169  0.0634
   68MOL   C23033864   4.026   2.253   3.503  0.3857 -0.5209 -0.4300
   68MOL   C23133865   3.899   2.207   3.422 -0.2926 -0.5447  0.1246
   68MOL   C23233866   3.924   2.220   3.267 -0.1709 -0.4814  0.5160
   68MOL   C23333867   3.810   2.162   3.183  0.0029  0.6795 -0.0475
   68MOL   C23433868   3.803   2.221   3.043  0.4013  0.2017 -0.3192
   68MOL   C23533869   3.925   2.218   2.954 -0.5166 -0.0464 -0.5038
   68MOL   H23633870   4.321   2.291   3.430  1.0641  1.2559  0.6447
   68MOL   H23733871   4.380   2.133   3.448 -2.3789 -0.4259 -0.8008
   68MOL   H23833872   4.222   2.229   3.679  1.6046 -1.0030  1.1992
   68MOL   H23933873   4.054   2.352   3.466  3.2050 -1.7126 -1.5628
   68MOL   H24033874   3.990   2.275   3.604 -1.0578 -0.0623 -1.0330
   68MOL   H24133875   3.813   2.269   3.448  1.1608  1.6834 -0.3077
   68MOL   H24233876   3.861   2.111   3.458  0.1864 -0.9976 -0.5578
   68MOL   H24333877   3.957   2.321   3.245  1.7899 -1.3629 -0.7307
   68MOL   H24433878   4.014   2.166   3.235  0.3913  0.7267  0.0107
   68MOL   H24533879   3.829   2.055   3.174 -2.8089  0.1743 -0.4728
   68MOL   H24633880   3.718   2.168   3.242 -0.7918 -0.6190 -1.1413
   68MOL   H24733881   3.725   2.161   2.995 -1.8208  0.8128  2.3467
   68MOL   H24833882   3.761   2.322   3.046  1.6056  0.6713  1.2979
   68MOL   H24933883   4.005   2.286   2.983  1.5610 -1.6325 -2.3511
   68MOL   H25033884   3.974   2.121   2.962 -0.7370 -0.2451 -1.4433
   68MOL   H25133885   3.891   2.237   2.852  0.9632 -1.2822 -1.2577
   68MOL   C25233886   4.259   2.021   3.652 -0.6297  0.4634 -0.0655
   68MOL   C25333887   4.165   1.970   3.761  0.4415  0.2671 -0.3417
   68MOL   O25433888   4.210   1.837   3.806 -0.2474  0.5416  0.0487
   68MOL   C25533889   4.326   1.830   3.897  0.8976 -0.2250 -0.3107
   68MOL   C25633890   4.334   1.688   3.955  0.1992 -0.1824  0.5622
   68MOL   C25733891   4.427   1.677   4.074 -0.0671  0.0284 -0.1602
   68MOL   C25833892   4.349   1.683   4.204 -0.7457 -0.1163  0.0476
   68MOL   C25933893   4.446   1.642   4.325  0.5515  0.2314 -0.3664
   68MOL   C26033894   4.595   1.696   4.332  0.0266  0.2002  0.5883
   68MOL   H26133895   4.266   1.946   3.573  0.9135 -2.0967  2.4285
   68MOL   H26233896   4.356   2.028   3.702 -0.7028  1.4316 -0.0388
   68MOL   H26333897   4.154   2.032   3.849 -0.3667  0.3066 -0.4648
   68MOL   H26433898   4.319   1.898   3.982  0.6586 -0.8760  0.1962
   68MOL   H26533899   4.420   1.858   3.849  1.0655 -1.7335 -0.9008
   68MOL   H26633900   4.356   1.620   3.873 -2.3317  2.0048 -2.0541
   68MOL   H26733901   4.230   1.673   3.983 -0.3049 -2.5189 -2.3322
   68MOL   H26833902   4.483   1.583   4.062  0.9054  0.4852  0.7085
   68MOL   H26933903   4.504   1.752   4.060 -1.4000  1.1493 -1.6101
   68MOL   H27033904   4.315   1.786   4.205 -1.0683 -0.1934 -1.6096
   68MOL   H27133905   4.270   1.607   4.209  0.7335 -1.6268  1.4530
   68MOL   H27233906   4.394   1.666   4.417 -1.4070 -2.4033 -0.6964
   68MOL   H27333907   4.438   1.533   4.320 -2.5573  0.3744  0.1444
   68MOL   H27433908   4.587   1.804   4.345  1.5308  0.3540  0.2428
   68MOL   H27533909   4.661   1.656   4.410  2.3793  0.1338 -1.3952
   68MOL   H27633910   4.638   1.672   4.236  0.6297 -1.0061  1.1543
   68MOL   C27733911   4.020   1.942   3.713  0.5577  0.9254  0.1966
   68MOL   C27833912   3.921   1.906   3.827 -0.1100  0.0509  0.6493
   68MOL   O27933913   3.894   2.023   3.905  0.3612 -0.0762  0.2495
   68MOL   C28033914   3.885   1.983   4.042 -0.2627  0.3515 -0.6255
   68MOL   C28133915   4.024   2.009   4.105  0.4878 -0.1922 -0.5832
   68MOL   C28233916   4.019   1.997   4.262 -0.4097  0.6683 -0.6256
   68MOL   C28333917   4.154   2.035   4.310  0.2667  0.2024  0.2534
   68MOL   C28433918   4.155   2.049   4.460 -0.4009 -0.3599 -0.0736
   68MOL   C28533919   4.298   2.088   4.514  0.2919 -0.1278 -0.0025
   68MOL   H28633920   3.979   2.035   3.673  0.4150  1.3940  1.4070
   68MOL   H28733921   4.019   1.859   3.643  0.6715  1.4938 -0.4784
   68MOL   H28833922   3.964   1.825   3.885 -1.4837  0.3178  2.0787
   68MOL   H28933923   3.846   1.881   4.046  2.0886 -0.7334 -3.2522
   68MOL   H29033924   3.815   2.050   4.091  2.0866  0.8062  2.2631
   68MOL   H29133925   4.063   2.105   4.073  0.6985 -0.8107 -2.2318
   68MOL   H29233926   4.079   1.921   4.073  0.8407 -0.3795  0.5156
   68MOL   H29333927   3.946   2.067   4.303 -1.2770  0.3130 -1.5450
   68MOL   H29433928   3.996   1.898   4.301 -1.4333  0.7610 -0.9609
   68MOL   H29533929   4.228   1.956   4.291  1.5559  1.5433 -0.4040
   68MOL   H29633930   4.193   2.125   4.263 -0.6794 -0.0739 -1.1063
   68MOL   H29733931   4.083   2.126   4.486 -0.0130  0.1025 -0.3868
   68MOL   H29833932   4.123   1.957   4.510 -0.7126 -0.2073  0.0070
   68MOL   H29933933   4.366   2.003   4.503 -1.1928 -1.1890 -1.2027
   68MOL   H30033934   4.324   2.179   4.461  0.0884 -0.3223 -0.4427
   68MOL   H30133935   4.285   2.098   4.622  1.2273 -1.4681  0.2452
   68MOL   C30233936   3.779   1.867   3.774 -0.4753  0.3333  0.4555
   68MOL   C30333937   3.771   1.714   3.737  0.6912 -0.2244 -0.7484
   68MOL   O30433938   3.838   1.696   3.615  0.1368 -0.1750  0.8391
   68MOL   C30533939   3.891   1.565   3.593  0.1616 -0.3341  0.2361
   68MOL   C30633940   3.969   1.555   3.464 -0.2205  0.5474  0.7192
   68MOL   C30733941   4.031   1.420   3.433  0.3287  0.2686 -0.1473
   68MOL   C30833942   4.097   1.432   3.300 -0.5855  0.6292 -0.4601
   68MOL   C30933943   4.176   1.305   3.266 -0.5861 -0.0457 -0.2825
   68MOL   C31033944   4.096   1.177   3.240 -0.4041 -0.5171 -0.0813
   68MOL   H31133945   3.709   1.895   3.852  1.1957  1.7761  1.4847
   68MOL   H31233946   3.759   1.929   3.687 -1.5071  1.2246  1.3099
   68MOL   H31333947   3.812   1.649   3.814  0.0430  1.0206  0.6765
   68MOL   H31433948   3.822   1.481   3.602 -0.2696 -0.0010  0.0901
   68MOL   H31533949   3.958   1.548   3.677  0.5243 -1.0301 -0.1862
   68MOL   H31633950   4.034   1.642   3.453 -0.2349  0.3997 -0.5430
   68MOL   H31733951   3.900   1.567   3.381 -0.2570 -1.1763  0.4996
   68MOL   H31833952   4.100   1.393   3.512 -0.7135  0.5711  0.8754
   68MOL   H31933953   3.957   1.341   3.422 -0.1348  0.1898  3.0336
   68MOL   H32033954   4.014   1.465   3.237 -2.4442  0.2801  1.7234
   68MOL   H32133955   4.164   1.517   3.297  0.6358 -0.3270 -0.5896
   68MOL   H32233956   4.221   1.328   3.169  0.5054 -1.1199 -0.0460
   68MOL   H32333957   4.258   1.292   3.335  0.2186 -1.6070 -1.4894
   68MOL   H32433958   4.032   1.136   3.318 -1.0271  0.6892  0.0533
   68MOL   H32533959   4.037   1.206   3.153  0.2105 -2.4393 -1.1576
   68MOL   H32633960   4.167   1.098   3.216  0.2144 -0.5656  1.7789
   68MOL   C32733961   3.621   1.668   3.719 -0.6290 -0.1622 -0.4645
   68MOL   C32833962   3.546   1.630   3.847 -0.0379  1.1376  0.1886
   68MOL   O32933963   3.556   1.743   3.943 -0.3540 -0.0459  0.4520
   68MOL   C33033964   3.607   1.711   4.076  0.0334  0.3175 -0.5340
   68MOL   C33133965   3.561   1.812   4.178  0.1794  0.2092 -0.0451
   68MOL   C33233966   3.410   1.819   4.178  0.4778 -0.1478 -0.2324
   68MOL   C33333967   3.354   1.887   4.303 -0.6013  0.1189 -0.0301
   68MOL   C33433968   3.207   1.906   4.299 -0.1354 -0.0667  0.4845
   68MOL   C33533969   3.157   1.972   4.426  0.4510  0.4547 -0.0165
   68MOL   H33633970   3.621   1.578   3.657 -0.5013  0.6845 -1.7071
   68MOL   H33733971   3.561   1.741   3.664  0.7111  1.7256  0.5190
   68MOL   H33833972   3.600   1.543   3.883  0.6263  1.3442 -0.2957
   68MOL   H33933973   3.716   1.700   4.069 -0.1202 -2.5287  0.7597
   68MOL   H34033974   3.575   1.611   4.106  0.5017  0.2881 -0.1228
   68MOL   H34133975   3.589   1.910   4.141 -0.9890 -0.7046 -3.5684
   68MOL   H34233976   3.590   1.781   4.278  0.5741 -2.5410 -0.9618
   68MOL   H34333977   3.363   1.868   4.093 -1.6957 -0.8540  0.5408
   68MOL   H34433978   3.375   1.715   4.181  2.2154 -0.7747 -0.8002
   68MOL   H34533979   3.385   1.833   4.393  2.6969  0.0302 -1.1695
   68MOL   H34633980   3.393   1.988   4.307 -1.0697  0.3661 -1.3965
   68MOL   H34733981   3.176   1.955   4.207  1.0599 -1.6458 -0.8090
   68MOL   H34833982   3.168   1.805   4.287  1.0966 -0.5226  0.1773
   68MOL   H34933983   3.048   1.968   4.422  0.4862  1.1585 -2.0714
   68MOL   H35033984   3.200   1.930   4.517 -2.3506 -1.1692  0.5981
   68MOL   H35133985   3.190   2.076   4.421 -0.3336  0.6857 -0.4918
   68MOL   C35233986   3.401   1.595   3.821  0.6352 -0.6151  0.1805
   68MOL   C35333987   3.375   1.456   3.761  0.0056 -0.2370  0.2996
   68MOL   O35433988   3.372   1.480   3.618 -0.0856  0.5082 -0.5863
   68MOL   C35533989   3.441   1.374   3.541  0.3549 -0.9472 -0.0172
   68MOL   C35633990   3.436   1.406   3.399 -0.4828 -0.4287  0.1447
   68MOL   C35733991   3.498   1.542   3.375 -0.4458  0.2224 -0.4375
   68MOL   C35833992   3.497   1.577   3.229 -0.3805  0.5249  0.3613
   68MOL   C35933993   3.580   1.705   3.202  0.0413  0.4642  0.3752
   68MOL   C36033994   3.530   1.838   3.272 -0.3376 -0.0135 -0.2920
   68MOL   H36133995   3.343   1.603   3.913  0.6506 -3.1017  0.4374
   68MOL   H36233996   3.364   1.672   3.753  0.8239 -0.8070 -0.1438
   68MOL   H36333997   3.456   1.391   3.793  1.9904  2.9206  1.9863
   68MOL   H36433998   3.395   1.277   3.560 -0.3310 -0.1567  2.6557
   68MOL   H36533999   3.546   1.373   3.572  0.4472 -3.0564 -0.3588
   68MOL   H36634000   3.332   1.404   3.367 -0.9760 -1.4905  1.7545
   68MOL   H36734001   3.499   1.334   3.348  0.2495 -0.8196  1.5547
   68MOL   H36834002   3.457   1.624   3.434  2.7303  0.1555  1.9674
   68MOL   H36934003   3.603   1.539   3.404 -0.1521 -2.9071 -1.6151
   68MOL   H37034004   3.536   1.489   3.178 -0.4705  0.6968 -0.0035
   68MOL   H37134005   3.399   1.597   3.187 -1.0709 -3.4824 -0.1367
   68MOL   H37234006   3.686   1.702   3.225 -0.1921  2.2831  1.8544
   68MOL   H37334007   3.585   1.715   3.093 -0.1522 -2.1973  0.0999
   68MOL   H37434008   3.442   1.876   3.220 -1.2976 -0.8263  0.7019
   68MOL   H37534009   3.503   1.830   3.377 -0.9578 -4.2570 -0.6931
   68MOL   H37634010   3.600   1.921   3.270 -0.1191 -0.2273 -2.1148
   68MOL   C37734011   3.234   1.403   3.805 -0.1905  0.1448 -0.3219
   68MOL   C37834012   3.221   1.368   3.953 -0.1415 -0.4686 -0.1297
   68MOL   O37934013   3.317   1.262   3.970 -0.1834  0.3587 -0.1939
   68MOL   C38034014   3.400   1.266   4.085  0.0304 -0.4571  0.4986
   68MOL   C38134015   3.495   1.140   4.095  0.8180  0.2952  1.0417
   68MOL   C38234016   3.409   1.012   4.088  0.7902 -0.8928  0.4630
   68MOL   C38334017   3.480   0.875   4.128  0.1026  0.4308 -0.7717
   68MOL   C38434018   3.399   0.750   4.101 -0.0469  0.3243  0.0833
   68MOL   C38534019   3.282   0.733   4.207  0.2071  0.2088  0.8076
   68MOL   H38634020   3.154   1.470   3.777 -2.6350 -1.5772  2.2974
   68MOL   H38734021   3.204   1.313   3.752 -1.2647  2.0999 -3.1315
   68MOL   H38834022   3.249   1.453   4.015  1.4171  0.0426 -1.5013
   68MOL   H38934023   3.337   1.274   4.174  1.2171  2.2436  1.1372
   68MOL   H39034024   3.465   1.353   4.078 -1.3911  0.4401 -2.3907
   68MOL   H39134025   3.545   1.138   4.192  0.0791  1.0122  1.4441
   68MOL   H39234026   3.565   1.144   4.012  1.7680  0.1035  1.8223
   68MOL   H39334027   3.330   1.028   4.162 -0.9901  0.7254 -1.7319
   68MOL   H39434028   3.361   1.015   3.991  0.2920  0.4880  0.7339
   68MOL   H39534029   3.565   0.861   4.061  3.5177  4.1348  2.5101
   68MOL   H39634030   3.519   0.892   4.229  1.6504  2.8979 -1.7288
   68MOL   H39734031   3.362   0.752   3.999 -0.5758  1.5354  0.2879
   68MOL   H39834032   3.463   0.661   4.098 -0.8108 -0.2483  0.4879
   68MOL   H39934033   3.271   0.823   4.268 -1.0581  0.3261  0.4241
   68MOL   H40034034   3.193   0.709   4.148  2.4056 -1.3300 -2.0119
   68MOL   H40134035   3.306   0.653   4.276  0.8757 -1.1110 -0.9252
   68MOL   C40234036   3.073   1.321   3.982 -0.0920 -0.0821  0.0360
   68MOL   C40334037   3.051   1.248   4.116  0.5963 -0.8957 -0.0231
   68MOL   O40434038   2.945   1.151   4.105 -0.2174  0.3569 -0.6000
   68MOL   C40534039   2.991   1.026   4.058  0.7865 -0.1100  0.1217
   68MOL   C40634040   2.871   0.928   4.069  0.3681 -0.3108 -0.7584
   68MOL   C40734041   2.818   0.894   4.215 -0.9716  0.1875 -0.5945
   68MOL   C40834042   2.875   0.770   4.278 -0.2898 -0.1251 -0.2286
   68MOL   C40934043   2.821   0.729   4.422  0.0901 -1.1348 -0.0371
   68MOL   C41034044   2.861   0.599   4.484  0.1929  0.0201 -0.3786
   68MOL   H41134045   3.038   1.260   3.900 -0.4229 -2.6456  2.0264
   68MOL   H41234046   3.006   1.407   3.977 -1.0183 -0.7849  0.4919
   68MOL   H41334047   3.140   1.189   4.139 -0.3892 -2.6292 -0.5704
   68MOL   H41434048   3.077   0.984   4.109  0.5763  1.2901  1.6975
   68MOL   H41534049   3.025   1.051   3.958 -1.0578  2.2399  0.0170
   68MOL   H41634050   2.887   0.837   4.010  1.5536 -1.1041  0.7509
   68MOL   H41734051   2.786   0.979   4.023  0.4081  1.5289  1.1358
   68MOL   H41834052   2.845   0.974   4.283 -0.6065  0.7671 -1.4226
   68MOL   H41934053   2.709   0.887   4.212 -0.9817  0.6738 -1.3430
   68MOL   H42034054   2.861   0.691   4.205 -0.2428 -1.6578  1.3831
   68MOL   H42134055   2.983   0.783   4.289 -0.4252  0.0469  1.0108
   68MOL   H42234056   2.845   0.813   4.486  3.0001 -0.3331 -2.0481
   68MOL   H42334057   2.713   0.733   4.428  0.0061  0.5495 -1.9027
   68MOL   H42434058   2.814   0.511   4.440  1.0200  0.8399 -3.0278
   68MOL   H42534059   2.969   0.587   4.471 -0.1907 -2.2780 -1.9887
   68MOL   H42634060   2.823   0.588   4.585  0.7465 -0.8456 -0.2609
   68MOL   C42734061   3.027   1.352   4.226 -0.0852  0.5830 -0.1936
   68MOL   C42834062   3.018   1.285   4.363 -0.6356  0.5538  0.9366
   68MOL   O42934063   3.134   1.209   4.395 -0.4097 -0.7289  0.3357
   68MOL   C43034064   3.118   1.076   4.445 -0.0794 -1.1170 -0.0323
   68MOL   C43134065   3.224   1.035   4.544 -0.4539  0.2729  0.4134
   68MOL   C43234066   3.370   1.042   4.488  0.1654 -0.3267  0.7400
   68MOL   C43334067   3.482   1.041   4.593  0.3552 -0.6938  0.5287
   68MOL   C43434068   3.514   0.899   4.633 -0.1291 -0.5303 -0.6378
   68MOL   C43534069   3.616   0.888   4.749  0.1443 -0.2372 -0.4184
   68MOL   H43634070   3.107   1.426   4.222 -0.6926  1.2178 -0.9244
   68MOL   H43734071   2.939   1.414   4.205 -1.9187 -1.3644  1.4574
   68MOL   H43834072   2.928   1.225   4.350 -0.8807  0.7038  1.9442
   68MOL   H43934073   3.111   1.006   4.361 -2.2974 -0.0676 -0.7733
   68MOL   H44034074   3.023   1.074   4.498  0.8295 -1.3140  1.6000
   68MOL   H44134075   3.207   0.938   4.591  0.3398 -0.6602 -1.1850
   68MOL   H44234076   3.210   1.099   4.631 -2.7862 -0.7803  0.8628
   68MOL   H44334077   3.384   0.962   4.415 -0.9134 -2.2015  2.5482
   68MOL   H44434078   3.380   1.131   4.424  3.7774 -0.7015  0.6871
   68MOL   H44534079   3.573   1.085   4.551 -0.0685  1.3591  1.7244
   68MOL   H44634080   3.458   1.112   4.671  0.1200 -1.0758  0.8048
   68MOL   H44734081   3.421   0.851   4.661  1.7111 -2.0117  3.2379
   68MOL   H44834082   3.546   0.843   4.546  0.5240  0.9154 -1.3520
   68MOL   H44934083   3.559   0.923   4.835  1.0825 -1.8682  0.9077
   68MOL   H45034084   3.645   0.784   4.767 -1.4283 -0.6888 -0.4148
   68MOL   H45134085   3.713   0.932   4.729  0.1213  0.0493  0.0785
   68MOL   C45234086   3.013   1.384   4.481  0.5849 -0.2116 -0.3938
   68MOL   C45334087   2.888   1.367   4.568  0.4292  0.0488  0.2303
   68MOL   O45434088   2.771   1.390   4.476  0.0322 -0.4070 -0.2559
   68MOL   C45534089   2.657   1.309   4.503  0.1193  0.8040  0.6079
   68MOL   C45634090   2.540   1.352   4.424 -0.2941 -0.1746  0.2890
   68MOL   C45734091   2.529   1.306   4.277  0.2330 -0.2021 -0.6134
   68MOL   C45834092   2.463   1.173   4.266 -0.2829  0.3391 -0.2723
   68MOL   C45934093   2.418   1.127   4.129 -0.1859 -0.0293  0.2564
   68MOL   C46034094   2.379   0.979   4.132  0.1618 -0.3319 -0.0800
   68MOL   H46134095   3.102   1.382   4.544 -0.7745  1.7152  1.6807
   68MOL   H46234096   3.020   1.486   4.442  2.5544 -0.4208 -0.6370
   68MOL   H46334097   2.884   1.268   4.613 -1.0649  0.3271  0.7455
   68MOL   H46434098   2.629   1.315   4.608  0.0583  0.2618  0.6229
   68MOL   H46534099   2.678   1.203   4.485  1.6885  0.9015  1.7839
   68MOL   H46634100   2.536   1.461   4.432  0.3688 -0.0863 -0.5424
   68MOL   H46734101   2.452   1.322   4.480 -0.0284 -0.0948  0.7527
   68MOL   H46834102   2.479   1.383   4.219 -1.8895 -0.4992  0.7590
   68MOL   H46934103   2.633   1.306   4.243  0.2664 -0.0879 -0.5125
   68MOL   H47034104   2.529   1.095   4.304  1.7235  2.1683  0.1239
   68MOL   H47134105   2.373   1.171   4.327  1.0128  1.4986  1.7510
   68MOL   H47234106   2.335   1.188   4.096 -0.9862 -1.3391 -0.1929
   68MOL   H47334107   2.497   1.139   4.054  1.2378 -1.6208  1.4428
   68MOL   H47434108   2.298   0.956   4.201 -0.4939 -1.0528 -1.0675
   68MOL   H47534109   2.357   0.940   4.032  0.0319 -0.1356 -0.1275
   68MOL   H47634110   2.462   0.915   4.162  1.3266  1.8145  1.3553
   68MOL   C47734111   2.885   1.472   4.678 -0.1738  0.3972 -0.8255
   68MOL   C47834112   2.968   1.431   4.802 -0.7303  0.3821  0.2060
   68MOL   O47934113   2.884   1.379   4.908 -0.1301 -0.0005 -0.0748
   68MOL   C48034114   2.865   1.469   5.011 -0.2035 -0.7470  0.8249
   68MOL   C48134115   2.775   1.397   5.115  0.6228  0.2377  1.0942
   68MOL   C48234116   2.631   1.395   5.060  0.1746  0.1915 -0.0430
   68MOL   C48334117   2.532   1.283   5.108  0.2478 -0.5336 -0.0986
   68MOL   C48434118   2.498   1.307   5.256 -0.7091  0.0551  0.6240
   68MOL   C48534119   2.382   1.220   5.301  0.1128  0.6481  0.3186
   68MOL   H48634120   2.889   1.576   4.648  0.0435  0.8827  0.8590
   68MOL   H48734121   2.781   1.487   4.705  0.2215  0.4994  0.6551
   68MOL   H48834122   3.061   1.376   4.784  1.2279  2.6887  2.8048
   68MOL   H48934123   2.819   1.555   4.963  0.8480 -0.4196  0.3986
   68MOL   H49034124   2.961   1.493   5.057 -0.0959  1.4489 -0.4648
   68MOL   H49134125   2.766   1.448   5.211  0.3460  3.5558 -0.6275
   68MOL   H49234126   2.821   1.298   5.121 -0.5605 -0.4243 -0.5142
   68MOL   H49334127   2.588   1.494   5.078  1.2660  1.1863 -2.6805
   68MOL   H49434128   2.631   1.392   4.951  1.2259 -0.7588 -0.0196
   68MOL   H49534129   2.443   1.296   5.047 -0.0779 -1.2030  0.2195
   68MOL   H49634130   2.578   1.184   5.105  3.5547  0.9094  0.9040
   68MOL   H49734131   2.591   1.274   5.301  2.0912  0.9804 -4.0318
   68MOL   H49834132   2.474   1.412   5.277 -0.2380  0.8699 -2.6019
   68MOL   H49934133   2.391   1.117   5.267  0.7932  1.1458 -1.0290
   68MOL   H50034134   2.360   1.221   5.407 -0.6092  3.3510  0.1828
   68MOL   H50134135   2.295   1.268   5.256  0.3862  1.2247  0.4030
   68MOL   H50234136   3.020   1.521   4.835  0.6618  0.4418 -2.0043
   69MOL     C134137   3.015   5.450   3.542 -0.4527  0.0457 -0.3722
   69MOL     C234138   2.865   5.430   3.579  0.1483  0.2625  0.5500
   69MOL     O334139   2.817   5.304   3.524 -0.9510 -0.0364  0.0897
   69MOL     C434140   2.787   5.219   3.633 -0.0152  0.3041 -0.2663
   69MOL     C534141   2.745   5.093   3.557  0.0601  0.4711  0.6764
   69MOL     C634142   2.735   4.969   3.646  0.2954 -0.1398  0.2806
   69MOL     C734143   2.678   4.842   3.585  0.0549  0.0513  0.4904
   69MOL     C834144   2.624   4.748   3.692  0.2418  0.0513  0.1536
   69MOL     C934145   2.638   4.599   3.655  0.2492  0.4148 -0.1527
   69MOL    H1034146   3.041   5.548   3.580 -1.4269  0.8818 -1.8308
   69MOL    H1134147   3.077   5.369   3.582  0.5942  1.4994  1.0000
   69MOL    H1234148   2.869   5.426   3.688 -0.1322 -0.9759  0.5152
   69MOL    H1334149   2.715   5.255   3.706 -0.8492  1.2142 -1.5383
   69MOL    H1434150   2.875   5.198   3.695 -0.9001  0.4245  1.0603
   69MOL    H1534151   2.810   5.089   3.471 -1.7542 -0.2399 -0.6996
   69MOL    H1634152   2.649   5.115   3.509 -0.4907 -0.0272  1.5380
   69MOL    H1734153   2.832   4.944   3.687  1.1780  0.6578 -1.2528
   69MOL    H1834154   2.679   5.001   3.733  0.8837 -0.1305  0.6556
   69MOL    H1934155   2.596   4.860   3.515 -2.5333 -1.4419  3.0457
   69MOL    H2034156   2.762   4.788   3.540  0.2510  0.3770  0.4700
   69MOL    H2134157   2.523   4.767   3.728  0.6897 -1.4978  2.3525
   69MOL    H2234158   2.681   4.762   3.784  0.7280 -1.6191  0.1255
   69MOL    H2334159   2.604   4.521   3.723  1.5511 -0.1246 -0.1023
   69MOL    H2434160   2.579   4.578   3.565  3.2132  0.3396 -2.1397
   69MOL    H2534161   2.738   4.575   3.618  0.7538  1.4467  0.5169
   69MOL    H2634162   3.023   5.457   3.434 -1.3793  2.0154 -0.3229
   69MOL    C2734163   2.785   5.549   3.528 -0.1031 -0.0782  0.7520
   69MOL    C2834164   2.637   5.544   3.575 -0.7489 -0.7705  0.2856
   69MOL    O2934165   2.575   5.674   3.574  0.3798  0.1323 -0.0260
   69MOL    C3034166   2.562   5.740   3.447  0.5891 -0.5412  0.0340
   69MOL    C3134167   2.465   5.855   3.471 -0.5916  0.1613 -0.4720
   69MOL    C3234168   2.454   5.949   3.350 -0.2976 -0.5609  0.0664
   69MOL    C3334169   2.327   6.032   3.335  0.2695  0.9075  0.3880
   69MOL    C3434170   2.215   5.951   3.257 -0.1157 -0.2179  0.0120
   69MOL    C3534171   2.241   5.937   3.106 -0.6514  0.6580 -0.5948
   69MOL    H3634172   2.828   5.647   3.549 -2.4109  1.1737 -0.1416
   69MOL    H3734173   2.780   5.534   3.420  0.0055 -0.6225  0.8203
   69MOL    H3834174   2.627   5.518   3.680 -0.4850 -1.9750  0.0145
   69MOL    H3934175   2.523   5.677   3.367 -1.4087  0.4897  0.1510
   69MOL    H4034176   2.662   5.782   3.440  0.8827 -1.3972 -0.9898
   69MOL    H4134177   2.492   5.912   3.559  0.3996 -0.1367 -0.5765
   69MOL    H4234178   2.369   5.810   3.496 -0.7372  0.4161 -0.5697
   69MOL    H4334179   2.540   6.017   3.351  0.2039 -1.2085  1.4279
   69MOL    H4434180   2.460   5.887   3.260  1.9603 -0.0850 -0.1562
   69MOL    H4534181   2.284   6.060   3.432 -0.2118  1.1619  0.1045
   69MOL    H4634182   2.354   6.128   3.292  0.4220  1.2905  1.3237
   69MOL    H4734183   2.217   5.849   3.293 -1.1300  0.2763  1.5165
   69MOL    H4834184   2.118   5.992   3.285  0.4330  0.5896  0.7332
   69MOL    H4934185   2.321   5.867   3.081 -0.6851  0.0342  0.9461
   69MOL    H5034186   2.153   5.903   3.052 -0.6689  0.2583 -0.3226
   69MOL    H5134187   2.264   6.034   3.064  1.5482  0.5560  0.2798
   69MOL    C5234188   2.546   5.445   3.494 -0.5241  0.2642 -0.3879
   69MOL    C5334189   2.405   5.426   3.558 -0.7603 -0.8657  0.1787
   69MOL    O5434190   2.316   5.373   3.455 -0.7208  0.0379  0.4868
   69MOL    C5534191   2.235   5.479   3.398 -0.7044 -0.2442 -0.2341
   69MOL    C5634192   2.145   5.421   3.291  0.0152 -0.7653 -0.5042
   69MOL    C5734193   2.039   5.328   3.358  0.2502 -0.2788  0.2011
   69MOL    C5834194   1.951   5.254   3.251 -0.5409  0.2909  0.2285
   69MOL    C5934195   1.859   5.145   3.311  0.1305  0.5293  0.2999
   69MOL    C6034196   1.769   5.079   3.203  0.1503  0.1914 -0.1072
   69MOL    H6134197   2.595   5.350   3.476  1.1143  1.0432 -0.0702
   69MOL    H6234198   2.535   5.473   3.389  1.8798 -1.6761 -1.1907
   69MOL    H6334199   2.368   5.521   3.597 -0.1658 -0.8353  0.6646
   69MOL    H6434200   2.297   5.557   3.354  2.3238 -2.0258  0.7009
   69MOL    H6534201   2.174   5.529   3.474 -0.2049 -2.3794  1.6122
   69MOL    H6634202   2.196   5.374   3.207  0.6866  1.4372 -1.3621
   69MOL    H6734203   2.092   5.502   3.241  0.1135  0.4049  1.2502
   69MOL    H6834204   2.085   5.253   3.422 -0.2106 -0.2800  0.5320
   69MOL    H6934205   1.972   5.387   3.420 -0.3815 -1.5717  0.7586
   69MOL    H7034206   1.876   5.321   3.207 -1.9619 -1.7561 -0.5480
   69MOL    H7134207   2.020   5.218   3.175  1.0249 -0.9445  2.1903
   69MOL    H7234208   1.922   5.069   3.358  0.5156  2.6909  3.3617
   69MOL    H7334209   1.793   5.190   3.385 -1.7282 -0.1046 -0.9433
   69MOL    H7434210   1.745   4.974   3.216 -3.3465  0.9767  0.3103
   69MOL    H7534211   1.675   5.132   3.187 -0.7288 -0.9960  0.9709
   69MOL    H7634212   1.816   5.073   3.105  1.3098 -1.3077  0.5259
   69MOL    C7734213   2.404   5.321   3.669  0.0248  0.2640  0.2509
   69MOL    C7834214   2.271   5.292   3.728 -0.3208 -0.4404 -0.5244
   69MOL    O7934215   2.295   5.263   3.869 -0.0350 -1.1489  0.3713
   69MOL    C8034216   2.303   5.377   3.955 -0.0077 -0.0081  0.3306
   69MOL    C8134217   2.278   5.327   4.100  0.1767 -0.3274  0.2183
   69MOL    C8234218   2.326   5.429   4.208  0.5984 -0.4474 -0.2399
   69MOL    C8334219   2.289   5.370   4.347  0.8647 -0.0559  0.1051
   69MOL    C8434220   2.382   5.427   4.463  0.6935  0.8398  0.0231
   69MOL    C8534221   2.527   5.363   4.449  0.3785 -0.2185 -0.0811
   69MOL    H8634222   2.471   5.348   3.751 -0.0192  0.6172  0.1712
   69MOL    H8734223   2.445   5.225   3.640 -0.0032  0.4209 -0.3024
   69MOL    H8834224   2.191   5.366   3.718  0.6716  0.8790  1.1123
   69MOL    H8934225   2.235   5.458   3.932  0.2342 -0.2115 -1.1511
   69MOL    H9034226   2.407   5.405   3.942 -0.0747  0.6176  1.1062
   69MOL    H9134227   2.341   5.240   4.122 -0.3696 -0.2986  1.9321
   69MOL    H9234228   2.175   5.303   4.124 -0.4638  1.1146 -0.9926
   69MOL    H9334229   2.433   5.449   4.199  0.4456  0.0512 -0.9786
   69MOL    H9434230   2.277   5.523   4.182 -1.4880 -1.4740 -0.1685
   69MOL    H9534231   2.184   5.378   4.373  0.7661  1.8848 -0.8144
   69MOL    H9634232   2.305   5.263   4.340 -0.7795 -0.3295  0.2843
   69MOL    H9734233   2.383   5.534   4.446  2.0369  1.1933  2.0566
   69MOL    H9834234   2.340   5.411   4.563  0.9517 -0.3881 -0.0530
   69MOL    H9934235   2.586   5.420   4.521 -1.4168  3.1759 -1.1593
   69MOL   H10034236   2.539   5.257   4.472 -1.3989 -0.1852  1.0903
   69MOL   H10134237   2.571   5.387   4.352  1.1817  0.5435  0.4542
   69MOL   C10234238   2.204   5.158   3.683  0.1553  0.7027 -0.5483
   69MOL   C10334239   2.062   5.135   3.750 -0.2434 -0.0856 -0.2370
   69MOL   O10434240   1.959   5.185   3.669 -0.2589 -0.7847  0.0079
   69MOL   C10534241   1.828   5.191   3.720  0.8029 -1.0491  0.5279
   69MOL   C10634242   1.777   5.329   3.676  0.9956 -0.2581  0.2576
   69MOL   C10734243   1.663   5.377   3.769 -0.1920 -0.3857 -0.5897
   69MOL   C10834244   1.628   5.523   3.745  0.1506  0.0046 -0.4043
   69MOL   C10934245   1.504   5.573   3.839 -0.2516 -0.4356 -0.5561
   69MOL   C11034246   1.451   5.705   3.805 -0.1862 -0.8944  0.5024
   69MOL   H11134247   2.185   5.172   3.576 -0.6083  1.5207 -0.3149
   69MOL   H11234248   2.276   5.078   3.698 -1.7734 -0.7467  1.1999
   69MOL   H11334249   2.065   5.200   3.837  3.2593  0.5932 -0.7954
   69MOL   H11434250   1.842   5.191   3.828  1.0601  1.0388  0.5046
   69MOL   H11534251   1.763   5.108   3.691  1.7729 -0.4293 -3.7961
   69MOL   H11634252   1.768   5.333   3.568 -0.3531  2.8919  0.4329
   69MOL   H11734253   1.857   5.398   3.704  0.0363  1.1944 -0.5404
   69MOL   H11834254   1.569   5.323   3.756 -1.1219  0.8452  0.9594
   69MOL   H11934255   1.690   5.363   3.874  0.9795  1.1733 -0.6650
   69MOL   H12034256   1.716   5.584   3.761 -0.0399  0.9507 -2.6908
   69MOL   H12134257   1.577   5.537   3.649 -1.2602  2.2325  0.6447
   69MOL   H12234258   1.416   5.509   3.842 -1.4075  1.1473  1.9621
   69MOL   H12334259   1.536   5.583   3.943 -0.3474  0.1103 -0.5734
   69MOL   H12434260   1.431   5.713   3.698  3.2164  1.2966 -0.0572
   69MOL   H12534261   1.355   5.729   3.852  0.2884  0.7548  0.6804
   69MOL   H12634262   1.518   5.776   3.854 -2.1352  1.3687 -0.0468
   69MOL   C12734263   2.033   4.984   3.762 -0.1090  0.5098  0.2509
   69MOL   C12834264   2.136   4.904   3.848 -0.4805  0.1995 -0.2024
   69MOL   O12934265   2.079   4.782   3.889  0.3725  0.0357 -0.1378
   69MOL   C13034266   2.047   4.688   3.787  0.0887 -0.4162  0.2479
   69MOL   C13134267   2.007   4.560   3.851  0.1166  0.6114  0.3363
   69MOL   C13234268   2.121   4.485   3.923 -0.7050  0.1161 -0.2728
   69MOL   C13334269   2.084   4.340   3.963 -0.0923  0.1851  0.3272
   69MOL   C13434270   1.967   4.342   4.057 -1.2327 -0.2723  0.4612
   69MOL   C13534271   1.969   4.440   4.186  0.3881  0.0967 -0.5239
   69MOL   H13634272   1.940   4.967   3.816 -0.6782  1.5757 -0.3753
   69MOL   H13734273   2.024   4.941   3.663  1.1458  0.9481 -0.0575
   69MOL   H13834274   2.222   4.879   3.787  1.2168  0.1976  2.1410
   69MOL   H13934275   2.128   4.672   3.715 -0.4312 -1.4912 -0.1123
   69MOL   H14034276   1.960   4.719   3.729 -0.2595 -2.9908 -0.7038
   69MOL   H14134277   1.966   4.489   3.779  3.1028  3.0164 -3.9798
   69MOL   H14234278   1.931   4.588   3.923 -0.5465 -0.2175 -0.0357
   69MOL   H14334279   2.194   4.461   3.846  0.4719 -0.0285  0.8694
   69MOL   H14434280   2.170   4.543   4.002  0.1678  1.8698 -2.0528
   69MOL   H14534281   2.056   4.276   3.879  1.4045  1.2209 -0.9843
   69MOL   H14634282   2.171   4.292   4.007 -0.2430  2.5505  3.3407
   69MOL   H14734283   1.880   4.364   3.995  0.9013  2.1236 -1.8176
   69MOL   H14834284   1.945   4.240   4.090 -1.4353 -0.2093  0.5181
   69MOL   H14934285   1.978   4.547   4.170  2.1196 -0.4883 -3.8938
   69MOL   H15034286   1.885   4.404   4.247  0.4251  0.9771  0.0447
   69MOL   H15134287   2.057   4.406   4.240  1.0815  0.6274 -1.3154
   69MOL   C15234288   2.186   4.960   3.989 -0.8124 -0.9830  0.9812
   69MOL   C15334289   2.323   4.907   4.031 -0.0756  0.4653 -0.2873
   69MOL   O15434290   2.414   5.002   4.084 -0.0046  0.1182 -0.1029
   69MOL   C15534291   2.526   5.044   4.003  0.0440 -0.4334  1.0681
   69MOL   C15634292   2.646   5.094   4.084  0.2921  0.6249  0.0494
   69MOL   C15734293   2.767   5.122   3.993  0.0583 -0.3753  0.3392
   69MOL   C15834294   2.885   5.183   4.070 -0.7010  0.1217  0.6383
   69MOL   C15934295   3.020   5.147   4.002 -0.0107 -0.2468  0.3053
   69MOL   C16034296   3.141   5.182   4.093  0.1812 -0.0433 -0.1018
   69MOL   H16134297   2.208   5.064   3.964 -0.6090 -0.7952  1.9169
   69MOL   H16234298   2.112   4.964   4.068 -1.0065 -0.3670  0.7769
   69MOL   H16334299   2.365   4.856   3.944 -2.7752 -0.8358 -0.9146
   69MOL   H16434300   2.501   5.111   3.920  0.8504 -1.1589  0.2333
   69MOL   H16534301   2.558   4.956   3.948 -1.7808 -0.1502 -0.5036
   69MOL   H16634302   2.675   5.012   4.149  1.7913  0.7537 -0.4314
   69MOL   H16734303   2.626   5.183   4.144 -1.5397 -1.9288  3.4129
   69MOL   H16834304   2.792   5.026   3.949 -0.7029 -0.9420  1.1270
   69MOL   H16934305   2.731   5.177   3.906  2.6128 -0.6304 -0.9043
   69MOL   H17034306   2.864   5.289   4.082  0.8336  0.3690  1.1486
   69MOL   H17134307   2.883   5.137   4.169 -1.7973  0.4610  0.7860
   69MOL   H17234308   3.019   5.041   3.975  1.0882 -0.4191  0.9397
   69MOL   H17334309   3.029   5.204   3.909 -0.7687 -0.2876  0.2025
   69MOL   H17434310   3.236   5.164   4.043 -0.2871 -2.4653 -0.2278
   69MOL   H17534311   3.123   5.282   4.130  0.0896  0.3155 -1.0833
   69MOL   H17634312   3.150   5.114   4.178 -0.7413 -0.9382 -0.6961
   69MOL   C17734313   2.300   4.811   4.144  0.7045 -0.1155  1.2946
   69MOL   C17834314   2.420   4.724   4.180 -0.7388  0.0416  0.0346
   69MOL   O17934315   2.420   4.699   4.321  0.6138 -0.0243  0.2553
   69MOL   C18034316   2.510   4.769   4.398  0.3767  0.3376 -0.3824
   69MOL   C18134317   2.502   4.749   4.547 -0.4856 -0.5409 -0.1142
   69MOL   C18234318   2.569   4.625   4.604  0.0948  0.3593  0.4586
   69MOL   C18334319   2.551   4.617   4.758 -0.0895 -0.2925  0.3912
   69MOL   C18434320   2.634   4.497   4.813  0.3213 -0.7345 -0.0387
   69MOL   C18534321   2.572   4.447   4.943  0.4230 -0.7032  0.7160
   69MOL   H18634322   2.260   4.860   4.232  0.9320  1.8163  0.3668
   69MOL   H18734323   2.222   4.740   4.115  0.2805  1.3143 -1.2589
   69MOL   H18834324   2.514   4.769   4.146 -0.7489 -0.9197 -1.2945
   69MOL   H18934325   2.522   4.873   4.370 -1.7981  1.4152  2.5111
   69MOL   H19034326   2.610   4.728   4.380  0.3285  0.3749 -0.7442
   69MOL   H19134327   2.397   4.742   4.577 -0.5595  0.5599 -0.1116
   69MOL   H19234328   2.547   4.837   4.593 -2.0442  0.1063  0.2322
   69MOL   H19334329   2.524   4.538   4.557  1.6592  0.1453 -0.6918
   69MOL   H19434330   2.675   4.635   4.582  0.0731  1.3898  0.7618
   69MOL   H19534331   2.593   4.706   4.805  0.5459  2.4640 -4.9233
   69MOL   H19634332   2.450   4.602   4.795 -0.2856 -2.0728 -0.8068
   69MOL   H19734333   2.637   4.413   4.743 -2.2582 -1.1285  0.2782
   69MOL   H19834334   2.739   4.522   4.831  0.7339 -2.1022 -0.4523
   69MOL   H19934335   2.633   4.377   5.001 -0.4527 -0.6605  1.6901
   69MOL   H20034336   2.550   4.533   5.005  3.4105  1.6222 -1.3172
   69MOL   H20134337   2.480   4.393   4.919  1.4207 -1.5379 -1.3376
   69MOL   C20234338   2.422   4.584   4.112  0.1579  0.0543 -0.3625
   69MOL   C20334339   2.547   4.504   4.126 -0.0735  0.2647  0.0014
   69MOL   O20434340   2.640   4.578   4.055 -0.4597  0.3751  0.7325
   69MOL   C20534341   2.754   4.621   4.133 -0.3064 -0.1174  0.0900
   69MOL   C20634342   2.867   4.667   4.039  0.1196  0.1604 -0.6269
   69MOL   C20734343   2.990   4.729   4.101  0.1651 -0.3459 -0.6197
   69MOL   C20834344   3.109   4.736   4.008 -0.0842 -0.4791  0.7668
   69MOL   C20934345   3.229   4.824   4.045 -0.5094 -0.3502  0.3630
   69MOL   C21034346   3.360   4.782   3.969  0.0991 -0.7482 -0.5697
   69MOL   H21134347   2.333   4.529   4.145 -1.0063  1.0568 -1.7740
   69MOL   H21234348   2.399   4.594   4.006  0.4748 -1.2393 -0.5594
   69MOL   H21334349   2.579   4.499   4.230 -0.4560 -0.0099  0.1048
   69MOL   H21434350   2.794   4.550   4.206  0.9996 -0.0891 -0.5773
   69MOL   H21534351   2.736   4.712   4.190 -1.5028  0.2924 -0.9158
   69MOL   H21634352   2.827   4.739   3.967  1.5819  0.4672 -1.1553
   69MOL   H21734353   2.896   4.578   3.982 -2.2523 -1.7928  1.1651
   69MOL   H21834354   2.955   4.831   4.118 -0.7504 -0.7167 -0.2723
   69MOL   H21934355   3.022   4.677   4.191  1.9709 -1.1241 -1.6740
   69MOL   H22034356   3.141   4.632   4.007 -1.1502 -0.8444  2.0450
   69MOL   H22134357   3.086   4.767   3.906  2.6320 -0.5061  0.1239
   69MOL   H22234358   3.208   4.930   4.032  0.4002 -0.1869  0.2251
   69MOL   H22334359   3.236   4.810   4.153  2.3227 -1.7929  0.0496
   69MOL   H22434360   3.391   4.685   4.006 -0.2008 -1.1357 -1.3118
   69MOL   H22534361   3.333   4.776   3.863  0.0150  2.8096 -0.8150
   69MOL   H22634362   3.443   4.851   3.984 -0.5546 -0.0757  0.0232
   69MOL   C22734363   2.548   4.356   4.080 -0.2371 -0.4879 -0.2452
   69MOL   C22834364   2.459   4.258   4.162 -0.2783  0.0953 -0.3047
   69MOL   O22934365   2.473   4.120   4.113 -0.0316  0.3872 -0.5701
   69MOL   C23034366   2.389   4.085   4.015  0.0325 -0.3802  0.1001
   69MOL   C23134367   2.448   3.958   3.950  0.5362 -0.9368  0.1334
   69MOL   C23234368   2.364   3.885   3.844 -0.0190  0.7034  0.3970
   69MOL   C23334369   2.438   3.755   3.803  0.4342  0.8098  0.1660
   69MOL   C23434370   2.349   3.661   3.725  0.1369  0.5153 -0.0714
   69MOL   C23534371   2.279   3.572   3.827 -0.3415 -0.0881 -0.3467
   69MOL   H23634372   2.531   4.352   3.972  0.3009  1.7953 -0.4479
   69MOL   H23734373   2.653   4.329   4.090 -0.4167 -1.8714 -1.7941
   69MOL   H23834374   2.352   4.276   4.151 -0.0315  0.2837 -2.5478
   69MOL   H23934375   2.384   4.162   3.937 -0.8608  0.0156  0.5373
   69MOL   H24034376   2.286   4.075   4.048 -0.3274  1.3115 -0.4290
   69MOL   H24134377   2.454   3.885   4.031 -0.0978 -1.4750 -0.2920
   69MOL   H24234378   2.551   3.984   3.927  0.0705  1.5530  0.7952
   69MOL   H24334379   2.266   3.845   3.871  0.6945 -2.6057 -1.6978
   69MOL   H24434380   2.346   3.948   3.756  2.0735  0.8527  0.0568
   69MOL   H24534381   2.532   3.782   3.757 -0.4641  0.9464 -1.6295
   69MOL   H24634382   2.470   3.702   3.893 -0.4843  1.4742  0.8978
   69MOL   H24734383   2.271   3.706   3.665 -1.6452 -1.1456  0.9549
   69MOL   H24834384   2.419   3.605   3.663  0.8643 -0.1637  1.3194
   69MOL   H24934385   2.216   3.616   3.904  2.1386 -2.3231  3.1028
   69MOL   H25034386   2.212   3.510   3.768 -1.4677  2.0638 -1.3867
   69MOL   H25134387   2.350   3.508   3.879 -1.3930 -1.9625 -1.2001
   69MOL   C25234388   2.469   4.260   4.318  0.1549 -0.3172 -0.3220
   69MOL   C25334389   2.606   4.213   4.383  0.7926  0.3264  0.3111
   69MOL   O25434390   2.580   4.198   4.527  0.5240  0.2284  0.0371
   69MOL   C25534391   2.485   4.104   4.572  0.3091 -0.3210  0.4388
   69MOL   C25634392   2.480   4.126   4.723 -0.5695  0.2337 -0.9975
   69MOL   C25734393   2.606   4.073   4.797 -0.1506  0.9906  0.0334
   69MOL   C25834394   2.601   3.925   4.823 -0.4700 -0.3373 -0.0513
   69MOL   C25934395   2.727   3.877   4.907  0.5072 -0.4376  0.1195
   69MOL   C26034396   2.740   3.722   4.935  0.6873  0.1835 -0.6391
   69MOL   H26134397   2.446   4.356   4.365 -0.6009 -1.9557  2.7622
   69MOL   H26234398   2.386   4.202   4.360 -1.4181  1.0581 -1.4518
   69MOL   H26334399   2.628   4.116   4.337  2.0719  1.4413 -1.5212
   69MOL   H26434400   2.512   4.002   4.543  0.6138  0.0439 -0.6032
   69MOL   H26534401   2.385   4.116   4.531 -0.0783 -0.0701  1.4641
   69MOL   H26634402   2.396   4.073   4.768  0.7264 -2.6058 -1.8147
   69MOL   H26734403   2.467   4.232   4.747  1.3993  0.2161  0.2772
   69MOL   H26834404   2.701   4.104   4.753  0.3086 -2.3689 -1.5636
   69MOL   H26934405   2.602   4.115   4.897 -0.6270 -0.3354  0.5952
   69MOL   H27034406   2.516   3.903   4.887  2.4796  2.6290  5.2272
   69MOL   H27134407   2.590   3.866   4.731  0.6356 -0.2471 -0.2498
   69MOL   H27234408   2.820   3.905   4.859  0.7407 -1.8111 -0.2395
   69MOL   H27334409   2.721   3.913   5.010 -1.1583 -0.9964  0.2427
   69MOL   H27434410   2.758   3.663   4.846  2.1286 -1.0327  0.4263
   69MOL   H27534411   2.823   3.709   5.005 -0.1231  2.2508  0.7411
   69MOL   H27634412   2.645   3.680   4.969  0.6838  0.6398 -0.0665
   69MOL   C27734413   2.730   4.307   4.375  0.7652  0.6004 -0.3859
   69MOL   C27834414   2.850   4.262   4.481  1.0365 -0.5339  0.5104
   69MOL   O27934415   2.913   4.139   4.453 -0.2774  0.0925 -0.6575
   69MOL   C28034416   2.877   4.033   4.545 -0.2264  0.4350  0.7178
   69MOL   C28134417   2.959   3.912   4.516  0.1134  0.8702 -0.3116
   69MOL   C28234418   2.949   3.793   4.617  0.7440  0.0854  0.7928
   69MOL   C28334419   3.017   3.662   4.572  0.2080 -1.1792 -0.5370
   69MOL   C28434420   2.997   3.548   4.672 -0.2349  0.0498  0.0177
   69MOL   C28534421   3.085   3.562   4.797 -0.7870  0.2247 -0.3847
   69MOL   H28634422   2.765   4.310   4.272 -0.0835  0.6974 -0.6729
   69MOL   H28734423   2.707   4.413   4.387 -1.0849  0.1629  0.0704
   69MOL   H28834424   2.809   4.263   4.581  0.1747  1.4404  0.1559
   69MOL   H28934425   2.769   4.026   4.532 -0.3010  0.4326  1.3209
   69MOL   H29034426   2.886   4.041   4.653  0.5953 -2.1626  0.8742
   69MOL   H29134427   3.064   3.938   4.504 -0.4150  2.6468 -1.3357
   69MOL   H29234428   2.923   3.884   4.417  0.7586  0.4468 -0.4334
   69MOL   H29334429   2.997   3.823   4.710  1.2282  0.0626  0.5495
   69MOL   H29434430   2.845   3.787   4.650  0.4272  0.2349 -0.1691
   69MOL   H29534431   2.969   3.634   4.478  0.0786 -1.3561 -0.4173
   69MOL   H29634432   3.121   3.679   4.542  0.1980 -0.6510 -0.2665
   69MOL   H29734433   2.890   3.539   4.694 -1.0171  0.8719 -3.1508
   69MOL   H29834434   3.021   3.455   4.621 -0.0503  0.2852 -0.3243
   69MOL   H29934435   3.050   3.631   4.874  1.7212  0.4565  0.5965
   69MOL   H30034436   3.111   3.467   4.845 -2.9606  1.1226  2.7046
   69MOL   H30134437   3.177   3.607   4.760  0.9883 -2.2469  0.8285
   69MOL   C30234438   2.954   4.379   4.486  0.7049 -0.1475 -0.3762
   69MOL   C30334439   3.075   4.351   4.577  0.8127  0.4334  0.0428
   69MOL   O30434440   3.037   4.380   4.708  0.2734  0.5323  0.0820
   69MOL   C30534441   3.095   4.305   4.817  0.4137 -0.3931 -0.1274
   69MOL   C30634442   2.997   4.322   4.933 -0.4151  0.6438 -0.4842
   69MOL   C30734443   3.026   4.219   5.045 -0.4595  0.6363  0.4357
   69MOL   C30834444   2.914   4.180   5.136  0.1977 -0.1599  0.0540
   69MOL   C30934445   2.965   4.078   5.242  0.1656  0.5616 -0.0623
   69MOL   C31034446   2.864   4.019   5.335  0.0696 -0.4145 -0.5260
   69MOL   H31134447   2.989   4.402   4.386  1.3764  0.3811 -0.0244
   69MOL   H31234448   2.899   4.471   4.508  1.3874  0.5341 -1.5227
   69MOL   H31334449   3.111   4.250   4.559  0.2201 -0.0615  1.5550
   69MOL   H31434450   3.200   4.328   4.835  1.2131 -0.5381 -4.0700
   69MOL   H31534451   3.088   4.203   4.781  1.6809 -0.2313 -0.8529
   69MOL   H31634452   2.897   4.311   4.890 -0.2426  0.4754 -0.8390
   69MOL   H31734453   3.010   4.423   4.973  0.4704  0.5517 -0.5339
   69MOL   H31834454   3.065   4.128   4.999  1.9006  0.4259  2.6982
   69MOL   H31934455   3.116   4.262   5.089  0.4967 -1.5591  0.6845
   69MOL   H32034456   2.882   4.272   5.187  1.0304  0.4068 -0.4240
   69MOL   H32134457   2.826   4.136   5.091 -0.5343  0.9020  0.4129
   69MOL   H32234458   3.011   4.003   5.178  1.8213  0.9529  0.6528
   69MOL   H32334459   3.057   4.112   5.290  0.3584 -1.5529  1.1208
   69MOL   H32434460   2.913   3.959   5.412 -1.8345 -0.7237  0.4592
   69MOL   H32534461   2.784   4.082   5.374  0.0061 -0.7606 -0.0858
   69MOL   H32634462   2.815   3.941   5.277  1.9174 -1.0931 -1.2196
   69MOL   C32734463   3.197   4.440   4.551 -1.0826 -0.0014  0.9936
   69MOL   C32834464   3.267   4.435   4.411 -0.1270  0.6360 -0.6194
   69MOL   O32934465   3.377   4.524   4.411  0.0968 -0.0277  0.3599
   69MOL   C33034466   3.340   4.657   4.398  0.8131 -0.0026 -0.1313
   69MOL   C33134467   3.461   4.747   4.384  0.0287 -0.0157  0.0054
   69MOL   C33234468   3.433   4.887   4.435  0.0924  0.2617 -0.7443
   69MOL   C33334469   3.559   4.973   4.438 -0.7141 -0.2554  0.0225
   69MOL   C33434470   3.524   5.107   4.502  0.5305 -0.0001  0.6200
   69MOL   C33534471   3.644   5.190   4.533  0.3890  0.5136 -0.0542
   69MOL   H33634472   3.270   4.405   4.625  2.1926  0.4136 -1.9299
   69MOL   H33734473   3.170   4.542   4.579  1.0771 -0.2235  4.1016
   69MOL   H33834474   3.202   4.466   4.329 -2.0304  1.8226  1.2896
   69MOL   H33934475   3.275   4.696   4.477  0.4157  0.8954 -0.8937
   69MOL   H34034476   3.282   4.675   4.308  0.1725  0.0113  0.2839
   69MOL   H34134477   3.476   4.763   4.277 -0.9091 -2.0054 -0.4605
   69MOL   H34234478   3.551   4.708   4.430  0.9039 -0.0327 -1.6721
   69MOL   H34334479   3.365   4.930   4.362 -0.6634 -0.2045 -0.3133
   69MOL   H34434480   3.396   4.869   4.536 -2.8593 -0.2889 -1.8816
   69MOL   H34534481   3.624   4.916   4.504 -2.8356 -1.8958  0.7583
   69MOL   H34634482   3.605   4.995   4.342  2.1181  3.3411  2.0498
   69MOL   H34734483   3.443   5.151   4.443 -0.5065 -2.7285 -0.0377
   69MOL   H34834484   3.476   5.092   4.599  1.7736  1.7727  1.5582
   69MOL   H34934485   3.688   5.216   4.437  0.1876 -0.5492 -0.4373
   69MOL   H35034486   3.618   5.285   4.579  0.8721  0.8053 -0.3861
   69MOL   H35134487   3.700   5.143   4.614  1.1571  0.5938 -0.5323
   69MOL   C35234488   3.326   4.292   4.381  0.1690  0.3415 -0.8508
   69MOL   C35334489   3.380   4.273   4.241  0.1304 -0.0245  0.0903
   69MOL   O35434490   3.267   4.283   4.154 -0.2015 -0.5018  0.1407
   69MOL   C35534491   3.305   4.356   4.038  0.3064  0.0856  0.1335
   69MOL   C35634492   3.195   4.367   3.933 -0.4426 -0.1158  0.0621
   69MOL   C35734493   3.239   4.435   3.798 -0.8026 -0.3891 -0.0280
   69MOL   C35834494   3.120   4.498   3.722  0.3788  0.1713  0.1848
   69MOL   C35934495   3.171   4.583   3.606 -0.3468 -0.0280 -0.3476
   69MOL   C36034496   3.060   4.677   3.559  0.6126 -0.4605 -0.1068
   69MOL   H36134497   3.405   4.253   4.445 -0.1934  0.7777 -0.1310
   69MOL   H36234498   3.253   4.212   4.390 -0.0648  0.8130  2.2403
   69MOL   H36334499   3.450   4.356   4.231 -1.8830  1.8908  1.3977
   69MOL   H36434500   3.390   4.315   3.984 -0.6216 -3.6481  1.3507
   69MOL   H36534501   3.331   4.458   4.065  0.3843 -0.0856  0.7267
   69MOL   H36634502   3.111   4.421   3.977  2.2452  2.6050  2.0822
   69MOL   H36734503   3.158   4.268   3.908 -0.5331  0.2052 -1.0958
   69MOL   H36834504   3.321   4.505   3.814 -0.2562 -1.1366  0.5001
   69MOL   H36934505   3.272   4.347   3.744 -0.6331 -1.0766  1.1830
   69MOL   H37034506   3.040   4.428   3.700  0.2524 -0.1269  1.5475
   69MOL   H37134507   3.077   4.566   3.796 -1.3072  0.3013 -0.8748
   69MOL   H37234508   3.262   4.637   3.632  1.0449 -2.1305 -0.7090
   69MOL   H37334509   3.196   4.530   3.514 -0.8455 -0.6476 -0.1276
   69MOL   H37434510   2.959   4.638   3.550  1.8543 -3.1354 -3.3850
   69MOL   H37534511   3.056   4.745   3.644 -3.0474 -1.5279  0.6701
   69MOL   H37634512   3.079   4.732   3.467  1.4591 -0.9924 -0.2491
   69MOL   C37734513   3.458   4.142   4.212  0.1120 -0.3122  0.1292
   69MOL   C37834514   3.410   4.008   4.286  0.3096  0.5777 -0.2446
   69MOL   O37934515   3.457   4.016   4.416 -0.4511 -0.0708 -0.5771
   69MOL   C38034516   3.372   3.967   4.520 -0.0555 -0.5726 -0.1670
   69MOL   C38134517   3.433   3.990   4.656  0.0219  0.6623  0.5522
   69MOL   C38234518   3.326   3.972   4.776  0.0529 -0.1305 -0.1449
   69MOL   C38334519   3.370   4.034   4.908  0.2974  0.2938  0.3369
   69MOL   C38434520   3.509   3.982   4.963 -1.0776  0.1596 -0.6726
   69MOL   C38534521   3.555   4.053   5.087 -0.1729  0.0993  0.1333
   69MOL   H38634522   3.473   4.126   4.106  0.3240  0.5063  0.0309
   69MOL   H38734523   3.561   4.160   4.246 -0.2627 -0.1857  1.2344
   69MOL   H38834524   3.302   3.992   4.285  0.9241 -4.3359 -0.2476
   69MOL   H38934525   3.352   3.860   4.515 -0.9037 -0.4195 -0.1283
   69MOL   H39034526   3.278   4.022   4.516  0.1593  0.2025  3.6297
   69MOL   H39134527   3.480   4.088   4.657 -0.7991  1.1971 -4.1520
   69MOL   H39234528   3.509   3.912   4.664 -0.8779 -0.1967  0.9738
   69MOL   H39334529   3.239   4.026   4.740  0.0025  1.7056  2.6270
   69MOL   H39434530   3.312   3.864   4.786 -1.5556  0.1143  0.2090
   69MOL   H39534531   3.391   4.140   4.896 -2.0363  1.0518  2.4423
   69MOL   H39634532   3.288   4.013   4.977 -0.5263  0.3646 -0.6082
   69MOL   H39734533   3.508   3.873   4.974 -2.5092  0.0013 -2.1625
   69MOL   H39834534   3.580   4.008   4.885 -0.4427  0.2888 -0.0537
   69MOL   H39934535   3.655   4.020   5.114 -0.1080  1.3501  1.4389
   69MOL   H40034536   3.564   4.162   5.079  0.5427  0.0140 -0.3083
   69MOL   H40134537   3.484   4.034   5.167  0.3663  0.9370  0.8133
   69MOL   C40234538   3.463   3.874   4.224 -0.8815  0.4230 -0.2224
   69MOL   C40334539   3.419   3.846   4.080 -0.3682  0.2514  0.2176
   69MOL   O40434540   3.275   3.833   4.085  0.1020  0.4463 -0.5086
   69MOL   C40534541   3.185   3.851   3.966  0.5330 -0.4127 -0.7488
   69MOL   C40634542   3.043   3.881   4.006 -0.3448 -0.0755 -0.2244
   69MOL   C40734543   3.033   4.015   4.092 -0.6043 -0.1370  0.0917
   69MOL   C40834544   2.882   4.032   4.145 -0.4015 -0.2167 -0.0841
   69MOL   C40934545   2.785   4.083   4.033 -0.0936 -0.5484 -0.6895
   69MOL   C41034546   2.839   4.175   3.911 -0.4954 -0.3446 -0.5174
   69MOL   H41134547   3.433   3.793   4.290 -1.4263 -0.8751 -2.0220
   69MOL   H41234548   3.571   3.873   4.232 -0.9452 -0.7225  0.6539
   69MOL   H41334549   3.443   3.929   4.015 -0.3040 -0.7040 -0.9957
   69MOL   H41434550   3.194   3.762   3.903 -0.5584 -1.4701  0.5377
   69MOL   H41534551   3.226   3.938   3.915  1.1465 -0.1374  0.1880
   69MOL   H41634552   3.006   3.793   4.059 -1.3375 -0.7094 -1.9289
   69MOL   H41734553   2.986   3.892   3.913  0.2480  2.4545 -0.3360
   69MOL   H41834554   3.102   4.011   4.176  0.9683  1.0519 -1.0945
   69MOL   H41934555   3.068   4.103   4.038 -0.9547 -0.5205 -0.7799
   69MOL   H42034556   2.856   3.937   4.191  0.9317 -1.1172 -1.1367
   69MOL   H42134557   2.888   4.112   4.218  0.5945 -0.3442 -0.0090
   69MOL   H42234558   2.760   3.984   3.993 -1.9969 -0.4793  0.2619
   69MOL   H42334559   2.689   4.118   4.070  1.4249 -0.1260  3.0020
   69MOL   H42434560   2.758   4.189   3.839  0.2123 -0.1746 -1.2947
   69MOL   H42534561   2.875   4.271   3.948  2.2438 -2.3021  2.0662
   69MOL   H42634562   2.917   4.131   3.849 -1.4305 -0.5825 -1.5460
   69MOL   C42734563   3.486   3.717   4.021 -0.1536 -0.5187  0.2941
   69MOL   C42834564   3.636   3.739   3.985  0.7039  0.7854  0.6959
   69MOL   O42934565   3.681   3.603   3.980 -0.0801  0.1159  0.6129
   69MOL   C43034566   3.777   3.572   4.082 -0.0173 -0.4001  0.1249
   69MOL   C43134567   3.829   3.428   4.067  0.4984  0.1302  0.1889
   69MOL   C43234568   3.726   3.323   4.112  0.4703  0.3146  0.2783
   69MOL   C43334569   3.610   3.299   4.014 -0.2959 -0.3224  0.0859
   69MOL   C43434570   3.533   3.175   4.054  0.4133 -0.8507  0.3916
   69MOL   C43534571   3.416   3.155   3.962 -0.1800 -0.6130  0.4752
   69MOL   H43634572   3.459   3.631   4.083  0.6737 -0.4508  0.7518
   69MOL   H43734573   3.433   3.693   3.929  2.4757  0.3531 -1.5052
   69MOL   H43834574   3.684   3.802   4.060  0.6302  1.8778 -0.1479
   69MOL   H43934575   3.740   3.578   4.184  0.5448  1.2073  0.2434
   69MOL   H44034576   3.865   3.636   4.069 -0.1584 -0.3287 -0.5236
   69MOL   H44134577   3.918   3.416   4.131  0.7334 -1.3953 -0.3841
   69MOL   H44234578   3.873   3.409   3.969  3.6008  0.0821  1.4993
   69MOL   H44334579   3.763   3.223   4.138 -0.1066  0.9046  3.6799
   69MOL   H44434580   3.681   3.353   4.207  1.0904  0.6703  0.4627
   69MOL   H44534581   3.556   3.394   4.011  1.3534  0.5769 -2.6238
   69MOL   H44634582   3.655   3.287   3.916  0.4812 -3.4713  0.7660
   69MOL   H44734583   3.598   3.088   4.060  0.6953 -0.7596 -1.0074
   69MOL   H44834584   3.498   3.193   4.155 -1.8314 -0.6016 -0.3840
   69MOL   H44934585   3.366   3.058   3.964 -0.8165 -0.2682  1.1307
   69MOL   H45034586   3.338   3.229   3.980 -0.0224 -0.9598  2.6737
   69MOL   H45134587   3.453   3.157   3.859  0.1333  0.0607  0.6006
   69MOL   C45234588   3.661   3.813   3.850 -0.3695  0.3341  0.1349
   69MOL   C45334589   3.800   3.873   3.837  0.0603  0.7247 -0.2330
   69MOL   O45434590   3.801   3.956   3.953  0.2714  0.0759 -0.1440
   69MOL   C45534591   3.925   3.984   4.020  0.0232  0.7256 -0.3507
   69MOL   C45634592   3.900   4.091   4.126 -0.0844 -0.5527  0.0557
   69MOL   C45734593   4.016   4.132   4.217 -0.7311  0.7110 -0.0005
   69MOL   C45834594   3.972   4.194   4.345  0.0033 -0.2394 -0.1399
   69MOL   C45934595   4.086   4.276   4.419 -0.4150 -0.1253  0.3523
   69MOL   C46034596   4.200   4.186   4.460 -0.5355 -0.1492  0.0673
   69MOL   H46134597   3.635   3.759   3.759 -1.4106  1.3924 -0.2085
   69MOL   H46234598   3.596   3.900   3.842 -0.1412  0.7136  2.2545
   69MOL   H46334599   3.877   3.797   3.842 -2.8929 -2.5283 -1.7724
   69MOL   H46434600   4.000   4.023   3.951  0.1242  1.5885  0.2434
   69MOL   H46534601   3.965   3.893   4.065 -0.3839  1.5070  1.6792
   69MOL   H46634602   3.828   4.049   4.196  2.5439 -1.5607  2.2512
   69MOL   H46734603   3.845   4.178   4.090 -1.4265 -0.9198  1.1950
   69MOL   H46834604   4.082   4.049   4.240 -0.5295  1.3790  1.9496
   69MOL   H46934605   4.076   4.206   4.164 -0.0340  0.7614  0.8410
   69MOL   H47034606   3.895   4.270   4.334  0.1898  0.2364  1.6695
   69MOL   H47134607   3.938   4.122   4.419  1.1831 -0.0970  0.5714
   69MOL   H47234608   4.124   4.364   4.366  0.5449 -0.5150  0.3895
   69MOL   H47334609   4.051   4.334   4.504  1.9685  2.0039 -0.0321
   69MOL   H47434610   4.225   4.110   4.386  0.4113  0.7147 -0.5155
   69MOL   H47534611   4.293   4.243   4.462 -0.6290 -0.0070  0.3534
   69MOL   H47634612   4.181   4.135   4.554 -2.1637  2.0466  0.9622
   69MOL   C47734613   3.828   3.968   3.714  0.1655  0.1089  0.2770
   69MOL   C47834614   3.843   3.878   3.586 -0.1453 -0.4654 -0.2359
   69MOL   O47934615   3.874   3.959   3.476  0.4025  0.3003 -0.2792
   69MOL   C48034616   3.893   3.888   3.350  0.4012 -0.5680  0.1112
   69MOL   C48134617   3.900   3.974   3.222 -0.4612  0.3118 -0.0049
   69MOL   C48234618   3.894   3.893   3.093 -0.4745 -0.1231  0.3556
   69MOL   C48334619   3.896   3.992   2.974  0.0690 -0.6327  0.4535
   69MOL   C48434620   3.769   4.061   2.932 -0.3234 -0.0798  0.4796
   69MOL   C48534621   3.790   4.133   2.799 -0.3318 -0.8909  0.3756
   69MOL   H48634622   3.754   4.046   3.697 -0.7016 -1.1372 -1.8026
   69MOL   H48734623   3.927   4.006   3.742 -0.6056  0.5507  2.5199
   69MOL   H48834624   3.933   3.819   3.604  0.0901 -0.2072 -0.5620
   69MOL   H48934625   3.811   3.818   3.334 -2.1670  2.5429 -1.0472
   69MOL   H49034626   3.984   3.830   3.358  0.8730  0.2232  0.5806
   69MOL   H49134627   3.985   4.043   3.218  0.2599 -0.6445 -2.3549
   69MOL   H49234628   3.816   4.043   3.225 -0.3361  0.4421  0.5206
   69MOL   H49334629   3.985   3.833   3.088 -0.8337 -0.6721  0.3876
   69MOL   H49434630   3.812   3.824   3.076 -0.8708  1.0250 -2.9762
   69MOL   H49534631   3.959   4.080   2.988 -0.3846 -0.2840  0.3226
   69MOL   H49634632   3.929   3.935   2.887 -1.5167 -0.8484 -0.0330
   69MOL   H49734633   3.694   3.984   2.914 -0.3407 -0.0984  0.6312
   69MOL   H49834634   3.727   4.134   3.000  0.0671  0.1534  0.4765
   69MOL   H49934635   3.815   4.064   2.718 -0.9852 -1.2272  0.4604
   69MOL   H50034636   3.703   4.195   2.779  1.6368  0.8764 -3.0486
   69MOL   H50134637   3.868   4.209   2.802  1.0564 -2.2242 -1.1384
   69MOL   H50234638   3.750   3.823   3.574  0.0813 -1.0485  0.6084
   70MOL     C134639   3.304   2.717   4.769  0.4299 -0.5221 -0.2078
   70MOL     C234640   3.163   2.653   4.778  0.2234 -0.0875 -0.0631
   70MOL     O334641   3.079   2.757   4.723  0.2927 -0.2423  0.1691
   70MOL     C434642   3.037   2.736   4.590  0.6802  0.2510 -0.1772
   70MOL     C534643   2.898   2.802   4.560  0.3501  0.5374 -0.3636
   70MOL     C634644   2.848   2.781   4.415 -1.0788 -0.2903 -0.3681
   70MOL     C734645   2.715   2.850   4.379  0.4305 -0.2536 -0.4791
   70MOL     C834646   2.592   2.773   4.443 -0.1305 -0.8482 -0.4061
   70MOL     C934647   2.582   2.625   4.402 -0.1230 -0.9697 -0.5829
   70MOL    H1034648   3.386   2.662   4.814  0.7329 -2.0040 -2.4876
   70MOL    H1134649   3.329   2.719   4.663  0.3625  1.5435 -0.2224
   70MOL    H1234650   3.166   2.566   4.711  0.1645 -1.0886  1.2229
   70MOL    H1334651   3.028   2.631   4.563 -0.5986  0.5557 -0.9721
   70MOL    H1434652   3.114   2.773   4.522  0.6742  1.8440  0.6494
   70MOL    H1534653   2.904   2.910   4.573  0.4149  0.7407 -2.0255
   70MOL    H1634654   2.821   2.770   4.631  0.1079  3.4262  0.7705
   70MOL    H1734655   2.920   2.835   4.354 -0.8547 -1.4226 -1.1137
   70MOL    H1834656   2.851   2.682   4.369  2.1865 -0.7350  0.7208
   70MOL    H1934657   2.710   2.952   4.418 -1.8504 -0.6208  0.3026
   70MOL    H2034658   2.698   2.854   4.272 -0.6407 -0.1776 -0.3130
   70MOL    H2134659   2.505   2.828   4.408  0.1534  1.1506  1.9012
   70MOL    H2234660   2.590   2.776   4.552  1.2419 -1.2927 -0.3489
   70MOL    H2334661   2.662   2.564   4.443  0.2811  0.0177  0.1166
   70MOL    H2434662   2.485   2.582   4.426 -0.4102  0.3902  0.7306
   70MOL    H2534663   2.602   2.627   4.295  0.5461  1.0949 -0.4502
   70MOL    H2634664   3.297   2.815   4.817  3.1809  0.7593 -2.2811
   70MOL    C2734665   3.115   2.623   4.921  0.0036 -0.0005  0.4235
   70MOL    C2834666   2.975   2.558   4.929 -0.1437 -0.2495  0.2211
   70MOL    O2934667   2.981   2.478   5.047  0.2524  0.4879  0.2966
   70MOL    C3034668   2.993   2.341   5.018  0.2641  0.4009  0.8779
   70MOL    C3134669   2.982   2.271   5.162  0.4647 -0.4517 -0.1386
   70MOL    C3234670   3.102   2.293   5.259 -0.4749 -0.1385 -0.3737
   70MOL    C3334671   3.076   2.230   5.395  0.7443 -0.2593  0.5424
   70MOL    C3434672   3.201   2.208   5.485 -0.1634  0.8018 -0.5218
   70MOL    C3534673   3.163   2.154   5.626 -0.2993 -0.0460 -0.2638
   70MOL    H3634674   3.189   2.553   4.961 -0.9719 -1.5628 -0.4503
   70MOL    H3734675   3.129   2.712   4.982 -2.6459 -0.6332  2.0216
   70MOL    H3834676   2.960   2.508   4.833  0.4669  0.6619 -0.3547
   70MOL    H3934677   3.087   2.320   4.968 -0.3046 -1.9867  0.7250
   70MOL    H4034678   2.926   2.312   4.937  0.2537  2.0788  0.2744
   70MOL    H4134679   2.962   2.165   5.153 -0.8774 -0.6618  4.0336
   70MOL    H4234680   2.894   2.319   5.205  0.2366 -1.3824  0.4315
   70MOL    H4334681   3.192   2.248   5.218 -0.3517 -0.7891  0.5815
   70MOL    H4434682   3.107   2.401   5.270  1.6174 -0.3185  0.7376
   70MOL    H4534683   2.991   2.281   5.439 -0.2969 -1.1668 -0.3940
   70MOL    H4634684   3.022   2.137   5.376 -1.0683  1.2305 -1.7581
   70MOL    H4734685   3.256   2.128   5.434 -3.2062 -1.8391  0.1854
   70MOL    H4834686   3.269   2.293   5.493  0.9458  0.1340 -2.3263
   70MOL    H4934687   3.251   2.118   5.679 -1.9601 -0.0180  2.6404
   70MOL    H5034688   3.121   2.242   5.675 -1.9253 -0.8510 -0.1834
   70MOL    H5134689   3.098   2.067   5.625  1.8235 -1.6669 -2.4524
   70MOL    C5234690   2.865   2.665   4.940 -0.3232  0.3506  0.2085
   70MOL    C5334691   2.723   2.609   4.952  0.0179  0.0345  0.0528
   70MOL    O5434692   2.633   2.718   4.989 -0.8188 -0.1157  0.2141
   70MOL    C5534693   2.611   2.729   5.122 -0.2487 -0.1100 -0.1349
   70MOL    C5634694   2.490   2.831   5.138 -0.0165 -0.5615  0.1761
   70MOL    C5734695   2.538   2.975   5.132  0.7218 -0.4043 -0.5969
   70MOL    C5834696   2.414   3.067   5.130 -0.0449  0.2567 -0.3013
   70MOL    C5934697   2.451   3.206   5.111 -0.0419  0.2713  0.0397
   70MOL    C6034698   2.330   3.300   5.116 -0.4630 -0.9275 -0.3844
   70MOL    H6134699   2.868   2.743   4.864 -1.4582 -0.1707 -0.3876
   70MOL    H6234700   2.881   2.718   5.034  1.4555  1.0965 -0.5016
   70MOL    H6334701   2.723   2.532   5.029  2.5755  1.5880  1.6672
   70MOL    H6434702   2.700   2.753   5.181 -1.3489  2.1561  0.6786
   70MOL    H6534703   2.585   2.630   5.162 -0.1989  0.5747  1.6620
   70MOL    H6634704   2.439   2.803   5.231 -0.5894  0.1850  0.0890
   70MOL    H6734705   2.415   2.815   5.060  0.0494  1.3388 -0.2957
   70MOL    H6834706   2.600   2.993   5.219 -1.8670  1.3124  0.9690
   70MOL    H6934707   2.597   2.997   5.043 -0.7758  1.8048 -1.0867
   70MOL    H7034708   2.345   3.047   5.048  0.2271 -1.3537 -0.1455
   70MOL    H7134709   2.358   3.058   5.223 -1.9434  0.3139 -1.4061
   70MOL    H7234710   2.525   3.221   5.189 -0.9690  1.5158  0.7048
   70MOL    H7334711   2.492   3.226   5.011 -0.0209  1.4671  0.2732
   70MOL    H7434712   2.352   3.407   5.127 -0.7230 -0.8639 -0.4861
   70MOL    H7534713   2.258   3.293   5.035 -1.0570 -1.5545  0.1942
   70MOL    H7634714   2.277   3.285   5.210 -1.4427  1.5140 -0.5117
   70MOL    C7734715   2.656   2.558   4.818  0.0055 -0.0998 -0.7646
   70MOL    C7834716   2.536   2.465   4.847 -0.0328 -0.3285  0.2955
   70MOL    O7934717   2.567   2.325   4.873 -0.1397  0.5754  0.0680
   70MOL    C8034718   2.538   2.262   4.995 -0.1939 -0.7591 -0.2296
   70MOL    C8134719   2.593   2.129   5.002 -0.4340 -0.5738 -0.7039
   70MOL    C8234720   2.533   2.044   4.890  0.5961  0.8711  1.2469
   70MOL    C8334721   2.582   1.897   4.878 -0.7088 -0.3656 -0.3166
   70MOL    C8434722   2.527   1.817   4.763 -0.3031  0.0458  0.0185
   70MOL    C8534723   2.596   1.685   4.736 -0.1538 -0.6698  0.1546
   70MOL    H8634724   2.734   2.495   4.775 -0.1041 -0.1383 -0.9074
   70MOL    H8734725   2.641   2.643   4.752 -0.3027  0.8027  0.4468
   70MOL    H8834726   2.477   2.521   4.920 -1.0934  1.2206 -1.6864
   70MOL    H8934727   2.433   2.270   5.022  0.4200  1.8833  1.6304
   70MOL    H9034728   2.582   2.331   5.068 -1.7166  0.9999 -0.9435
   70MOL    H9134729   2.554   2.104   5.101  0.5199  1.1940  0.1591
   70MOL    H9234730   2.702   2.129   4.999 -0.4226 -0.5406 -0.3703
   70MOL    H9334731   2.426   2.028   4.902  0.3057  1.8870  0.1392
   70MOL    H9434732   2.564   2.091   4.796  1.1413 -0.4008  0.7831
   70MOL    H9534733   2.691   1.894   4.879 -0.4947  4.1721 -0.9929
   70MOL    H9634734   2.550   1.846   4.969  1.9583 -1.2761  0.1582
   70MOL    H9734735   2.421   1.803   4.783 -0.4534  1.4991  0.3377
   70MOL    H9834736   2.515   1.876   4.672 -0.7121 -2.7634 -1.7946
   70MOL    H9934737   2.581   1.605   4.809 -0.9493 -0.0701  0.6579
   70MOL   H10034738   2.557   1.630   4.651  2.1752 -1.2835 -0.5770
   70MOL   H10134739   2.702   1.702   4.714  0.4016 -0.8938  2.5116
   70MOL   C10234740   2.441   2.470   4.730  0.7895  0.1910 -0.0275
   70MOL   C10334741   2.302   2.415   4.762 -0.3770 -0.3508 -0.2716
   70MOL   O10434742   2.204   2.482   4.682 -0.1902  0.3261  0.5485
   70MOL   C10534743   2.142   2.591   4.746  0.6232 -0.0572  0.3544
   70MOL   C10634744   2.001   2.543   4.785 -0.0957 -0.5271 -0.1844
   70MOL   C10734745   1.924   2.654   4.846  0.3493 -0.1747  0.6467
   70MOL   C10834746   1.783   2.610   4.878 -0.6630 -0.2261  0.8992
   70MOL   C10934747   1.711   2.699   4.975  0.1770 -0.4188 -0.6795
   70MOL   C11034748   1.565   2.667   4.983  0.0846  0.4864 -0.3528
   70MOL   H11134749   2.426   2.578   4.719 -2.1356 -0.3307 -1.6587
   70MOL   H11234750   2.484   2.438   4.635 -0.1241 -2.2904  0.3753
   70MOL   H11334751   2.283   2.426   4.869  1.7766  0.0174  0.0963
   70MOL   H11434752   2.133   2.673   4.676 -1.2083  0.2638  0.9212
   70MOL   H11534753   2.200   2.633   4.828  0.0604  0.8820  0.2700
   70MOL   H11634754   2.005   2.465   4.862  2.2234 -0.7172 -0.4613
   70MOL   H11734755   1.942   2.512   4.699  1.4206  0.2705 -1.5323
   70MOL   H11834756   1.960   2.693   4.941  0.7574 -0.5505  0.6474
   70MOL   H11934757   1.917   2.744   4.786  1.1765  1.0362  2.3514
   70MOL   H12034758   1.720   2.613   4.789 -0.2970  1.9057  0.6811
   70MOL   H12134759   1.797   2.512   4.924  0.9131  0.0696  1.0742
   70MOL   H12234760   1.764   2.706   5.070 -0.3749  3.3168 -0.5854
   70MOL   H12334761   1.701   2.802   4.941 -2.1144 -0.9195 -1.6217
   70MOL   H12434762   1.516   2.689   4.889  1.1619 -4.0756 -2.1071
   70MOL   H12534763   1.548   2.560   4.998  1.0777  0.4772  0.8165
   70MOL   H12634764   1.506   2.728   5.051  2.0937  1.9852  0.0855
   70MOL   C12734765   2.289   2.265   4.722  0.3447 -0.4757 -0.1624
   70MOL   C12834766   2.173   2.190   4.800 -0.0490 -0.5853 -0.2989
   70MOL   O12934767   2.209   2.172   4.937 -0.4650  0.5532 -0.0487
   70MOL   C13034768   2.101   2.126   5.018 -0.1449  0.5341  0.1245
   70MOL   C13134769   2.132   2.107   5.166  0.3317  0.6646 -0.4094
   70MOL   C13234770   2.223   1.985   5.203  0.2649 -0.5237 -0.2992
   70MOL   C13334771   2.204   1.861   5.124  0.7773 -0.8692  0.0919
   70MOL   C13434772   2.281   1.742   5.177  0.6731 -0.7381 -0.6036
   70MOL   C13534773   2.311   1.633   5.068 -0.0418 -0.3303 -0.0675
   70MOL   H13634774   2.274   2.257   4.615  0.9201 -2.7803 -0.0982
   70MOL   H13734775   2.382   2.213   4.744 -0.4229 -2.8897 -2.3147
   70MOL   H13834776   2.086   2.256   4.799  0.7620  0.4904 -1.7310
   70MOL   H13934777   2.059   2.034   4.977  0.5961  0.2553 -0.0141
   70MOL   H14034778   2.010   2.185   5.006 -0.5689 -0.4039 -1.5228
   70MOL   H14134779   2.035   2.104   5.216 -0.0726 -0.9994 -1.2507
   70MOL   H14234780   2.184   2.196   5.202 -0.9070  1.4507 -0.5384
   70MOL   H14334781   2.330   2.007   5.198  0.2859 -0.6422 -0.3675
   70MOL   H14434782   2.209   1.966   5.310 -1.0392 -1.2618 -0.5872
   70MOL   H14534783   2.103   1.829   5.101 -0.1837  2.6967 -0.9917
   70MOL   H14634784   2.249   1.888   5.028 -0.3667 -0.7892 -0.4331
   70MOL   H14734785   2.378   1.783   5.203  1.1376 -2.6242  0.8017
   70MOL   H14834786   2.241   1.691   5.265  0.2032 -1.4018 -1.1905
   70MOL   H14934787   2.368   1.543   5.090  1.0843 -0.1465 -2.1062
   70MOL   H15034788   2.218   1.584   5.039 -0.2453 -0.4030  0.6970
   70MOL   H15134789   2.363   1.683   4.986  0.0208  0.2386  0.3244
   70MOL   C15234790   2.145   2.062   4.725  0.4091  0.4606  0.5463
   70MOL   C15334791   2.093   2.062   4.572  0.0586  0.5597  1.0246
   70MOL   O15434792   2.064   1.929   4.535 -0.4498 -0.4499 -1.0765
   70MOL   C15534793   2.180   1.846   4.501 -0.6384  1.1902  0.6631
   70MOL   C15634794   2.150   1.700   4.516  0.3656  0.3055  0.4677
   70MOL   C15734795   2.129   1.667   4.663  0.0283  0.6829  0.1556
   70MOL   C15834796   2.074   1.528   4.683  0.1186 -0.3178  0.6205
   70MOL   C15934797   2.161   1.409   4.624 -0.1079 -0.1635 -0.2001
   70MOL   C16034798   2.285   1.379   4.708  0.4012  0.8950  0.4808
   70MOL   H16134799   2.229   1.992   4.729  0.1080  0.0452 -0.1804
   70MOL   H16234800   2.060   2.008   4.767  1.8839 -0.5378  2.3048
   70MOL   H16334801   2.164   2.098   4.497 -1.3322  2.1980  0.4681
   70MOL   H16434802   2.265   1.861   4.567  0.1439 -2.5937  0.6303
   70MOL   H16534803   2.221   1.872   4.403 -0.7000  1.9309  0.8285
   70MOL   H16634804   2.219   1.630   4.468  0.7397  0.2608  1.0573
   70MOL   H16734805   2.058   1.683   4.459  1.2610  0.7314 -1.1251
   70MOL   H16834806   2.221   1.660   4.721 -1.2905  0.4710  2.2851
   70MOL   H16934807   2.062   1.740   4.708 -0.1261  2.1405 -2.3792
   70MOL   H17034808   2.053   1.514   4.789  1.0493  2.3208  1.1928
   70MOL   H17134809   1.973   1.524   4.643  0.5728 -2.6334 -0.4340
   70MOL   H17234810   2.113   1.311   4.623  1.9474 -1.2109  0.1609
   70MOL   H17334811   2.183   1.430   4.519 -1.0733 -0.2509 -0.4250
   70MOL   H17434812   2.349   1.467   4.709 -0.5030  1.5938 -1.5134
   70MOL   H17534813   2.252   1.357   4.810 -0.7310 -1.9296 -0.4404
   70MOL   H17634814   2.346   1.291   4.689 -0.1344  0.7804 -0.7889
   70MOL   C17734815   1.958   2.137   4.564 -0.1119  0.1129  0.5282
   70MOL   C17834816   1.906   2.174   4.428 -0.0403 -0.7136 -0.1154
   70MOL   O17934817   1.766   2.208   4.447  0.0688  0.3636  0.1700
   70MOL   C18034818   1.682   2.115   4.372  0.3476  0.3742 -0.5153
   70MOL   C18134819   1.539   2.169   4.391 -0.2450 -0.1952 -0.0292
   70MOL   C18234820   1.436   2.107   4.294 -0.7803 -0.8165 -0.6398
   70MOL   C18334821   1.298   2.163   4.329  0.3495 -0.0257  0.2459
   70MOL   C18434822   1.203   2.147   4.217  0.6453 -0.2656  0.2736
   70MOL   C18534823   1.079   2.227   4.237 -0.6549  0.2147  0.2202
   70MOL   H18634824   1.881   2.081   4.616 -0.8757 -0.1236 -0.8169
   70MOL   H18734825   1.966   2.228   4.624 -1.7701  1.0402 -0.6105
   70MOL   H18834826   1.918   2.092   4.358 -1.4013 -1.5245  0.5777
   70MOL   H18934827   1.693   2.015   4.415  0.6059  0.1925 -1.0046
   70MOL   H19034828   1.720   2.101   4.270  2.4866  0.3780  0.2564
   70MOL   H19134829   1.541   2.273   4.360  1.0664 -0.7130 -1.7286
   70MOL   H19234830   1.512   2.171   4.497  0.7436 -1.1836  0.2547
   70MOL   H19334831   1.467   2.135   4.193 -0.4723 -0.3972 -0.4315
   70MOL   H19434832   1.445   1.999   4.308 -2.3527 -0.9019 -0.1997
   70MOL   H19534833   1.258   2.123   4.421 -1.7215  1.4522  0.0259
   70MOL   H19634834   1.318   2.269   4.349  0.2614  0.1935 -0.7982
   70MOL   H19734835   1.258   2.178   4.128  0.0101 -0.2217 -0.1056
   70MOL   H19834836   1.183   2.043   4.189 -0.1550  0.0443 -0.3109
   70MOL   H19934837   1.108   2.332   4.246  0.8112 -0.0585 -1.1227
   70MOL   H20034838   1.001   2.226   4.161  0.0765  1.9534 -0.5686
   70MOL   H20134839   1.032   2.211   4.335 -0.2648  1.3522  0.6060
   70MOL   C20234840   1.958   2.302   4.373 -0.5203 -0.5692  0.7610
   70MOL   C20334841   2.107   2.307   4.320  0.1038 -0.2513 -0.1367
   70MOL   O20434842   2.131   2.435   4.260  0.3997  0.3259  0.8516
   70MOL   C20534843   2.156   2.539   4.355  0.1030  0.1389 -0.7143
   70MOL   C20634844   2.201   2.659   4.258 -0.2409 -0.7269 -0.3886
   70MOL   C20734845   2.213   2.796   4.329 -0.6477 -0.2527  0.0361
   70MOL   C20834846   2.276   2.898   4.240  0.5682  0.2037 -0.2670
   70MOL   C20934847   2.282   3.037   4.299  0.6848  0.5570  0.4428
   70MOL   C21034848   2.346   3.149   4.202  0.2604  0.2002  0.2541
   70MOL   H21134849   1.888   2.344   4.300  2.5705  0.5147 -1.6791
   70MOL   H21234850   1.959   2.380   4.448 -0.5546  0.6515 -0.4794
   70MOL   H21334851   2.176   2.308   4.405  0.2280 -1.6415 -0.1997
   70MOL   H21434852   2.237   2.516   4.424 -0.9346 -1.9527 -0.1342
   70MOL   H21534853   2.074   2.571   4.420 -0.3251 -1.5163 -0.4076
   70MOL   H21634854   2.122   2.671   4.184 -1.7895  0.1949  1.3476
   70MOL   H21734855   2.293   2.628   4.209  0.3677 -1.0167  0.9174
   70MOL   H21834856   2.113   2.829   4.356 -1.5013 -0.5672 -2.6308
   70MOL   H21934857   2.259   2.780   4.427 -3.6117  1.2386  1.7249
   70MOL   H22034858   2.369   2.854   4.206 -0.2948 -1.6718 -0.2409
   70MOL   H22134859   2.233   2.905   4.140  1.8867  0.3818 -0.8238
   70MOL   H22234860   2.180   3.063   4.329  0.9877  3.0732 -0.5532
   70MOL   H22334861   2.336   3.033   4.394  1.7586  2.0125 -0.0848
   70MOL   H22434862   2.309   3.249   4.227 -0.7010 -0.3147  0.9128
   70MOL   H22534863   2.453   3.151   4.221  0.2062  1.0465  0.4807
   70MOL   H22634864   2.332   3.134   4.095 -0.0270 -0.7139  0.4141
   70MOL   C22734865   2.144   2.197   4.222 -0.0486 -0.7214 -0.5358
   70MOL   C22834866   2.297   2.184   4.191  0.4394  0.5589 -0.8488
   70MOL   O22934867   2.370   2.138   4.313  0.3419  0.1094  0.1554
   70MOL   C23034868   2.484   2.214   4.350 -0.4299  0.2403  0.0189
   70MOL   C23134869   2.567   2.123   4.441 -0.7815 -0.0953 -0.1508
   70MOL   C23234870   2.676   2.193   4.522 -0.1757 -0.8761  0.4296
   70MOL   C23334871   2.767   2.094   4.594 -0.2868  0.4935 -0.5224
   70MOL   C23434872   2.849   2.151   4.706 -0.0682  0.1465 -0.8869
   70MOL   C23534873   2.972   2.226   4.648 -1.0919 -0.2749 -0.3115
   70MOL   H23634874   2.124   2.106   4.280 -0.0734 -0.4932 -0.1868
   70MOL   H23734875   2.088   2.209   4.130 -1.9984  1.6773  0.9316
   70MOL   H23834876   2.335   2.284   4.170 -0.2948  1.1300  0.4742
   70MOL   H23934877   2.454   2.312   4.386  2.7249  0.5741  1.9546
   70MOL   H24034878   2.543   2.238   4.261  0.4897  0.5645  0.7120
   70MOL   H24134879   2.600   2.040   4.379  0.2360 -0.8277  1.3260
   70MOL   H24234880   2.500   2.074   4.513  1.2559 -2.8068 -0.0336
   70MOL   H24334881   2.739   2.261   4.464 -2.8790 -0.4486 -2.1014
   70MOL   H24434882   2.631   2.254   4.600  1.0320 -0.4592  0.8224
   70MOL   H24534883   2.697   2.016   4.626 -1.7100  2.0037  0.1655
   70MOL   H24634884   2.825   2.049   4.515 -1.6402 -1.8839 -0.2053
   70MOL   H24734885   2.788   2.212   4.773 -1.6366 -2.8122  0.4658
   70MOL   H24834886   2.883   2.067   4.766  0.7970  1.4109  0.4286
   70MOL   H24934887   2.938   2.308   4.586 -0.1175 -0.6889 -1.4175
   70MOL   H25034888   3.033   2.271   4.727 -0.9462  0.4270 -0.8166
   70MOL   H25134889   3.026   2.159   4.580 -0.5299  1.1392 -1.2759
   70MOL   C25234890   2.333   2.091   4.074 -0.0957  0.2054 -0.2000
   70MOL   C25334891   2.362   2.159   3.933  0.3708 -0.0863 -0.1319
   70MOL   O25434892   2.229   2.178   3.895  0.6843 -0.0226  0.5754
   70MOL   C25534893   2.217   2.262   3.788 -0.2596  1.2160  0.6933
   70MOL   C25634894   2.068   2.266   3.746  0.5520  0.8544  0.6391
   70MOL   C25734895   2.061   2.340   3.617  1.0859  0.6596 -0.0934
   70MOL   C25834896   1.918   2.351   3.562  0.6696  0.4899  0.4295
   70MOL   C25934897   1.917   2.398   3.415  0.6311  0.4796  0.1102
   70MOL   C26034898   1.954   2.547   3.402 -0.7159 -0.5801  0.9741
   70MOL   H26134899   2.417   2.032   4.112  0.7052  2.0594  0.9965
   70MOL   H26234900   2.246   2.029   4.049  1.3801 -1.5465 -1.1862
   70MOL   H26334901   2.409   2.257   3.941 -0.1776  0.0198  2.2238
   70MOL   H26434902   2.278   2.235   3.702  1.2170 -0.2889  2.1747
   70MOL   H26534903   2.249   2.364   3.809  0.6645  1.0060  0.3032
   70MOL   H26634904   2.006   2.313   3.823  0.0111  0.3180  0.5351
   70MOL   H26734905   2.039   2.162   3.736  0.6932  0.9867 -1.4171
   70MOL   H26834906   2.108   2.438   3.623  1.0267  0.7359 -0.8913
   70MOL   H26934907   2.122   2.279   3.551  1.2607 -0.1375  0.7932
   70MOL   H27034908   1.865   2.257   3.576  3.3594 -1.5020 -2.1397
   70MOL   H27134909   1.855   2.404   3.633 -0.0858  0.1174  0.0376
   70MOL   H27234910   1.978   2.329   3.357  0.4028  1.1888 -0.9928
   70MOL   H27334911   1.810   2.388   3.396  0.8312  0.1377 -0.8488
   70MOL   H27434912   2.058   2.567   3.428  0.0713 -2.9641 -0.2145
   70MOL   H27534913   1.937   2.589   3.303 -1.4790  1.6595  2.0259
   70MOL   H27634914   1.887   2.608   3.462  0.6257  0.7153  1.1736
   70MOL   C27734915   2.437   2.067   3.836  0.4448 -0.1804 -0.4397
   70MOL   C27834916   2.567   2.009   3.898 -0.1666  0.2864  0.0489
   70MOL   O27934917   2.628   1.955   3.781 -0.2371 -0.2949  0.4395
   70MOL   C28034918   2.597   1.817   3.752 -0.4452  0.2657 -0.2206
   70MOL   C28134919   2.626   1.796   3.609 -0.0142 -0.1963 -0.1062
   70MOL   C28234920   2.582   1.654   3.560  0.4526  0.2558 -0.0851
   70MOL   C28334921   2.580   1.654   3.402 -0.0130 -0.8149 -0.2758
   70MOL   C28434922   2.499   1.539   3.343 -0.1303 -0.0004 -0.3544
   70MOL   C28534923   2.344   1.538   3.362  0.2338  0.6111 -0.4260
   70MOL   H28634924   2.366   1.992   3.801  0.5173  0.0639 -1.1142
   70MOL   H28734925   2.454   2.119   3.742 -1.2464  1.1648 -0.0211
   70MOL   H28834926   2.542   1.932   3.970 -1.0386 -0.7851 -1.3655
   70MOL   H28934927   2.489   1.800   3.760 -0.5700  0.4885 -1.4422
   70MOL   H29034928   2.655   1.745   3.810 -1.3938  0.5490  1.1247
   70MOL   H29134929   2.729   1.815   3.577  0.1208 -0.2893  0.2665
   70MOL   H29234930   2.572   1.878   3.562 -1.0534 -0.5265  0.4914
   70MOL   H29334931   2.639   1.575   3.609 -0.4119  0.7072  1.7232
   70MOL   H29434932   2.477   1.650   3.589  0.1294  0.5501 -1.2126
   70MOL   H29534933   2.527   1.743   3.367 -1.4216 -1.8189 -0.7508
   70MOL   H29634934   2.685   1.653   3.376 -0.3794  2.8782 -2.2879
   70MOL   H29734935   2.518   1.534   3.236  2.3108  2.4884 -0.1084
   70MOL   H29834936   2.534   1.444   3.384 -0.7501  0.0397  0.2844
   70MOL   H29934937   2.310   1.551   3.465 -0.8766 -2.5162 -0.3354
   70MOL   H30034938   2.295   1.611   3.297  2.6359  0.1176 -2.8991
   70MOL   H30134939   2.293   1.447   3.330  0.6763  0.0015  0.5919
   70MOL   C30234940   2.664   2.115   3.945 -0.0476  0.2710  0.5637
   70MOL   C30334941   2.802   2.083   4.008 -0.6230  0.0261 -0.3137
   70MOL   O30434942   2.844   2.209   4.065  0.1568  0.3454  0.0064
   70MOL   C30534943   2.959   2.201   4.156 -0.0169 -0.2698  0.7844
   70MOL   C30634944   2.994   2.342   4.205 -0.2060 -0.3468 -0.2533
   70MOL   C30734945   3.051   2.440   4.095  0.0754  0.5414 -0.6159
   70MOL   C30834946   3.056   2.580   4.143 -0.3110  0.0024  0.4432
   70MOL   C30934947   3.109   2.678   4.040  0.0661 -0.1427 -0.8339
   70MOL   C31034948   3.123   2.827   4.083 -0.5566  0.3461 -0.2688
   70MOL   H31134949   2.689   2.184   3.864 -1.8230 -1.4055 -1.4515
   70MOL   H31234950   2.608   2.173   4.018 -0.0382  1.1398 -0.1065
   70MOL   H31334951   2.790   1.999   4.077  2.2928 -0.1168  0.0582
   70MOL   H31434952   3.051   2.160   4.115 -1.0583 -1.2562 -0.6314
   70MOL   H31534953   2.938   2.140   4.243 -1.5976  0.6186  1.0509
   70MOL   H31634954   3.064   2.322   4.286  0.5254 -1.7132 -1.2022
   70MOL   H31734955   2.911   2.389   4.257  0.6446  2.4368 -1.3151
   70MOL   H31834956   3.153   2.408   4.071 -0.3148 -1.7419  0.6704
   70MOL   H31934957   3.000   2.422   4.001  1.3667  2.5942 -1.7738
   70MOL   H32034958   2.958   2.610   4.179 -1.1984 -1.5651 -0.6052
   70MOL   H32134959   3.120   2.585   4.231 -0.2718 -0.2294  0.4274
   70MOL   H32234960   3.210   2.651   4.011  1.3800 -0.6023  3.8790
   70MOL   H32334961   3.040   2.666   3.956 -0.1038  1.3723 -0.9143
   70MOL   H32434962   3.208   2.880   4.039 -2.0207  0.4495 -3.0749
   70MOL   H32534963   3.039   2.895   4.068  0.2539  1.4858  0.2746
   70MOL   H32634964   3.160   2.827   4.186  1.6696 -2.7809 -1.0042
   70MOL   C32734965   2.903   2.037   3.900  0.1534  0.6086  0.1156
   70MOL   C32834966   2.983   1.912   3.932  0.2601 -0.3790 -0.3540
   70MOL   O32934967   2.912   1.798   3.890 -0.4816 -0.3370 -0.3695
   70MOL   C33034968   2.939   1.678   3.946 -0.2336 -0.6883 -0.2355
   70MOL   C33134969   2.836   1.656   4.058 -0.4166  1.3925  0.5054
   70MOL   C33234970   2.874   1.695   4.202  0.1442 -0.1176  1.0375
   70MOL   C33334971   2.753   1.676   4.301 -0.3445 -0.7395  0.5275
   70MOL   C33434972   2.637   1.772   4.273  0.0285 -0.1726 -0.2495
   70MOL   C33534973   2.512   1.745   4.357  0.6190 -0.6100 -0.2257
   70MOL   H33634974   2.964   2.125   3.879  0.8989  0.6557  2.3655
   70MOL   H33734975   2.857   2.029   3.801  1.6621  3.1056 -0.8240
   70MOL   H33834976   3.004   1.900   4.038  0.4468 -0.5537 -0.4114
   70MOL   H33934977   3.045   1.660   3.967 -0.1294 -1.1797 -1.1422
   70MOL   H34034978   2.911   1.613   3.864 -0.4047 -0.8824 -0.0209
   70MOL   H34134979   2.826   1.548   4.063  4.2041  0.7800 -1.1592
   70MOL   H34234980   2.746   1.708   4.022 -1.2227 -0.7189 -0.6343
   70MOL   H34334981   2.954   1.627   4.234  2.5787  2.6859  1.0889
   70MOL   H34434982   2.930   1.788   4.214  1.2026 -0.6962  0.7014
   70MOL   H34534983   2.725   1.571   4.298 -1.6109 -0.4520  1.9864
   70MOL   H34634984   2.799   1.686   4.399 -0.7219 -3.0980  0.9670
   70MOL   H34734985   2.665   1.876   4.291 -0.0874 -0.0797 -0.5965
   70MOL   H34834986   2.612   1.767   4.167  1.3740  0.5247 -0.6118
   70MOL   H34934987   2.468   1.649   4.330  1.3950 -1.5206  1.6873
   70MOL   H35034988   2.531   1.736   4.464 -1.0026  0.2468  0.1488
   70MOL   H35134989   2.431   1.817   4.358 -0.8746 -2.1815 -2.8560
   70MOL   C35234990   3.133   1.922   3.872 -1.0107  0.5055  0.5327
   70MOL   C35334991   3.156   1.940   3.717  0.0933  0.5924 -0.7891
   70MOL   O35434992   3.121   1.818   3.650 -0.0398  0.4976  0.2132
   70MOL   C35534993   3.013   1.826   3.554  0.4881 -0.2468  0.1476
   70MOL   C35634994   3.066   1.864   3.415 -0.6528 -0.6429  0.1575
   70MOL   C35734995   2.979   1.957   3.333 -0.2197 -0.6437  0.5878
   70MOL   C35834996   3.059   2.045   3.236 -0.4976 -0.3762 -0.2089
   70MOL   C35934997   2.978   2.111   3.122  0.0111 -0.1242  0.0719
   70MOL   C36034998   3.069   2.118   2.999 -0.3040  0.0709 -0.3129
   70MOL   H36134999   3.176   2.005   3.929 -0.9813  0.0043  1.2551
   70MOL   H36235000   3.194   1.840   3.910  0.3781  0.9433 -0.7313
   70MOL   H36335001   3.095   2.023   3.682  1.5384  0.7255 -3.1265
   70MOL   H36435002   2.945   1.895   3.603  1.2549 -0.3312  1.3473
   70MOL   H36535003   2.971   1.726   3.539  1.2064 -0.1196 -2.9888
   70MOL   H36635004   3.094   1.770   3.368  1.9368  0.5384 -0.7110
   70MOL   H36735005   3.171   1.893   3.419 -0.6772 -0.6972  1.7796
   70MOL   H36835006   2.897   1.899   3.291 -1.3971  0.6315  1.0687
   70MOL   H36935007   2.922   2.024   3.398 -0.3120  1.7650 -1.8710
   70MOL   H37035008   3.106   2.130   3.286  1.1210 -0.9410 -0.7175
   70MOL   H37135009   3.145   1.984   3.207 -0.2012  0.1103 -0.3436
   70MOL   H37235010   2.899   2.037   3.106 -0.0059  0.4783 -2.9485
   70MOL   H37335011   2.944   2.208   3.159 -0.8330 -0.0645 -0.8180
   70MOL   H37435012   3.087   2.016   2.966 -0.6239 -0.1877  0.3138
   70MOL   H37535013   3.015   2.169   2.920 -0.0889  0.5207 -0.1712
   70MOL   H37635014   3.160   2.178   3.007 -1.4861  2.1299 -1.7165
   70MOL   C37735015   3.295   1.973   3.680 -0.2459  0.9789 -0.9434
   70MOL   C37835016   3.348   2.117   3.718 -0.3357  0.1755  0.1700
   70MOL   O37935017   3.275   2.222   3.659  0.3512  0.5401  0.3352
   70MOL   C38035018   3.193   2.304   3.745 -0.0410 -0.0506 -0.3652
   70MOL   C38135019   3.085   2.397   3.680  0.2852 -0.3411 -0.0371
   70MOL   C38235020   2.972   2.327   3.605 -0.3511 -0.1386 -0.0640
   70MOL   C38335021   2.880   2.409   3.521  0.4110  0.2874  0.1074
   70MOL   C38435022   2.781   2.329   3.436  0.1082 -0.4959 -0.1593
   70MOL   C38535023   2.683   2.237   3.519  0.4325 -0.3648  0.2446
   70MOL   H38635024   3.356   1.903   3.738 -0.7905  1.0472 -0.2869
   70MOL   H38735025   3.313   1.942   3.577 -0.5124 -0.2565 -0.6281
   70MOL   H38835026   3.358   2.131   3.826  0.4519 -0.8944  0.2411
   70MOL   H38935027   3.249   2.357   3.821  0.0989 -1.9246  0.8640
   70MOL   H39035028   3.134   2.227   3.795  1.6799  0.1207  1.9839
   70MOL   H39135029   3.137   2.465   3.612 -0.2773  1.4742  1.3255
   70MOL   H39235030   3.046   2.463   3.757  2.5475  2.4271 -1.1726
   70MOL   H39335031   3.017   2.253   3.538  1.4493  0.1476  0.7952
   70MOL   H39435032   2.920   2.268   3.680  2.9495 -1.8087  0.9982
   70MOL   H39535033   2.813   2.464   3.588 -1.4836 -1.0411 -0.6532
   70MOL   H39635034   2.929   2.485   3.461  0.7782 -1.3387 -1.6781
   70MOL   H39735035   2.712   2.400   3.391 -1.0787 -1.0253  0.8007
   70MOL   H39835036   2.833   2.292   3.348  0.9459  1.1879 -0.3939
   70MOL   H39935037   2.599   2.215   3.453 -0.0776  0.8844  0.4519
   70MOL   H40035038   2.737   2.145   3.539 -0.0977 -0.8680 -0.5906
   70MOL   H40135039   2.645   2.272   3.615  2.0340 -2.4405  1.6765
   70MOL   C40235040   3.494   2.143   3.671  0.6806  0.0817 -0.0168
   70MOL   C40335041   3.566   2.268   3.722  0.1637  0.0812 -0.2404
   70MOL   O40435042   3.535   2.280   3.857 -0.8639 -0.2917  0.0291
   70MOL   C40535043   3.607   2.200   3.957  0.7853  0.0478  0.5810
   70MOL   C40635044   3.530   2.188   4.087 -0.1490  0.2507 -0.7939
   70MOL   C40735045   3.480   2.333   4.127  0.2452 -0.4254  0.1116
   70MOL   C40835046   3.430   2.310   4.272  0.6828  0.5446  0.9090
   70MOL   C40935047   3.412   2.433   4.355 -0.0753  0.4038 -0.0309
   70MOL   C41035048   3.322   2.420   4.486  0.2404  0.2352 -0.0320
   70MOL   H41135049   3.493   2.151   3.562  0.6303  1.4620  0.0742
   70MOL   H41235050   3.544   2.050   3.695  2.0702  1.0564  0.9723
   70MOL   H41335051   3.674   2.256   3.715  0.1203 -1.8012  1.7637
   70MOL   H41435052   3.704   2.248   3.976  0.8767 -0.5665  1.7262
   70MOL   H41535053   3.626   2.103   3.913  0.9918 -0.0277  0.8323
   70MOL   H41635054   3.597   2.141   4.159 -1.2237 -0.4867 -0.2721
   70MOL   H41735055   3.441   2.128   4.071 -1.6621  2.7205 -1.9640
   70MOL   H41835056   3.569   2.395   4.130 -1.5515  2.2255 -0.0400
   70MOL   H41935057   3.413   2.377   4.054  0.7775 -2.3887 -1.5937
   70MOL   H42035058   3.338   2.254   4.257  0.2968  1.6886 -1.1200
   70MOL   H42135059   3.508   2.254   4.325  2.0550  2.2849  0.7674
   70MOL   H42235060   3.504   2.486   4.375 -0.3575  0.7042  0.4797
   70MOL   H42335061   3.366   2.504   4.285 -0.4585 -0.5406 -0.7476
   70MOL   H42435062   3.366   2.343   4.549 -0.4517 -0.7929 -0.7876
   70MOL   H42535063   3.323   2.516   4.538 -2.5469  0.9916 -1.2870
   70MOL   H42635064   3.225   2.385   4.452 -0.5968  1.8170  0.6563
   70MOL   C42735065   3.541   2.405   3.657  0.1077 -0.7293 -0.3234
   70MOL   C42835066   3.640   2.518   3.681 -0.1547 -0.1447 -0.2137
   70MOL   O42935067   3.728   2.517   3.567 -0.4878  0.8104  0.2215
   70MOL   C43035068   3.850   2.593   3.569 -0.6523 -0.1853 -0.0274
   70MOL   C43135069   3.875   2.655   3.427  0.2115  0.2736 -0.5153
   70MOL   C43235070   4.000   2.734   3.420 -1.2585 -0.2404 -0.3629
   70MOL   C43335071   4.125   2.646   3.410  0.2762 -0.1028 -0.1471
   70MOL   C43435072   4.258   2.720   3.385 -0.2050  0.0418  0.2017
   70MOL   C43535073   4.308   2.816   3.491  0.4183  0.1239 -0.1051
   70MOL   H43635074   3.533   2.387   3.550  1.9962  0.9496 -0.7787
   70MOL   H43735075   3.440   2.434   3.687  1.3744  1.7590  1.7755
   70MOL   H43835076   3.704   2.496   3.766  0.2645  4.5533  0.8119
   70MOL   H43935077   3.924   2.520   3.603  0.0195  0.0774 -0.8863
   70MOL   H44035078   3.849   2.673   3.643 -0.5599 -0.6870  0.5249
   70MOL   H44135079   3.784   2.712   3.409 -0.7177 -1.4643 -1.5122
   70MOL   H44235080   3.889   2.573   3.357  1.0457 -0.1091  0.0881
   70MOL   H44335081   3.985   2.803   3.337 -1.1556 -1.1018 -1.0964
   70MOL   H44435082   4.015   2.796   3.509 -3.8038  1.5013 -1.0993
   70MOL   H44535083   4.130   2.598   3.508 -0.9995 -0.2298 -0.1307
   70MOL   H44635084   4.118   2.568   3.334 -0.9348  0.8932 -1.0705
   70MOL   H44735085   4.328   2.637   3.375  0.4959  0.7008 -0.4540
   70MOL   H44835086   4.271   2.773   3.290  2.2904 -0.4118  0.2436
   70MOL   H44935087   4.282   2.787   3.593 -3.4554 -0.2230 -1.1296
   70MOL   H45035088   4.417   2.822   3.479  0.4491 -0.5287 -0.1527
   70MOL   H45135089   4.267   2.917   3.482 -0.8411 -0.1408  2.3015
   70MOL   C45235090   3.583   2.653   3.698  0.2488  0.5688  0.0366
   70MOL   C45335091   3.490   2.685   3.821 -0.2721 -0.2613 -0.3660
   70MOL   O45435092   3.410   2.805   3.794  0.0084 -0.1136  0.2382
   70MOL   C45535093   3.297   2.776   3.722 -0.4876 -0.6217 -0.0083
   70MOL   C45635094   3.218   2.907   3.725 -0.4397 -0.0525 -0.6160
   70MOL   C45735095   3.074   2.877   3.683 -0.2982 -0.6184 -0.5701
   70MOL   C45835096   2.985   3.001   3.671  0.5346 -0.3443 -0.0095
   70MOL   C45935097   2.949   3.058   3.809 -0.4883  0.4991  0.1147
   70MOL   C46035098   2.828   2.991   3.884  0.1997  0.3237 -0.4571
   70MOL   H46135099   3.673   2.713   3.710  1.7839 -1.4566 -0.8889
   70MOL   H46235100   3.534   2.675   3.604  0.4726 -2.3195 -0.8069
   70MOL   H46335101   3.428   2.599   3.848 -1.9635  1.8117  2.5941
   70MOL   H46435102   3.234   2.702   3.773 -2.6199  2.0535  1.4277
   70MOL   H46535103   3.314   2.737   3.622 -2.3728  1.8079 -1.3421
   70MOL   H46635104   3.268   2.988   3.671 -0.8654  1.2388  0.8848
   70MOL   H46735105   3.217   2.941   3.828 -1.7569 -0.7830 -0.3830
   70MOL   H46835106   3.074   2.839   3.580  1.1652  0.6218 -1.0410
   70MOL   H46935107   3.030   2.803   3.750 -1.7784  0.5877 -0.1701
   70MOL   H47035108   3.041   3.082   3.625 -0.1979  1.2458  1.8504
   70MOL   H47135109   2.890   2.980   3.622 -1.3553  0.9912  2.9623
   70MOL   H47235110   3.036   3.064   3.875  3.0171  0.8421 -4.2394
   70MOL   H47335111   2.913   3.160   3.805 -0.1548  0.6374  0.6188
   70MOL   H47435112   2.809   3.037   3.981 -1.4656  0.7439 -0.9651
   70MOL   H47535113   2.737   3.005   3.826  0.0820  0.2993 -0.2821
   70MOL   H47635114   2.839   2.886   3.911 -0.3621 -0.9673 -4.9770
   70MOL   C47735115   3.580   2.702   3.950  0.3882 -0.2478 -0.2289
   70MOL   C47835116   3.492   2.739   4.073 -0.3891  0.3272 -0.4474
   70MOL   O47935117   3.571   2.750   4.197  0.4667  0.3124  0.5882
   70MOL   C48035118   3.492   2.783   4.317 -0.1155 -0.6167 -0.8146
   70MOL   C48135119   3.490   2.933   4.329 -0.9747 -0.8645  0.6079
   70MOL   C48235120   3.432   2.988   4.462 -0.1714  0.0596  0.3700
   70MOL   C48335121   3.284   3.039   4.453 -0.5633 -0.2354 -0.2641
   70MOL   C48435122   3.243   3.082   4.592 -0.2155 -0.8242 -0.3119
   70MOL   C48535123   3.104   3.142   4.615  0.0844  0.0334  0.2774
   70MOL   H48635124   3.639   2.612   3.969  0.8693 -0.2569 -1.6785
   70MOL   H48735125   3.650   2.784   3.932  0.3560 -0.2515 -0.3772
   70MOL   H48835126   3.452   2.840   4.065 -2.5815 -0.4019  0.7644
   70MOL   H48935127   3.541   2.754   4.410 -1.1630  0.2346  0.0089
   70MOL   H49035128   3.392   2.740   4.320 -0.2675 -0.1832  3.4638
   70MOL   H49135129   3.416   2.968   4.256  0.0798 -0.2320 -0.1707
   70MOL   H49235130   3.586   2.981   4.310 -1.6522  1.2260  2.3105
   70MOL   H49335131   3.436   2.919   4.546 -2.4932  0.6967  1.0412
   70MOL   H49435132   3.494   3.069   4.500  0.3819 -0.1616 -0.0452
   70MOL   H49535133   3.278   3.127   4.389 -0.4042 -2.3264 -3.2733
   70MOL   H49635134   3.217   2.965   4.408  1.2832 -1.8327 -0.4548
   70MOL   H49735135   3.247   3.001   4.665  0.1747 -0.1928  0.3788
   70MOL   H49835136   3.312   3.163   4.612  0.4449 -1.5815  0.5281
   70MOL   H49935137   3.028   3.064   4.609  0.7143 -0.5568 -0.1157
   70MOL   H50035138   3.108   3.198   4.708  0.4895  2.0244 -0.9108
   70MOL   H50135139   3.081   3.220   4.542 -2.3694 -0.4554  0.4713
   70MOL   H50235140   3.405   2.675   4.085 -0.7942  0.5433 -2.1428
   71MOL     C135141   7.497   6.111   3.313  0.0963 -0.0553 -0.4646
   71MOL     C235142   7.542   5.982   3.254 -0.9746 -0.2218  0.1334
   71MOL     O335143   7.437   5.908   3.199 -0.3305  0.6554 -0.0416
   71MOL     C435144   7.424   5.893   3.059  0.0478  0.1153 -0.0293
   71MOL     C535145   7.319   5.788   3.027  1.2161 -0.3041 -0.6056
   71MOL     C635146   7.186   5.828   3.090  0.1977 -0.0150 -0.3772
   71MOL     C735147   7.075   5.735   3.071  0.2026  0.4405 -0.0109
   71MOL     C835148   6.954   5.777   3.158 -0.1913  0.1340  0.0779
   71MOL     C935149   6.833   5.688   3.139 -0.5889 -0.6855  0.1274
   71MOL    H1035150   7.577   6.185   3.319  1.0232 -0.9341 -1.9208
   71MOL    H1135151   7.415   6.150   3.252 -2.5270 -1.4375  2.0468
   71MOL    H1235152   7.609   6.014   3.175 -0.1154 -1.4727  0.3376
   71MOL    H1335153   7.520   5.862   3.018 -1.1501 -3.4104 -0.3396
   71MOL    H1435154   7.408   5.988   3.009 -0.5931 -0.8916 -1.7678
   71MOL    H1535155   7.348   5.687   3.054  0.7273 -0.4539 -0.6305
   71MOL    H1635156   7.317   5.783   2.918 -1.1068  1.3338 -0.6974
   71MOL    H1735157   7.194   5.845   3.197 -2.2950 -0.0116 -0.1459
   71MOL    H1835158   7.149   5.920   3.046  0.3983 -0.0508 -0.6204
   71MOL    H1935159   7.057   5.720   2.965 -0.1044 -0.4353  0.1644
   71MOL    H2035160   7.119   5.639   3.098  0.9291  0.7214 -0.1810
   71MOL    H2135161   6.933   5.883   3.141  2.2903  0.6824  0.2225
   71MOL    H2235162   6.988   5.770   3.261 -0.7459 -0.6792  0.2106
   71MOL    H2335163   6.758   5.693   3.219  1.5009 -0.6378  2.1409
   71MOL    H2435164   6.784   5.699   3.042  0.4199  0.8220 -0.2111
   71MOL    H2535165   6.868   5.584   3.139  0.4405 -0.3455 -0.3231
   71MOL    H2635166   7.459   6.089   3.413  0.4639 -0.5530 -0.4393
   71MOL    C2735167   7.622   5.881   3.341 -0.0067 -0.5891 -0.3101
   71MOL    C2835168   7.772   5.896   3.352  0.2132  0.2454  0.7046
   71MOL    O2935169   0.041   5.874   3.487 -0.0940 -0.0290 -0.6300
   71MOL    C3035170   0.063   5.994   3.557 -0.4313  0.0266  0.2429
   71MOL    C3135171   0.131   5.973   3.700 -0.5151  0.1358  0.2183
   71MOL    C3235172   0.121   6.104   3.778 -0.0987  0.7521  0.2936
   71MOL    C3335173   0.212   6.102   3.903 -0.3858 -0.3423 -0.0827
   71MOL    C3435174   0.207   6.225   3.991 -0.2310  0.1426  0.1383
   71MOL    C3535175   0.244   6.364   3.919  0.5269  0.4825 -0.0492
   71MOL    H3635176   7.589   5.887   3.445  1.2497  0.1170  0.0606
   71MOL    H3735177   7.598   5.777   3.321 -0.7589 -0.7891  1.5118
   71MOL    H3835178   0.012   5.996   3.313  0.7897 -0.1828 -0.1438
   71MOL    H3935179   7.752   6.057   3.572 -0.2255 -0.0011  1.6086
   71MOL    H4035180   0.127   6.058   3.497 -2.3730  1.4613 -0.3823
   71MOL    H4135181   0.231   5.943   3.669 -1.4360  0.3748 -3.1429
   71MOL    H4235182   0.090   5.889   3.756 -0.8287 -0.0192 -0.2379
   71MOL    H4335183   0.160   6.183   3.715 -0.3577 -0.8261 -1.8769
   71MOL    H4435184   0.015   6.119   3.802 -0.6951 -0.7568 -1.2573
   71MOL    H4535185   0.196   6.013   3.963 -2.7465 -1.4379 -2.2379
   71MOL    H4635186   0.309   6.095   3.853 -0.9382  0.4243 -1.2940
   71MOL    H4735187   0.112   6.239   4.041 -0.6133  0.3807 -0.6507
   71MOL    H4835188   0.283   6.212   4.069 -0.0859  2.3972  0.4218
   71MOL    H4935189   0.353   6.371   3.923  0.6557 -1.8806  1.6585
   71MOL    H5035190   0.189   6.401   3.833  0.6735  1.3285  0.2144
   71MOL    H5135191   0.205   6.448   3.977 -2.6003 -2.3919  2.2646
   71MOL    C5235192   0.063   5.792   3.261  0.0739  0.2014 -0.0440
   71MOL    C5335193   0.216   5.796   3.246 -0.3232  0.6038  0.3627
   71MOL    O5435194   0.266   5.683   3.173 -0.0901  0.3661 -0.1759
   71MOL    C5535195   0.275   5.570   3.251  0.1878 -0.3216 -0.0290
   71MOL    C5635196   0.366   5.478   3.172  0.0715 -0.3465  0.0291
   71MOL    C5735197   0.508   5.531   3.163 -0.1451 -0.8981  0.2519
   71MOL    C5835198   0.589   5.517   3.293 -0.0105 -0.4501  0.3591
   71MOL    C5935199   0.733   5.566   3.276  0.2341 -0.2077 -0.0778
   71MOL    C6035200   0.739   5.721   3.257 -0.6268 -0.5568  0.0984
   71MOL    H6135201   0.009   5.789   3.167  0.9380 -2.8558 -0.5079
   71MOL    H6235202   0.046   5.695   3.307 -2.5228  1.4649  1.7935
   71MOL    H6335203   0.257   5.793   3.346  0.2432 -0.6620  0.1046
   71MOL    H6435204   0.176   5.524   3.244 -0.0843  0.2657 -0.0851
   71MOL    H6535205   0.301   5.570   3.356 -1.2210 -1.3519  0.3426
   71MOL    H6635206   0.334   5.464   3.068 -0.5997  1.5265 -0.0422
   71MOL    H6735207   0.378   5.379   3.215  0.0470 -2.0209 -3.5723
   71MOL    H6835208   0.556   5.480   3.080  1.3235  1.9355 -0.7032
   71MOL    H6935209   0.502   5.634   3.127  4.3684 -0.7965 -0.4810
   71MOL    H7035210   0.534   5.566   3.373 -0.3845  1.4019 -1.0083
   71MOL    H7135211   0.605   5.412   3.318  1.2091 -1.1016 -2.9583
   71MOL    H7235212   0.778   5.534   3.370  1.9951  0.0944 -0.7986
   71MOL    H7335213   0.786   5.509   3.199  0.7861  0.7971 -0.4529
   71MOL    H7435214   0.832   5.746   3.206  2.0899 -1.2399  4.4631
   71MOL    H7535215   0.655   5.768   3.207 -0.2314 -0.4049 -0.4242
   71MOL    H7635216   0.737   5.762   3.358 -0.4750 -0.4908  0.0752
   71MOL    C7735217   0.260   5.922   3.169 -0.4021  1.2538 -0.1275
   71MOL    C7835218   0.408   5.962   3.184 -0.0263 -0.4499  0.4386
   71MOL    O7935219   0.415   6.042   3.302  0.3617  0.0069  0.8679
   71MOL    C8035220   0.492   5.987   3.409 -0.1322 -1.1217  0.1560
   71MOL    C8135221   0.493   6.088   3.528  0.8422  0.3544  0.0497
   71MOL    C8235222   0.616   6.062   3.625  0.0212 -0.4138 -0.8864
   71MOL    C8335223   0.605   6.130   3.770  0.1748 -0.3950 -0.5413
   71MOL    C8435224   0.709   6.085   3.870 -0.5441 -0.3448  0.6384
   71MOL    C8535225   0.857   6.113   3.821  0.7465 -0.7161 -0.1840
   71MOL    H8635226   0.191   5.999   3.203  0.6389  2.5509 -0.9229
   71MOL    H8735227   0.241   5.912   3.062  1.7797 -1.1764 -0.3604
   71MOL    H8835228   0.473   5.874   3.184  0.6278  0.0105  2.6268
   71MOL    H8935229   0.594   5.973   3.375  0.1326  2.0327 -0.5231
   71MOL    H9035230   0.457   5.886   3.431 -1.3303 -1.0753 -1.4748
   71MOL    H9135231   0.395   6.099   3.574 -0.6042 -1.9410 -2.3653
   71MOL    H9235232   0.512   6.190   3.494 -2.5783 -0.1150 -3.6422
   71MOL    H9335233   0.637   5.956   3.643  1.0069  0.4426  3.4922
   71MOL    H9435234   0.711   6.096   3.585  0.1650  0.5221  0.2162
   71MOL    H9535235   0.632   6.232   3.745  0.9934 -0.2732  0.7883
   71MOL    H9635236   0.506   6.104   3.806  0.1422 -1.1905 -1.1744
   71MOL    H9735237   0.693   6.143   3.961 -0.5319  2.4567 -1.0651
   71MOL    H9835238   0.696   5.983   3.905  0.7432  0.5503  3.9653
   71MOL    H9935239   0.883   6.218   3.833 -1.8518 -0.0842  0.2705
   71MOL   H10035240   0.934   6.068   3.883 -0.3991 -1.4404  0.7270
   71MOL   H10135241   0.868   6.068   3.723 -0.4076  0.2867 -0.7871
   71MOL   C10235242   0.462   6.062   3.075 -0.1053  0.3262 -0.6206
   71MOL   C10335243   0.522   5.995   2.951 -0.7383 -0.0755 -0.1625
   71MOL   O10435244   0.423   5.918   2.886 -0.4977  0.2690  0.4201
   71MOL   C10535245   0.455   5.791   2.845 -0.3477  0.1971  0.2721
   71MOL   C10635246   0.326   5.733   2.784  0.2602  0.0880  0.4132
   71MOL   C10735247   0.201   5.711   2.873 -0.5743 -0.8867 -0.2322
   71MOL   C10835248   0.088   5.662   2.774  0.2330  0.0604 -0.3681
   71MOL   C10935249   7.740   5.611   2.837  0.1558  0.2710 -0.4220
   71MOL   C11035250   7.652   5.556   2.727  0.0828 -0.5714 -0.3962
   71MOL   H11135251   0.388   6.140   3.058 -1.4535 -0.9071 -0.5420
   71MOL   H11235252   0.549   6.110   3.118  0.0229  0.8499 -1.4511
   71MOL   H11335253   0.605   5.931   2.978  0.5449  2.0330  0.9852
   71MOL   H11435254   0.481   5.729   2.931  2.1589  1.0215  0.1799
   71MOL   H11535255   0.529   5.787   2.764  0.6307 -3.0076  1.2749
   71MOL   H11635256   0.350   5.632   2.749  2.0648  0.1036  1.5529
   71MOL   H11735257   0.294   5.798   2.702  1.5495 -0.0730 -0.2351
   71MOL   H11835258   0.227   5.637   2.948 -1.3404 -0.8557  0.0644
   71MOL   H11935259   0.166   5.798   2.927  1.4433 -0.0715 -0.2201
   71MOL   H12035260   0.065   5.744   2.706  0.0763  0.9915  0.7747
   71MOL   H12135261   0.131   5.586   2.709 -0.8965 -0.9996  0.1015
   71MOL   H12235262   7.767   5.537   2.913  0.3096  0.4341 -0.3201
   71MOL   H12335263   7.681   5.685   2.892 -0.4672  0.7199 -1.6797
   71MOL   H12435264   7.564   5.512   2.775  0.4061  1.0302  1.7137
   71MOL   H12535265   7.621   5.647   2.677 -0.1118  0.6182  1.8478
   71MOL   H12635266   7.698   5.490   2.654  0.0886  0.4260 -1.2933
   71MOL   C12735267   0.581   6.101   2.853  0.6523  0.4252  0.4253
   71MOL   C12835268   0.644   6.043   2.725 -0.0688  0.3898  0.6604
   71MOL   O12935269   0.762   5.961   2.753  0.3905  0.3677  0.2083
   71MOL   C13035270   0.872   6.011   2.824  0.0873  0.4094 -0.2369
   71MOL   C13135271   0.980   5.903   2.839 -0.1275 -0.0505 -0.3259
   71MOL   C13235272   1.016   5.847   2.696  0.4965 -0.8960 -0.8210
   71MOL   C13335273   1.119   5.726   2.713  0.0982  0.0377  0.0961
   71MOL   C13435274   1.184   5.679   2.586  0.1972 -0.8893  0.0310
   71MOL   C13535275   1.087   5.643   2.472 -0.0364  0.5742  0.1874
   71MOL   H13635276   0.493   6.151   2.812  1.7196  0.1090 -2.4116
   71MOL   H13735277   0.643   6.169   2.910  2.7141 -0.9872 -0.0588
   71MOL   H13835278   0.573   5.979   2.672  0.9596  0.9227 -1.4336
   71MOL   H13935279   0.845   6.048   2.923  1.6713 -0.5818  0.5776
   71MOL   H14035280   0.902   6.100   2.769  0.2624 -0.6795 -1.9573
   71MOL   H14135281   0.945   5.817   2.895 -2.1336 -0.3223 -1.9454
   71MOL   H14235282   1.073   5.942   2.882  0.3993 -0.4591 -1.0873
   71MOL   H14335283   0.926   5.813   2.645  0.0323  0.1687 -0.7165
   71MOL   H14435284   1.061   5.926   2.636 -0.9015 -1.2687 -2.4242
   71MOL   H14535285   1.195   5.754   2.787 -0.2609  2.8113 -0.5173
   71MOL   H14635286   1.061   5.647   2.760 -0.0388  0.8549  1.3549
   71MOL   H14735287   1.255   5.757   2.560  0.0201 -0.4439  0.8447
   71MOL   H14835288   1.251   5.599   2.618 -0.9150 -1.6686  0.4923
   71MOL   H14935289   1.019   5.561   2.498 -1.3018  0.8990 -1.9808
   71MOL   H15035290   1.016   5.722   2.448 -2.0358  0.4517  5.1893
   71MOL   H15135291   1.160   5.627   2.393  1.0956 -1.6014  1.6096
   71MOL   C15235292   0.682   6.162   2.639 -0.3594 -0.1695 -0.0451
   71MOL   C15335293   0.765   6.118   2.520  0.2701 -0.5005 -1.2562
   71MOL   O15435294   0.690   6.018   2.445 -0.0080 -0.0410 -0.6831
   71MOL   C15535295   0.766   5.909   2.406 -0.4161 -0.2329 -0.1408
   71MOL   C15635296   0.674   5.821   2.321 -0.6036  0.1079  0.2417
   71MOL   C15735297   0.562   5.757   2.404 -0.4134 -0.2555  0.0145
   71MOL   C15835298   0.471   5.669   2.328 -0.9591  0.2374  0.1780
   71MOL   C15935299   0.331   5.643   2.397  0.1581  0.0353 -0.5345
   71MOL   C16035300   0.246   5.555   2.305  0.4981 -0.0371  0.6340
   71MOL   H16135301   0.598   6.222   2.604  0.6693  2.8621  2.3855
   71MOL   H16235302   0.754   6.225   2.691 -1.0011  0.6864 -0.1856
   71MOL   H16335303   0.849   6.068   2.568 -0.8528 -0.5048  0.7326
   71MOL   H16435304   0.810   5.842   2.481 -0.7235  0.2728  0.4922
   71MOL   H16535305   0.830   5.952   2.328 -1.2909  1.8898  0.2954
   71MOL   H16635306   0.743   5.750   2.275 -1.5929 -0.8095  0.1636
   71MOL   H16735307   0.634   5.867   2.231 -2.9960 -0.7121  0.8510
   71MOL   H16835308   0.600   5.729   2.503  2.6569  1.5897 -0.5688
   71MOL   H16935309   0.508   5.849   2.423  0.1007  0.0583 -0.0123
   71MOL   H17035310   0.446   5.707   2.230 -1.4414 -1.7106 -0.4734
   71MOL   H17135311   0.525   5.576   2.313  0.4935  1.2569 -1.0068
   71MOL   H17235312   0.338   5.588   2.491 -1.9550  0.0886 -0.3189
   71MOL   H17335313   0.271   5.731   2.418 -2.7206 -0.9297 -4.0384
   71MOL   H17435314   0.161   5.511   2.356 -0.1629  0.9588  0.3986
   71MOL   H17535315   0.208   5.617   2.224 -0.2401  0.9964  1.7572
   71MOL   H17635316   0.303   5.479   2.252 -0.4253  1.0550 -2.0204
   71MOL   C17735317   0.824   6.228   2.425 -0.0295 -0.0580  0.4792
   71MOL   C17835318   0.941   6.307   2.477  0.1713  0.9763 -0.2480
   71MOL   O17935319   1.057   6.233   2.467 -0.6615 -0.3646  0.6089
   71MOL   C18035320   1.139   6.237   2.581  0.3759 -0.3308 -0.6139
   71MOL   C18135321   1.257   6.144   2.555 -0.0715  0.3814  0.3159
   71MOL   C18235322   1.354   6.201   2.451 -0.8771  0.3091  0.3482
   71MOL   C18335323   1.491   6.131   2.439 -0.0717 -0.2211 -0.2130
   71MOL   C18435324   1.484   5.982   2.417 -0.4919  0.8948  0.0768
   71MOL   C18535325   1.620   5.916   2.390  0.6823 -0.2856 -0.3181
   71MOL   H18635326   0.861   6.181   2.334  0.8913 -0.1291  0.8798
   71MOL   H18735327   0.738   6.289   2.397  0.2765 -0.1691 -0.7172
   71MOL   H18835328   0.925   6.328   2.582 -1.9321  1.6919 -0.6860
   71MOL   H18935329   1.084   6.201   2.667  1.1515 -0.0148  0.0288
   71MOL   H19035330   1.165   6.337   2.617 -1.8637 -0.1861  0.6690
   71MOL   H19135331   1.221   6.045   2.525  2.0694  0.0430 -1.2915
   71MOL   H19235332   1.314   6.132   2.648  0.9335  0.1921 -0.3128
   71MOL   H19335333   1.302   6.184   2.356  0.6172  0.4651 -0.5042
   71MOL   H19435334   1.379   6.306   2.467  0.8260  0.2523 -1.6856
   71MOL   H19535335   1.536   6.186   2.356 -0.6899  0.7607  0.0804
   71MOL   H19635336   1.548   6.159   2.527 -0.6693  1.0204 -0.2093
   71MOL   H19735337   1.443   5.931   2.505 -0.2615  1.4311  0.4984
   71MOL   H19835338   1.418   5.967   2.332 -0.6534 -3.7539  0.8633
   71MOL   H19935339   1.656   5.934   2.288  1.4784  0.0735  0.0185
   71MOL   H20035340   1.703   5.946   2.454 -1.5463 -0.9483  3.0327
   71MOL   H20135341   1.613   5.809   2.405  3.4211 -0.7608 -1.9928
   71MOL   C20235342   0.956   6.436   2.387  0.5173 -0.0641 -0.1177
   71MOL   C20335343   1.062   6.532   2.427 -0.2150  0.4504  0.2607
   71MOL   O20435344   1.009   6.596   2.538 -0.1772  0.8566 -0.3039
   71MOL   C20535345   1.099   6.638   2.633  0.0319  0.2278  0.6261
   71MOL   C20635346   1.023   6.719   2.743 -0.0254 -0.4485 -0.9772
   71MOL   C20735347   1.108   6.766   2.860 -0.2969  0.2676 -0.2598
   71MOL   C20835348   1.032   6.838   2.979 -0.2332 -0.1394  0.0188
   71MOL   C20935349   1.111   6.946   3.053 -0.0547  0.2399 -0.4135
   71MOL   C21035350   1.038   6.984   3.180  0.2631 -0.0481  0.2914
   71MOL   H21135351   0.977   6.411   2.283  0.2381  1.0173 -0.4348
   71MOL   H21235352   0.867   6.497   2.402  0.1452 -0.8819  1.0796
   71MOL   H21335353   1.149   6.481   2.466 -0.3918  0.9760  1.3608
   71MOL   H21435354   1.184   6.692   2.590  1.0686  0.2930  2.7204
   71MOL   H21535355   1.145   6.550   2.679  0.8648  0.5154  0.3587
   71MOL   H21635356   0.940   6.665   2.789 -1.3490  0.7121 -1.9638
   71MOL   H21735357   0.977   6.804   2.692 -0.5242 -0.7606 -1.0566
   71MOL   H21835358   1.170   6.686   2.899 -1.1764 -1.5400 -2.4807
   71MOL   H21935359   1.184   6.829   2.814 -0.2989 -0.8663 -1.8615
   71MOL   H22035360   0.935   6.878   2.948 -0.0322 -0.2704 -0.7936
   71MOL   H22135361   1.017   6.749   3.040  0.1608 -1.0955 -1.2632
   71MOL   H22235362   1.212   6.912   3.076  1.0603  1.5660 -3.1811
   71MOL   H22335363   1.122   7.036   2.992 -1.9328  0.6265 -0.2132
   71MOL   H22435364   1.097   7.059   3.233  1.5282 -0.1482 -0.9715
   71MOL   H22535365   0.946   7.033   3.147 -0.3591 -2.6676 -2.0627
   71MOL   H22635366   1.007   6.896   3.235 -1.6901  0.0590 -0.5619
   71MOL   C22735367   1.090   6.637   2.318  0.4323 -0.9087 -0.7946
   71MOL   C22835368   1.180   6.597   2.201 -0.4438  0.2110  0.2494
   71MOL   O22935369   1.098   6.532   2.100 -0.2866  0.2467 -0.2805
   71MOL   C23035370   1.152   6.438   2.021  0.4204  0.5235  0.9841
   71MOL   C23135371   1.044   6.353   1.948  0.0781  0.1192 -0.3073
   71MOL   C23235372   0.988   6.228   2.010  0.0480  0.8517  0.3799
   71MOL   C23335373   0.867   6.172   1.928  0.1242 -0.3761  0.4974
   71MOL   C23435374   0.764   6.097   2.013  0.6204  0.5472  0.6987
   71MOL   C23535375   0.637   6.041   1.952  0.1516 -0.1167 -0.3556
   71MOL   H23635376   0.997   6.674   2.276  0.1197 -0.0618  0.5897
   71MOL   H23735377   1.124   6.733   2.359  1.3925 -1.3729 -0.4844
   71MOL   H23835378   1.253   6.526   2.241  0.4013  0.7513 -0.3344
   71MOL   H23935379   1.211   6.375   2.087  0.4464 -0.9635 -0.4098
   71MOL   H24035380   1.226   6.482   1.955 -0.1968  0.6757  0.3893
   71MOL   H24135381   1.095   6.325   1.856 -0.5770  0.9167 -0.9200
   71MOL   H24235382   0.957   6.413   1.920  0.3336 -0.3968 -2.3367
   71MOL   H24335383   1.063   6.149   2.013 -0.7068  0.1825  1.8156
   71MOL   H24435384   0.948   6.257   2.107 -1.1369  1.6060 -0.3284
   71MOL   H24535385   0.811   6.246   1.871  1.8311 -0.7739 -1.7805
   71MOL   H24635386   0.908   6.099   1.858  0.9729  0.2380  0.3442
   71MOL   H24735387   0.809   6.025   2.083 -0.9223 -0.8621  0.2631
   71MOL   H24835388   0.737   6.165   2.093 -0.8340  0.1079  0.5962
   71MOL   H24935389   0.567   6.014   2.031 -0.5081 -0.5865 -1.0945
   71MOL   H25035390   0.595   6.121   1.890 -2.0712 -1.4581 -0.6302
   71MOL   H25135391   0.658   5.954   1.889 -1.2918 -1.5683  1.1388
   71MOL   C25235392   1.251   6.721   2.136 -0.4144 -0.2191 -0.1585
   71MOL   C25335393   1.404   6.737   2.166 -0.4587  1.4236  0.4549
   71MOL   O25435394   1.410   6.732   2.313 -0.1415  0.3777  0.2126
   71MOL   C25535395   1.540   6.724   2.372  0.2095  0.0465  0.1862
   71MOL   C25635396   1.522   6.709   2.529  0.0708  0.0119  0.4051
   71MOL   C25735397   1.469   6.564   2.557 -0.1962 -0.7800 -1.0313
   71MOL   C25835398   1.490   6.521   2.693  0.5447  0.2705  0.1151
   71MOL   C25935399   1.629   6.481   2.725 -0.3779 -0.5325 -0.6333
   71MOL   C26035400   1.660   6.404   2.856  0.3182  0.0611  0.4541
   71MOL   H26135401   1.251   6.705   2.028  2.2993 -1.8464  0.0268
   71MOL   H26235402   1.200   6.811   2.169  0.1777  0.8203 -2.0013
   71MOL   H26335403   1.472   6.659   2.133 -1.3534  0.2785  1.2748
   71MOL   H26435404   1.583   6.822   2.351  0.5337 -0.6017 -2.3616
   71MOL   H26535405   1.599   6.649   2.319 -2.2869 -2.7695  1.2029
   71MOL   H26635406   1.436   6.765   2.567 -0.3926 -0.6280  0.3071
   71MOL   H26735407   1.611   6.729   2.589 -1.3168  1.3602  2.0481
   71MOL   H26835408   1.360   6.566   2.548 -0.2355  3.9161 -1.0915
   71MOL   H26935409   1.501   6.486   2.488  1.1568 -1.2977  0.1683
   71MOL   H27035410   1.448   6.590   2.766 -3.8796 -0.7449 -1.3283
   71MOL   H27135411   1.421   6.437   2.708 -0.8027  0.7182 -3.0850
   71MOL   H27235412   1.659   6.418   2.641  0.1444 -1.4483  0.2221
   71MOL   H27335413   1.685   6.574   2.722  0.9196 -1.2500  0.7326
   71MOL   H27435414   1.764   6.372   2.849  0.0396 -0.9150  0.6698
   71MOL   H27535415   1.649   6.463   2.947  1.6868 -0.0754  0.7226
   71MOL   H27635416   1.582   6.327   2.856 -0.9221  1.2716 -1.5686
   71MOL   C27735417   1.452   6.871   2.095 -0.5555  0.0237  0.3580
   71MOL   C27835418   1.533   6.857   1.967  0.4024  0.6328 -0.5525
   71MOL   O27935419   1.454   6.796   1.868 -0.0804 -0.3413  0.0311
   71MOL   C28035420   1.478   6.666   1.833 -0.1558 -0.1042 -0.0035
   71MOL   C28135421   1.411   6.642   1.695 -0.3236 -0.6076  0.3539
   71MOL   C28235422   1.433   6.497   1.643  0.1161 -0.6211 -0.6416
   71MOL   C28335423   1.329   6.457   1.539 -0.0543  0.1098 -0.0717
   71MOL   C28435424   1.185   6.415   1.602 -0.4215 -0.0015  0.3890
   71MOL   C28535425   1.076   6.420   1.495  0.0464  0.1141 -0.0793
   71MOL   H28635426   1.378   6.950   2.092  0.0693  0.6231  0.5719
   71MOL   H28735427   1.520   6.918   2.166 -0.5678  0.3042  0.1836
   71MOL   H28835428   1.605   6.785   2.007 -0.1462  0.1594 -0.4072
   71MOL   H28935429   1.436   6.598   1.907  0.8419 -1.1023 -0.3357
   71MOL   H29035430   1.582   6.634   1.823 -0.2049 -0.0267 -0.8578
   71MOL   H29135431   1.454   6.708   1.619 -1.4321 -0.7933 -0.4530
   71MOL   H29235432   1.306   6.672   1.699 -0.4078 -0.9613  0.7798
   71MOL   H29335433   1.533   6.500   1.600  0.0147  1.5866 -0.8270
   71MOL   H29435434   1.431   6.427   1.726  1.9656 -1.1145 -1.0123
   71MOL   H29535435   1.311   6.548   1.481  1.3608  0.9166  0.7481
   71MOL   H29635436   1.365   6.379   1.472  0.5257  1.1257 -0.9519
   71MOL   H29735437   1.186   6.319   1.654  0.6759  0.4543  1.2237
   71MOL   H29835438   1.161   6.487   1.680  0.9104 -0.6963  1.4365
   71MOL   H29935439   0.984   6.382   1.539  0.0216  0.5848  0.2873
   71MOL   H30035440   1.063   6.521   1.456 -0.6653 -0.3308 -1.0414
   71MOL   H30135441   1.107   6.355   1.413  2.1978  1.6283 -0.5160
   71MOL   C30235442   1.599   6.987   1.920 -0.3359  0.4491  0.3019
   71MOL   C30335443   1.692   6.974   1.795 -0.5821 -0.5306  0.0337
   71MOL   O30435444   1.780   6.864   1.820 -0.3540 -0.3171 -0.2524
   71MOL   C30535445   1.828   6.798   1.707 -0.3386 -0.2465 -0.5759
   71MOL   C30635446   1.894   6.664   1.733 -0.6100 -0.0132 -0.5816
   71MOL   C30735447   1.950   6.606   1.607 -0.3504 -0.4248  0.4465
   71MOL   C30835448   2.023   6.478   1.639 -0.3656  0.1224 -0.1468
   71MOL   C30935449   2.046   6.393   1.513 -0.5032  0.5149  0.2440
   71MOL   C31035450   2.127   6.450   1.394 -0.2583 -0.1830 -0.2873
   71MOL   H31135451   1.532   7.072   1.912  1.5709  1.9747  0.1390
   71MOL   H31235452   1.668   7.008   2.002  0.5753 -2.5481  0.3670
   71MOL   H31335453   1.635   6.939   1.709  1.2915 -1.8212 -0.7252
   71MOL   H31435454   1.892   6.865   1.649 -1.8649  1.7637 -0.0042
   71MOL   H31535455   1.749   6.766   1.639 -2.3388 -0.0681  1.5992
   71MOL   H31635456   1.845   6.589   1.796 -0.2999  1.0632  0.9757
   71MOL   H31735457   1.980   6.691   1.795 -0.8686 -0.2693 -0.1078
   71MOL   H31835458   1.870   6.580   1.538 -0.2175  0.1988  0.0525
   71MOL   H31935459   2.016   6.675   1.554 -0.3626 -1.8488 -1.5054
   71MOL   H32035460   2.118   6.494   1.692 -0.0771 -0.2901 -0.5419
   71MOL   H32135461   1.963   6.417   1.706  1.0058 -1.7586 -0.5794
   71MOL   H32235462   2.081   6.294   1.542  0.4146  0.4368 -1.1162
   71MOL   H32335463   1.941   6.383   1.487 -0.2143 -0.7298 -0.4510
   71MOL   H32435464   2.124   6.557   1.373 -3.3289 -0.3558 -0.9538
   71MOL   H32535465   2.233   6.430   1.410  0.0972 -0.7457 -3.1324
   71MOL   H32635466   2.109   6.384   1.310 -0.9180 -1.9606  1.2302
   71MOL   C32735467   1.764   7.101   1.758  1.0163  0.3563 -0.2826
   71MOL   C32835468   1.748   7.136   1.608  0.0896  0.3986 -0.0401
   71MOL   O32935469   1.618   7.192   1.596  0.3637  0.4787 -0.0052
   71MOL   C33035470   1.535   7.161   1.481 -0.0413  0.1450 -0.4652
   71MOL   C33135471   1.381   7.153   1.519  1.0457 -0.2665 -0.2542
   71MOL   C33235472   1.359   7.031   1.608 -0.5074  0.0338 -0.1454
   71MOL   C33335473   1.214   6.998   1.641 -0.4640  0.1530  0.2572
   71MOL   C33435474   1.131   6.909   1.542 -0.0227  0.2832  0.0720
   71MOL   C33535475   1.132   6.950   1.391  1.4472  0.4206  0.0810
   71MOL   H33635476   1.867   7.083   1.789 -0.1081 -2.0513  2.2895
   71MOL   H33735477   1.742   7.187   1.822 -3.3554 -1.3293  0.6651
   71MOL   H33835478   1.768   7.042   1.555  0.4654 -0.8908  2.3176
   71MOL   H33935479   1.576   7.068   1.442  0.1368  0.1162 -0.2115
   71MOL   H34035480   1.561   7.233   1.403 -3.2094  0.7947 -0.9862
   71MOL   H34135481   1.316   7.142   1.431 -0.4329 -0.2413  0.8079
   71MOL   H34235482   1.354   7.239   1.580 -0.5480 -0.8704 -0.0899
   71MOL   H34335483   1.406   6.944   1.563  0.5806  0.0643  0.9125
   71MOL   H34435484   1.418   7.069   1.692 -1.0111  2.7957 -0.9729
   71MOL   H34535485   1.216   6.944   1.736  1.5738  0.6955  0.5564
   71MOL   H34635486   1.157   7.086   1.667  0.0229 -0.2061  2.7278
   71MOL   H34735487   1.173   6.808   1.539 -0.4854  0.1258 -1.2711
   71MOL   H34835488   1.023   6.898   1.556 -0.2145  0.6271 -1.0997
   71MOL   H34935489   1.071   6.874   1.343 -0.1243 -0.2752  3.0459
   71MOL   H35035490   1.090   7.050   1.381  2.4802  0.8958  0.3983
   71MOL   H35135491   1.234   6.948   1.353  1.4912 -0.2448  0.2287
   71MOL   C35235492   1.854   7.248   1.567 -0.6412  0.1849 -0.8102
   71MOL   C35335493   1.979   7.194   1.497  0.5220  0.2104  0.0434
   71MOL   O35435494   2.030   7.097   1.590 -0.0811 -0.0580 -0.9720
   71MOL   C35535495   2.121   7.005   1.532 -0.0430  0.7012 -0.8593
   71MOL   C35635496   2.176   6.921   1.648 -0.3623 -0.2114 -0.1482
   71MOL   C35735497   2.278   7.001   1.728 -0.2594  0.3596  0.1193
   71MOL   C35835498   2.340   6.910   1.833  0.1768  0.0515 -0.1802
   71MOL   C35935499   2.421   6.994   1.939 -0.1378 -0.0328 -0.1406
   71MOL   C36035500   2.492   6.898   2.036  0.6776 -0.3799  0.2591
   71MOL   H36135501   1.811   7.318   1.496  1.0397  0.7442 -1.3179
   71MOL   H36235502   1.892   7.304   1.653 -1.4971  1.6230 -1.3447
   71MOL   H36335503   1.954   7.148   1.401  1.0465 -1.2553  0.5885
   71MOL   H36435504   2.204   7.058   1.486 -0.2915  1.9028  0.0405
   71MOL   H36535505   2.073   6.942   1.457 -0.6610  0.2174 -0.0722
   71MOL   H36635506   2.218   6.827   1.613 -3.0946 -1.1962 -0.9792
   71MOL   H36735507   2.091   6.899   1.713  0.6702 -1.8829  0.6649
   71MOL   H36835508   2.347   7.050   1.659  1.3495  0.4033  1.7196
   71MOL   H36935509   2.233   7.087   1.776  1.3890  0.3864  1.6405
   71MOL   H37035510   2.277   6.847   1.897  0.4245 -0.8736 -0.8316
   71MOL   H37135511   2.398   6.832   1.783 -0.6284 -0.9295  0.3747
   71MOL   H37235512   2.491   7.063   1.891  0.7171 -0.6070  0.2586
   71MOL   H37335513   2.353   7.053   1.999  1.0649  0.1144  1.1116
   71MOL   H37435514   2.419   6.837   2.089 -0.1630 -1.3379 -1.9764
   71MOL   H37535515   2.568   6.833   1.994  1.8756 -0.4614  2.4641
   71MOL   H37635516   2.544   6.954   2.114  0.5432  0.9481 -0.5886
   71MOL   C37735517   2.089   7.298   1.469  0.4003 -0.5353  0.1459
   71MOL   C37835518   2.062   7.386   1.344 -0.8251  0.7689 -0.1067
   71MOL   O37935519   2.095   7.310   1.225  0.2581  0.8089  0.0124
   71MOL   C38035520   1.986   7.275   1.143  0.4670  0.1594  0.4695
   71MOL   C38135521   2.012   7.143   1.059 -0.1824 -0.0544 -0.1199
   71MOL   C38235522   1.914   7.128   0.943  0.0185  0.8535  0.1306
   71MOL   C38335523   1.954   7.025   0.835  0.6603  0.6401  0.2640
   71MOL   C38435524   2.101   7.023   0.786 -0.5043  0.1404  0.0290
   71MOL   C38535525   2.122   6.958   0.652 -0.1178  0.7400 -0.0333
   71MOL   H38635526   2.110   7.356   1.559 -1.2217 -0.0939  0.2453
   71MOL   H38735527   2.181   7.257   1.427 -0.1337 -1.5853 -0.0266
   71MOL   H38835528   1.959   7.416   1.357 -0.9382 -0.4742  2.3495
   71MOL   H38935529   1.973   7.365   1.083  0.9961  0.1508  0.3376
   71MOL   H39035530   1.894   7.259   1.200 -0.5349 -2.2805 -1.6979
   71MOL   H39135531   1.996   7.057   1.124 -0.0763  0.6044  0.8001
   71MOL   H39235532   2.113   7.138   1.020 -0.0983  0.5616  0.0121
   71MOL   H39335533   1.814   7.109   0.982 -0.0574  0.3220 -0.3234
   71MOL   H39435534   1.898   7.219   0.884  0.1143  1.4845  1.0638
   71MOL   H39535535   1.921   6.922   0.852  0.1060  0.4228 -1.9663
   71MOL   H39635536   1.892   7.045   0.748  0.7292  2.1490  0.5618
   71MOL   H39735537   2.135   7.125   0.766 -1.5911  0.3480 -0.8173
   71MOL   H39835538   2.161   6.971   0.861 -0.6202  0.4089  0.3112
   71MOL   H39935539   2.043   6.974   0.578 -0.0330 -2.8267 -0.9691
   71MOL   H40035540   2.215   6.999   0.611 -0.0310  0.1454 -0.4217
   71MOL   H40135541   2.145   6.853   0.666 -1.0345  0.5912  0.3636
   71MOL   C40235542   2.139   7.516   1.336 -0.9017  0.5856 -0.3828
   71MOL   C40335543   2.113   7.600   1.211  0.3442  0.3388 -0.0563
   71MOL   O40435544   2.195   7.720   1.231  0.1901  0.6205  0.1853
   71MOL   C40535545   2.329   7.700   1.182 -0.2529 -0.0286 -0.3537
   71MOL   C40635546   2.383   0.058   1.146 -0.3394 -0.1007  0.2894
   71MOL   C40735547   2.318   0.121   1.019 -0.1525 -0.4224 -0.2326
   71MOL   C40835548   2.371   0.266   1.017  0.3574 -1.0393  0.5698
   71MOL   C40935549   2.341   0.351   0.893 -0.4258 -0.6063  0.0890
   71MOL   C41035550   2.401   0.491   0.899  0.2093 -0.6932 -0.6639
   71MOL   H41135551   2.241   7.482   1.350 -1.7921 -0.2305  5.1862
   71MOL   H41235552   2.125   7.578   1.424  2.5469  1.1794 -0.1790
   71MOL   H41335553   2.135   7.545   1.119 -0.0549 -0.9912  0.6306
   71MOL   H41435554   2.335   7.632   1.098  2.4725  0.7443 -0.8201
   71MOL   H41535555   2.391   7.661   1.263 -2.4470 -2.9704 -0.0222
   71MOL   H41635556   2.492   0.053   1.145 -0.1811  1.2215  3.5940
   71MOL   H41735557   2.362   0.125   1.229  0.8321  1.4288 -0.6343
   71MOL   H41835558   2.352   0.062   0.934  0.8873 -1.7238  1.0640
   71MOL   H41935559   2.210   0.115   1.008 -0.3800  0.0663  1.5581
   71MOL   H42035560   2.325   0.302   1.109 -0.7142  2.5515 -1.2642
   71MOL   H42135561   2.479   0.260   1.025  0.3736 -0.0671  1.1837
   71MOL   H42235562   2.387   0.294   0.813  0.1686 -0.7236  0.5163
   71MOL   H42335563   2.232   0.346   0.889 -0.4511 -0.4650  0.5542
   71MOL   H42435564   2.508   0.474   0.910 -0.0989 -0.8780  2.4607
   71MOL   H42535565   2.369   0.563   0.823 -1.7545 -0.4759  0.3405
   71MOL   H42635566   2.376   0.535   0.995  3.8876  2.1249 -0.8833
   71MOL   C42735567   1.974   7.652   1.203  0.3751  0.3221  0.8646
   71MOL   C42835568   1.948   7.766   1.099 -0.4479 -0.0046  0.1225
   71MOL   O42935569   1.907   7.707   0.970  0.0423 -0.2853 -0.1650
   71MOL   C43035570   2.003   7.701   0.868  0.0783  0.0688  0.7966
   71MOL   C43135571   1.954   7.630   0.746 -0.3386  0.4534  0.0699
   71MOL   C43235572   1.947   7.477   0.773  0.1645  0.4416 -0.2257
   71MOL   C43335573   1.908   7.391   0.651  0.0853 -0.3443 -0.1309
   71MOL   C43435574   1.976   7.418   0.516 -0.1300 -0.3335 -0.2592
   71MOL   C43535575   1.964   7.303   0.422  0.1287 -0.4537 -0.0415
   71MOL   H43635576   1.907   7.571   1.177  1.8359 -0.5768 -0.1874
   71MOL   H43735577   1.952   7.676   1.307  1.6517 -1.3902  1.5508
   71MOL   H43835578   2.027   0.062   1.089  0.3778 -0.9445 -0.3384
   71MOL   H43935579   2.091   7.641   0.891  1.8244  2.2947  0.1068
   71MOL   H44035580   2.030   0.024   0.835 -1.0660 -0.1715 -0.9345
   71MOL   H44135581   2.020   7.657   0.664  1.9401 -2.0828  1.0323
   71MOL   H44235582   1.851   7.653   0.717 -0.6244  1.4220  1.7418
   71MOL   H44335583   2.043   7.446   0.812 -0.2675 -0.0415  0.4633
   71MOL   H44435584   1.871   7.465   0.850  0.9801  0.3480  0.5684
   71MOL   H44535585   1.911   7.284   0.674  1.2648 -0.0093  1.3781
   71MOL   H44635586   1.805   7.408   0.619  0.7673  2.2755 -1.0264
   71MOL   H44735587   1.935   7.510   0.475  2.7210  1.7500  1.3411
   71MOL   H44835588   2.082   7.443   0.524 -0.6924  1.7841  0.8614
   71MOL   H44935589   1.970   7.211   0.481 -2.9412 -0.1847  0.7788
   71MOL   H45035590   1.876   7.287   0.359 -0.7633 -2.3775  1.6241
   71MOL   H45135591   2.049   7.292   0.356  1.2548 -0.0559  1.3310
   71MOL   C45235592   1.824   0.068   1.140  0.0304 -0.3451 -0.5488
   71MOL   C45335593   1.769   0.187   1.050  0.7071 -1.0549  0.3891
   71MOL   O45435594   1.800   0.316   1.104  0.2793  0.2996 -0.2770
   71MOL   C45535595   1.918   0.373   1.050  0.6434  0.3924  0.4281
   71MOL   C45635596   1.948   0.509   1.121  0.2592 -0.3272  0.3521
   71MOL   C45735597   2.053   0.603   1.050 -0.1957  0.4230  0.5223
   71MOL   C45835598   2.062   0.741   1.107 -0.4012  0.6123  0.5735
   71MOL   C45935599   2.163   0.837   1.042 -0.1807 -0.2241  0.7581
   71MOL   C46035600   2.170   0.969   1.108 -0.6971 -0.2740 -0.4012
   71MOL   H46135601   1.746   7.771   1.152  0.2481 -0.4829  0.0155
   71MOL   H46235602   1.845   0.108   1.239 -1.4286  1.1835 -0.8234
   71MOL   H46335603   1.815   0.177   0.951 -0.7278 -1.8207 -0.2143
   71MOL   H46435604   1.912   0.395   0.943  0.4679 -0.2551  0.2960
   71MOL   H46535605   1.998   0.303   1.075  0.0072 -0.7641 -0.6918
   71MOL   H46635606   1.983   0.481   1.221  1.0073  1.9902  0.7722
   71MOL   H46735607   1.855   0.565   1.122  1.6961  2.1351 -0.8302
   71MOL   H46835608   2.153   0.560   1.056  0.6799  2.2772 -0.3946
   71MOL   H46935609   2.032   0.618   0.944 -2.9045 -1.5355  0.7330
   71MOL   H47035610   1.967   0.794   1.092  0.1147  1.4317  0.1591
   71MOL   H47135611   2.083   0.728   1.213 -1.8769 -0.3610  0.7572
   71MOL   H47235612   2.258   0.785   1.051  0.3647  0.9629  2.0911
   71MOL   H47335613   2.149   0.840   0.934  1.1373 -0.1671  0.5812
   71MOL   H47435614   2.078   0.997   1.158 -1.2384 -3.4133  0.5152
   71MOL   H47535615   2.251   0.966   1.180 -1.3259 -0.5627  0.2982
   71MOL   H47635616   2.200   1.042   1.033  0.3589  0.3855  0.6496
   71MOL   C47735617   1.619   0.189   1.027 -0.1689  0.3429 -0.2243
   71MOL   C47835618   1.536   0.198   1.156  0.2663 -0.4668  0.2147
   71MOL   O47935619   1.397   0.202   1.125 -0.0061  0.0812 -0.3219
   71MOL   C48035620   1.313   0.173   1.236 -0.0914  0.0623  0.1427
   71MOL   C48135621   1.164   0.143   1.204  0.2690 -0.2273  0.1423
   71MOL   C48235622   1.150   0.012   1.123 -0.6519 -0.4695  0.1781
   71MOL   C48335623   1.001   7.759   1.097 -0.2012 -0.1575  0.4646
   71MOL   C48435624   0.909   7.769   1.216  0.4745  0.2821 -0.0171
   71MOL   C48535625   0.778   7.689   1.195 -0.1899  0.4108  0.6111
   71MOL   H48635626   1.589   0.269   0.959 -1.6460 -0.3113 -0.3599
   71MOL   H48735627   1.581   0.097   0.981  0.1144  0.1709 -0.1125
   71MOL   H48835628   1.563   0.121   1.229  3.0542 -1.2722 -1.5678
   71MOL   H48935629   1.326   0.245   1.317 -0.3973  0.3172 -0.0348
   71MOL   H49035630   1.343   0.077   1.277 -2.0168 -0.7399 -0.2427
   71MOL   H49135631   1.143   0.225   1.134  1.8218  0.1213  0.0694
   71MOL   H49235632   1.093   0.147   1.287  2.9675  1.5583  2.4615
   71MOL   H49335633   1.217   0.019   1.037 -1.4112 -0.7977 -0.4529
   71MOL   H49435634   1.190   7.707   1.182 -0.4354  0.5062  1.4110
   71MOL   H49535635   0.967   0.050   1.019  0.3423  0.9797  1.1987
   71MOL   H49635636   0.994   7.657   1.059  0.2211  0.0908 -0.2841
   71MOL   H49735637   0.962   7.742   1.307  2.2275  0.5840 -0.9310
   71MOL   H49835638   0.884   0.097   1.224 -0.6921  0.0787 -0.9062
   71MOL   H49935639   0.702   7.717   1.267 -1.4716  0.3862 -0.7077
   71MOL   H50035640   0.744   7.723   1.097 -1.4886  0.7406  1.1727
   71MOL   H50135641   0.791   7.581   1.185  0.5514  0.5958 -0.4792
   71MOL   H50235642   1.563   0.292   1.204  1.7652 -1.0072  0.4834
   72MOL     C135643   0.602   4.092   5.859 -0.3054  0.6595  0.0683
   72MOL     C235644   0.747   4.116   5.816 -0.1413 -0.0027 -0.3290
   72MOL     O335645   0.765   4.112   5.677 -0.0940 -0.2161 -0.6002
   72MOL     C435646   0.732   4.226   5.601  0.2645 -0.3881  0.2752
   72MOL     C535647   0.801   4.206   5.465 -0.5691 -0.2643 -0.0175
   72MOL     C635648   0.797   4.330   5.376  0.1205 -0.2221  0.2901
   72MOL     C735649   0.905   4.348   5.271 -0.1313  0.1040  0.1997
   72MOL     C835650   0.877   4.251   5.153 -0.3479 -0.6667  0.5433
   72MOL     C935651   0.984   4.236   5.044 -0.8535 -0.0929 -0.0488
   72MOL    H1035652   0.593   4.072   5.966 -1.6304  0.2205 -0.1077
   72MOL    H1135653   0.541   4.181   5.846  1.3166  1.5988 -1.1752
   72MOL    H1235654   0.779   4.211   5.859 -1.8752 -0.3675  1.8222
   72MOL    H1335655   0.771   4.318   5.644 -0.4962  0.6018 -1.1464
   72MOL    H1435656   0.624   4.227   5.586  0.2886 -3.0753 -0.2730
   72MOL    H1535657   0.761   4.117   5.417 -2.9014  0.0779  1.1977
   72MOL    H1635658   0.904   4.176   5.485 -0.6525 -0.2728  0.4040
   72MOL    H1735659   0.697   4.338   5.334  0.9533 -1.4245 -2.0031
   72MOL    H1835660   0.820   4.418   5.436 -3.7239  0.0417  1.5231
   72MOL    H1935661   0.908   4.454   5.249 -0.9393 -0.4504 -2.8334
   72MOL    H2035662   0.994   4.317   5.325  1.2501  2.2606 -0.8008
   72MOL    H2135663   0.776   4.262   5.113 -0.0557 -3.0726 -0.9850
   72MOL    H2235664   0.881   4.153   5.202 -0.7105 -0.7778  0.3513
   72MOL    H2335665   1.079   4.201   5.084 -2.4641 -2.2354  2.0819
   72MOL    H2435666   0.956   4.154   4.978  0.6607  0.9080 -2.0082
   72MOL    H2535667   1.005   4.316   4.973  4.1621 -0.9382  0.3323
   72MOL    H2635668   0.550   4.019   5.796  0.1447 -0.2684  0.7563
   72MOL    C2735669   0.836   3.995   5.870 -0.0865  0.4257  0.0833
   72MOL    C2835670   0.990   4.029   5.841  0.0581  0.4476  0.1744
   72MOL    O2935671   1.024   4.132   5.932  0.4837  0.0439 -0.0077
   72MOL    C3035672   1.064   4.256   5.875 -0.5934 -0.2891 -0.1497
   72MOL    C3135673   1.212   4.249   5.818  0.3995  0.3614  0.2036
   72MOL    C3235674   1.243   4.381   5.744  0.0380  0.2946 -0.5046
   72MOL    C3335675   1.369   4.388   5.661  0.1835 -0.4896 -0.4410
   72MOL    C3435676   1.493   4.321   5.727 -0.3425  0.4016 -0.2492
   72MOL    C3535677   1.625   4.341   5.647  0.2272 -0.0034 -0.0957
   72MOL    H3635678   0.831   3.972   5.977  1.9081  0.1950  0.1474
   72MOL    H3735679   0.808   3.903   5.819  0.8528 -0.9231  1.9190
   72MOL    H3835680   1.000   4.058   5.737  1.2803  1.1401  0.4837
   72MOL    H3935681   1.039   4.339   5.941  2.1635  0.4400  0.0610
   72MOL    H4035682   1.004   4.278   5.786 -1.6816 -2.1901  0.0793
   72MOL    H4135683   1.223   4.165   5.749  5.2915  0.2591  0.9548
   72MOL    H4235684   1.287   4.223   5.893 -0.7851 -1.9903  0.6468
   72MOL    H4335685   1.165   4.399   5.669 -0.8882  0.7492  0.5446
   72MOL    H4435686   1.244   4.463   5.816  1.3347  0.1512 -0.3608
   72MOL    H4535687   1.354   4.332   5.569 -0.3170 -1.4648  0.2407
   72MOL    H4635688   1.391   4.494   5.645  0.6530 -0.7502 -1.5416
   72MOL    H4735689   1.511   4.362   5.826 -2.8131 -1.0510  0.8634
   72MOL    H4835690   1.478   4.216   5.754  2.4319  0.6869  2.5708
   72MOL    H4935691   1.655   4.445   5.641  2.8876 -0.8062 -1.2818
   72MOL    H5035692   1.710   4.286   5.687  0.6084  1.3746  1.0096
   72MOL    H5135693   1.619   4.307   5.543  0.8206  2.7922 -1.0766
   72MOL    C5235694   1.088   3.915   5.872  0.5049 -0.2228  0.6533
   72MOL    C5335695   1.091   3.803   5.765  0.5983  0.0327 -0.3354
   72MOL    O5435696   1.148   3.854   5.643  0.6376  0.0779  0.5624
   72MOL    C5535697   1.062   3.857   5.532 -0.1141  0.0712  0.6308
   72MOL    C5635698   1.147   3.884   5.410 -0.3375  0.4583  0.1081
   72MOL    C5735699   1.218   4.018   5.416 -0.1503  0.6514  0.1608
   72MOL    C5835700   1.318   4.041   5.296  0.0661 -0.2926 -0.0893
   72MOL    C5935701   1.391   4.168   5.286 -0.5299 -0.4098 -0.0072
   72MOL    C6035702   1.466   4.163   5.151 -0.3152 -0.1027  0.5547
   72MOL    H6135703   1.084   3.880   5.975 -2.1698 -2.7662 -0.2087
   72MOL    H6235704   1.192   3.947   5.865  0.3780 -0.1817 -1.2429
   72MOL    H6335705   0.988   3.774   5.748  0.6676  0.2341 -1.0919
   72MOL    H6435706   0.993   3.941   5.547 -0.3056 -0.0864  0.6342
   72MOL    H6535707   1.000   3.768   5.517  1.0501 -0.5279 -0.6609
   72MOL    H6635708   1.090   3.883   5.317 -0.8314  0.7078  0.4071
   72MOL    H6735709   1.210   3.795   5.410 -2.8815 -1.4168  1.7093
   72MOL    H6835710   1.140   4.093   5.408  0.4144  1.2965  0.6127
   72MOL    H6935711   1.266   4.025   5.514 -1.0939  2.0261  0.5391
   72MOL    H7035712   1.402   3.972   5.297 -0.1213 -0.5261  1.9983
   72MOL    H7135713   1.263   4.017   5.205 -0.0085  1.8955 -0.6544
   72MOL    H7235714   1.326   4.255   5.283  1.4598  1.0965 -0.1741
   72MOL    H7335715   1.457   4.188   5.370 -0.7452  2.9563 -0.5911
   72MOL    H7435716   1.408   4.127   5.067  1.6292  1.0066 -1.3048
   72MOL    H7535717   1.503   4.264   5.130 -1.4741  0.0659 -0.7235
   72MOL    H7635718   1.553   4.099   5.162  0.3576  0.3319 -2.0843
   72MOL    C7735719   1.173   3.678   5.821  0.4703 -0.7431 -0.5235
   72MOL    C7835720   1.139   3.546   5.746 -0.1456 -0.1858 -0.2784
   72MOL    O7935721   1.033   3.479   5.809 -0.6442 -0.0068 -1.0630
   72MOL    C8035722   0.900   3.518   5.760 -0.2235 -0.4185 -1.0976
   72MOL    C8135723   0.810   3.395   5.749 -0.5560  0.4431  0.1533
   72MOL    C8235724   0.674   3.425   5.689 -0.1660  0.2633  0.5508
   72MOL    C8335725   0.585   3.299   5.678 -0.4226 -0.9708 -0.0819
   72MOL    C8435726   0.447   3.337   5.643  0.2934 -0.4208  0.3452
   72MOL    C8535727   0.350   3.216   5.636 -0.1788  0.0089  0.1831
   72MOL    H8635728   1.151   3.660   5.926  2.5122  2.7720  0.6058
   72MOL    H8735729   1.279   3.697   5.810  0.7073 -2.1364 -0.7556
   72MOL    H8835730   1.118   3.561   5.640 -0.3910  0.0086 -0.2024
   72MOL    H8935731   0.902   3.563   5.661 -3.1391 -0.4432 -1.1947
   72MOL    H9035732   0.860   3.593   5.827 -0.5003 -0.7092 -0.9389
   72MOL    H9135733   0.793   3.362   5.852 -0.0771  0.0312  0.1010
   72MOL    H9235734   0.855   3.312   5.695  0.1803  1.5978 -1.0288
   72MOL    H9335735   0.619   3.490   5.756 -1.4226  0.5400 -0.7279
   72MOL    H9435736   0.673   3.482   5.597  0.7441  1.2280  1.1238
   72MOL    H9535737   0.631   3.220   5.619  1.2767  0.3638 -0.6022
   72MOL    H9635738   0.577   3.249   5.775 -1.6853 -1.5447 -0.4792
   72MOL    H9735739   0.404   3.411   5.711  1.0966  0.4433 -0.0752
   72MOL    H9835740   0.438   3.383   5.544 -0.5981  1.1327  1.1220
   72MOL    H9935741   0.259   3.237   5.579 -0.5115 -0.9164  0.3504
   72MOL   H10035742   0.383   3.129   5.579 -1.7931 -0.1663 -0.5255
   72MOL   H10135743   0.322   3.179   5.735  0.4704  0.4981  0.5557
   72MOL   C10235744   1.252   3.436   5.751  0.7411 -0.2760 -0.3396
   72MOL   C10335745   1.220   3.319   5.661 -0.2230  0.3513 -0.8803
   72MOL   O10435746   1.233   3.364   5.524 -0.2621 -0.3902  0.3198
   72MOL   C10535747   1.122   3.326   5.444  0.0804  0.2961 -0.6770
   72MOL   C10635748   1.153   3.344   5.295  0.3816 -0.3729 -0.3027
   72MOL   C10735749   1.050   3.280   5.196  0.2596  1.1050 -0.0500
   72MOL   C10835750   1.110   3.283   5.059 -0.1320 -0.2428  0.2474
   72MOL   C10935751   1.011   3.214   4.968 -0.2648 -0.3033  0.4622
   72MOL   C11035752   1.050   3.225   4.824  0.0125 -0.0142  0.2275
   72MOL   H11135753   1.347   3.480   5.718  0.1738  0.5839 -0.8575
   72MOL   H11235754   1.275   3.392   5.847  1.5032  0.4706 -0.1686
   72MOL   H11335755   1.120   3.278   5.671 -0.0435  0.0804 -0.1931
   72MOL   H11435756   1.034   3.389   5.453  0.4147  0.6040  0.5750
   72MOL   H11535757   1.093   3.224   5.469  0.3936  0.5449  0.7510
   72MOL   H11635758   1.253   3.303   5.278  0.3265 -0.0935 -1.3621
   72MOL   H11735759   1.162   3.449   5.266 -0.2476 -1.3232 -4.2188
   72MOL   H11835760   1.029   3.179   5.231 -0.0421  1.0135 -0.4968
   72MOL   H11935761   0.959   3.339   5.194  0.5365  1.5655  0.6429
   72MOL   H12035762   1.131   3.385   5.025 -0.4235 -0.2771 -0.0402
   72MOL   H12135763   1.209   3.238   5.058  1.0258  2.2434 -0.7538
   72MOL   H12235764   1.005   3.108   4.995 -2.9612 -0.0077  1.2526
   72MOL   H12335765   0.908   3.248   4.981 -0.4709 -1.8787  3.5362
   72MOL   H12435766   1.156   3.204   4.815  0.3023 -0.4267  4.0332
   72MOL   H12535767   1.010   3.159   4.747  3.3283 -1.5763 -0.2318
   72MOL   H12635768   1.050   3.327   4.785 -3.3853  0.0967  0.3178
   72MOL   C12735769   1.326   3.203   5.668 -1.4569 -0.1916  0.4039
   72MOL   C12835770   1.263   3.063   5.682  0.1145 -0.3478  0.4541
   72MOL   O12935771   1.196   3.068   5.804  0.3912 -0.4187  0.3715
   72MOL   C13035772   1.086   2.982   5.799  0.2878 -0.5747  0.1444
   72MOL   C13135773   1.039   2.967   5.940 -0.1096 -0.1699 -0.0924
   72MOL   C13235774   0.968   3.091   5.984  0.0785 -0.0764 -0.2714
   72MOL   C13335775   0.928   3.085   6.138  0.2860 -0.5871 -0.0649
   72MOL   C13435776   0.827   3.193   6.170  0.0922 -0.1413 -0.3081
   72MOL   C13535777   0.756   3.182   6.304 -0.0858  0.3032 -0.0972
   72MOL   H13635778   1.391   3.209   5.581 -0.8471 -2.6012  0.6419
   72MOL   H13735779   1.381   3.206   5.763  0.4563  1.0613 -0.7172
   72MOL   H13835780   1.186   3.051   5.605  1.2303  1.8917 -1.0484
   72MOL   H13935781   1.118   2.884   5.764  1.6204  0.4280 -1.5385
   72MOL   H14035782   1.008   3.017   5.731 -0.7978  1.1876  2.2513
   72MOL   H14135783   1.123   2.936   6.001  0.2314 -0.2889 -0.6142
   72MOL   H14235784   0.964   2.887   5.945 -1.1924  0.9280  1.5079
   72MOL   H14335785   1.040   3.170   5.965  0.2837 -0.8619 -2.8421
   72MOL   H14435786   0.879   3.106   5.924  1.3002  2.4458 -1.5151
   72MOL   H14535787   0.884   2.988   6.161 -2.4749  1.1389  2.2362
   72MOL   H14635788   1.009   3.103   6.209  0.8756  1.2361 -1.1793
   72MOL   H14735789   0.876   3.290   6.162  0.1386 -0.0784  0.6795
   72MOL   H14835790   0.750   3.190   6.093 -1.4775 -2.3708  1.2685
   72MOL   H14935791   0.704   3.086   6.303  0.1866  0.1353  0.9093
   72MOL   H15035792   0.815   3.178   6.395  0.5978  1.4192 -0.4856
   72MOL   H15135793   0.677   3.256   6.313  0.9981  1.5208 -0.4423
   72MOL   C15235794   1.375   2.954   5.706 -0.0170 -0.3353 -0.4500
   72MOL   C15335795   1.466   2.918   5.576 -0.1004 -0.2798  0.5459
   72MOL   O15435796   1.578   2.838   5.616  0.3483 -0.7534  0.2925
   72MOL   C15535797   1.698   2.868   5.552 -0.3504  0.1620 -0.3949
   72MOL   C15635798   1.808   2.795   5.622  0.3724 -0.4981 -0.6591
   72MOL   C15735799   1.827   2.840   5.770 -0.4692 -0.1142 -0.3547
   72MOL   C15835800   1.889   2.983   5.799  0.5882  0.3216 -0.1507
   72MOL   C15935801   1.912   3.004   5.947  0.4072 -1.1605  0.0078
   72MOL   C16035802   1.784   3.005   6.031  0.2481 -0.8599 -0.5247
   72MOL   H16135803   1.431   2.977   5.797  1.5041 -0.5587 -1.3020
   72MOL   H16235804   1.336   2.857   5.739 -3.2381  0.7908 -0.8013
   72MOL   H16335805   1.501   3.017   5.547 -1.8751  0.8079  2.0362
   72MOL   H16435806   1.720   2.975   5.553  0.1912  0.0439  1.1673
   72MOL   H16535807   1.696   2.827   5.451 -4.3751 -0.0716 -0.2947
   72MOL   H16635808   1.899   2.809   5.564 -0.2106 -2.6234 -2.1459
   72MOL   H16735809   1.783   2.691   5.602 -0.8731 -0.6153  1.3883
   72MOL   H16835810   1.737   2.831   5.830  0.7153  3.4586  2.1303
   72MOL   H16935811   1.897   2.769   5.814  0.0038  1.8926  2.2319
   72MOL   H17035812   1.983   2.992   5.745  1.2951 -0.6210  0.8984
   72MOL   H17135813   1.824   3.058   5.754 -0.2437 -0.2026  0.1756
   72MOL   H17235814   1.975   2.921   5.977  1.1205 -1.3068 -1.8494
   72MOL   H17335815   1.966   3.097   5.962  1.2832 -1.1359 -2.9518
   72MOL   H17435816   1.731   3.099   6.018 -1.4741 -1.4035  2.2260
   72MOL   H17535817   1.715   2.923   6.017 -1.0202  0.1577 -0.3265
   72MOL   H17635818   1.800   3.030   6.136  0.2544  1.3420 -1.0068
   72MOL   C17735819   1.380   2.850   5.465 -0.4439 -0.5262  0.0899
   72MOL   C17835820   1.329   2.943   5.347  0.1724 -0.4201 -0.4729
   72MOL   O17935821   1.450   2.960   5.281  0.5383  0.1482 -0.3817
   72MOL   C18035822   1.465   3.082   5.205 -0.5761 -0.1861  0.3018
   72MOL   C18135823   1.597   3.089   5.117  0.0124  0.6256 -0.1738
   72MOL   C18235824   1.727   3.064   5.195  0.5933  0.9424 -0.2400
   72MOL   C18335825   1.853   3.084   5.110  0.2338 -0.2780  0.1773
   72MOL   C18435826   1.986   3.044   5.172 -0.6509  0.6123  0.0887
   72MOL   C18535827   2.025   3.135   5.288 -0.3721 -0.4104  0.6819
   72MOL   H18635828   1.448   2.774   5.427 -0.0109 -0.6799  1.1686
   72MOL   H18735829   1.293   2.799   5.506 -0.8352  0.0183 -0.0550
   72MOL   H18835830   1.293   3.040   5.380 -1.3023 -0.1345 -2.7853
   72MOL   H18935831   1.471   3.164   5.276 -0.1954  1.6821 -1.8291
   72MOL   H19035832   1.378   3.102   5.142  0.4069  0.4637 -0.8780
   72MOL   H19135833   1.593   3.189   5.075 -1.1632  0.6950  0.0806
   72MOL   H19235834   1.590   3.013   5.038  2.9973  1.4698 -1.3282
   72MOL   H19335835   1.730   3.133   5.279  0.9168 -1.4383  1.7683
   72MOL   H19435836   1.721   2.963   5.236  0.5308  1.9289  2.2635
   72MOL   H19535837   1.837   3.033   5.014  2.1424  1.5132 -1.1340
   72MOL   H19635838   1.847   3.188   5.079 -3.2589 -0.0939  1.2808
   72MOL   H19735839   1.989   2.940   5.203 -4.4950 -0.0167 -1.4485
   72MOL   H19835840   2.069   3.045   5.101 -1.8250 -0.8118 -1.3461
   72MOL   H19935841   2.046   3.239   5.264 -0.9901 -0.1386  1.2857
   72MOL   H20035842   1.952   3.137   5.369 -1.6714 -0.8042 -0.4768
   72MOL   H20135843   2.123   3.099   5.323  1.2422 -0.2224 -3.4339
   72MOL   C20235844   1.232   2.880   5.247 -0.2830 -0.0047  0.5431
   72MOL   C20335845   1.090   2.874   5.295  0.0831  0.0906  0.3679
   72MOL   O20435846   1.088   2.765   5.386 -0.1465  0.3998  0.3825
   72MOL   C20535847   1.030   2.791   5.510  0.2916  0.0897  0.4923
   72MOL   C20635848   1.002   2.659   5.587  0.3166  0.0721  0.7341
   72MOL   C20735849   1.140   2.596   5.619 -0.0349  0.3382  0.0808
   72MOL   C20835850   1.145   2.463   5.692  0.3137  0.1355 -0.6484
   72MOL   C20935851   1.295   2.425   5.692  0.1494 -0.0599 -0.7496
   72MOL   C21035852   1.317   2.288   5.748 -0.7056 -0.1200  0.5977
   72MOL   H21135853   1.243   2.942   5.158 -0.2398  1.9240  1.8729
   72MOL   H21235854   1.266   2.780   5.220 -1.9788 -0.3549 -0.3444
   72MOL   H21335855   1.058   2.967   5.341  0.8710  0.2799  0.5391
   72MOL   H21435856   0.936   2.846   5.502 -0.3672 -1.2837 -1.4629
   72MOL   H21535857   1.092   2.865   5.561  1.6785  0.1654 -1.2325
   72MOL   H21635858   0.941   2.592   5.528 -0.7861  0.5384  1.3313
   72MOL   H21735859   0.951   2.680   5.681 -2.4734  0.6467 -0.8747
   72MOL   H21835860   1.195   2.582   5.526  0.5830 -0.8060  0.6019
   72MOL   H21935861   1.198   2.669   5.675 -0.0587  0.0067  0.5444
   72MOL   H22035862   1.102   2.478   5.791  2.0426 -0.0019  0.1456
   72MOL   H22135863   1.093   2.385   5.637  0.5858 -1.0894  0.8059
   72MOL   H22235864   1.350   2.437   5.599  0.9443 -1.0596 -0.4170
   72MOL   H22335865   1.342   2.485   5.770  0.1360 -0.3651 -0.5065
   72MOL   H22435866   1.338   2.289   5.855  0.0516  1.7525  0.4513
   72MOL   H22535867   1.243   2.210   5.728 -0.4973  0.1764 -1.4257
   72MOL   H22635868   1.406   2.251   5.697 -0.7087  0.4169  0.2014
   72MOL   C22735869   1.003   2.842   5.173  0.3586 -0.4864  0.5116
   72MOL   C22835870   0.855   2.820   5.209 -0.1384 -0.4880 -0.1885
   72MOL   O22935871   0.812   2.950   5.247 -0.4793  0.4093  0.1537
   72MOL   C23035872   0.676   2.958   5.286 -0.5407  0.6841  0.1401
   72MOL   C23135873   0.638   3.099   5.341  0.5822  0.6409  0.1297
   72MOL   C23235874   0.671   3.216   5.245 -0.1293  0.2986 -0.7627
   72MOL   C23335875   0.666   3.358   5.303  0.3911 -0.2157 -0.6913
   72MOL   C23435876   0.690   3.469   5.197  0.4848 -0.2658 -0.3773
   72MOL   C23535877   0.728   3.602   5.268 -0.0154 -0.1530  0.5753
   72MOL   H23635878   1.018   2.926   5.105  1.8727  2.3381  4.1224
   72MOL   H23735879   1.042   2.752   5.126 -0.0523  0.2621 -1.2996
   72MOL   H23835880   0.848   2.749   5.291  0.9889  0.7013  0.9570
   72MOL   H23935881   0.668   2.882   5.364  0.7346  1.2696  0.8567
   72MOL   H24035882   0.613   2.937   5.200  1.0567 -1.2282 -0.6022
   72MOL   H24135883   0.690   3.129   5.431  0.8120  1.4308 -0.2628
   72MOL   H24235884   0.537   3.100   5.383  0.5448  0.3057  0.0418
   72MOL   H24335885   0.769   3.195   5.204  0.6217  0.7606  0.7658
   72MOL   H24435886   0.598   3.190   5.167  0.3980 -1.1244 -0.7864
   72MOL   H24535887   0.562   3.365   5.336  1.1440  0.2514  1.6662
   72MOL   H24635888   0.732   3.364   5.390 -0.3343 -1.8279 -0.0091
   72MOL   H24735889   0.759   3.443   5.117 -0.0547  0.3961 -1.0564
   72MOL   H24835890   0.595   3.455   5.146  0.3933 -1.5008  0.1099
   72MOL   H24935891   0.670   3.630   5.356  1.9526  0.8998  1.5773
   72MOL   H25035892   0.830   3.591   5.305  0.2275  2.0435  0.6309
   72MOL   H25135893   0.718   3.689   5.203 -0.6305 -0.5097  0.1887
   72MOL   C25235894   0.770   2.770   5.087  0.1350 -0.0676 -0.0283
   72MOL   C25335895   0.832   2.670   4.988  0.2697  0.3560  0.2774
   72MOL   O25435896   0.743   2.632   4.886 -0.4985  0.8149  0.2640
   72MOL   C25535897   0.740   2.720   4.772 -0.0875 -0.2400 -0.0147
   72MOL   C25635898   0.600   2.706   4.703 -0.6202  0.8886 -0.1905
   72MOL   C25735899   0.481   2.736   4.795 -0.2867 -0.3745 -0.0379
   72MOL   C25835900   0.347   2.759   4.713 -0.1038  0.1700 -0.3202
   72MOL   C25935901   0.235   2.839   4.785 -0.1303  0.2403  0.1492
   72MOL   C26035902   0.137   2.889   4.672 -0.1829 -0.7008 -1.6333
   72MOL   H26135903   0.677   2.732   5.129  0.1880  2.4823  2.4780
   72MOL   H26235904   0.747   2.860   5.030  1.5681  1.1986  1.3553
   72MOL   H26335905   0.920   2.704   4.934 -0.7049 -0.7614 -2.0926
   72MOL   H26435906   0.821   2.707   4.700  1.2579 -0.0870  1.4484
   72MOL   H26535907   0.754   2.820   4.812 -1.4647  0.2493 -0.7190
   72MOL   H26635908   0.585   2.609   4.656  0.0508 -0.1105  1.6021
   72MOL   H26735909   0.590   2.773   4.618  2.9471  4.2922  1.9067
   72MOL   H26835910   0.459   2.670   4.878  1.1047 -0.6184  0.1604
   72MOL   H26935911   0.501   2.836   4.834 -0.7801 -0.7797  1.2545
   72MOL   H27035912   0.364   2.804   4.615 -2.3290  0.2706 -0.7008
   72MOL   H27135913   0.313   2.658   4.688  0.5672  0.5605 -2.9245
   72MOL   H27235914   0.182   2.781   4.861 -0.9771 -2.0833 -2.1364
   72MOL   H27335915   0.276   2.925   4.839 -0.2890  1.1395 -1.1578
   72MOL   H27435916   0.049   2.937   4.714 -0.6383 -2.0676 -1.0136
   72MOL   H27535917   0.178   2.966   4.607 -0.1671 -0.8226 -1.7666
   72MOL   H27635918   0.103   2.806   4.609 -1.5166 -1.9664  0.6928
   72MOL   C27735919   0.871   2.536   5.042  0.2562 -0.2178  0.0414
   72MOL   C27835920   0.996   2.474   4.966 -0.8597 -0.3358 -0.0588
   72MOL   O27935921   1.064   2.390   5.062  0.0155  0.1587 -0.0675
   72MOL   C28035922   1.149   2.466   5.153 -0.0814  0.1574  0.1521
   72MOL   C28135923   1.183   2.372   5.277 -0.0250 -0.6449  0.2918
   72MOL   C28235924   1.068   2.317   5.360  0.5389  0.1172  0.1961
   72MOL   C28335925   0.946   2.250   5.286 -0.7662 -0.0497 -0.4585
   72MOL   C28435926   0.844   2.178   5.375  0.1215  0.3524 -0.5345
   72MOL   C28535927   0.748   2.266   5.467 -0.1442  0.4691  0.0579
   72MOL   H28635928   0.885   2.546   5.150  3.2221  2.1083 -0.4858
   72MOL   H28735929   0.790   2.463   5.032 -2.0605  2.2587  0.1367
   72MOL   H28835930   1.065   2.553   4.937  0.3915 -2.0701 -2.0442
   72MOL   H28935931   1.090   2.551   5.190  0.0213 -0.5691  2.0490
   72MOL   H29035932   1.236   2.514   5.110 -0.1801  0.9880  0.8557
   72MOL   H29135933   1.263   2.414   5.338  1.5629 -2.7922 -0.2185
   72MOL   H29235934   1.247   2.290   5.243 -1.7957 -1.2979 -1.5934
   72MOL   H29335935   1.103   2.250   5.439  1.6033 -1.3065 -1.4390
   72MOL   H29435936   1.031   2.398   5.422  1.2708  1.1112 -0.6548
   72MOL   H29535937   0.889   2.328   5.234  0.4927  0.6111 -0.8500
   72MOL   H29635938   0.990   2.179   5.217 -1.2978 -0.1496 -0.7027
   72MOL   H29735939   0.793   2.101   5.317 -0.1801  0.9054 -1.0137
   72MOL   H29835940   0.904   2.112   5.438  0.3471  2.6234  1.6907
   72MOL   H29935941   0.804   2.344   5.518 -1.7496 -0.1693  2.9104
   72MOL   H30035942   0.677   2.317   5.401 -0.0907 -0.6699 -0.8917
   72MOL   H30135943   0.691   2.218   5.547 -0.8898  0.7833 -0.2709
   72MOL   C30235944   0.962   2.389   4.846  0.5096 -0.1789  0.0838
   72MOL   C30335945   1.083   2.333   4.770 -0.4030  0.1051  0.3340
   72MOL   O30435946   1.160   2.430   4.702 -0.5331  0.3396 -0.2333
   72MOL   C30535947   1.298   2.419   4.723 -0.2595 -0.2209  0.1499
   72MOL   C30635948   1.361   2.538   4.652  0.5032  0.5667 -0.4712
   72MOL   C30735949   1.496   2.497   4.588 -0.1111  0.4557 -0.6956
   72MOL   C30835950   1.583   2.610   4.527 -0.4490  0.2688 -0.0434
   72MOL   C30935951   1.701   2.550   4.451  0.4347  0.2225 -0.1118
   72MOL   C31035952   1.811   2.637   4.378 -0.0147 -0.0821 -0.0841
   72MOL   H31135953   0.891   2.308   4.863 -0.2136  0.5216  0.4101
   72MOL   H31235954   0.914   2.455   4.774 -1.1331  0.6464  1.8864
   72MOL   H31335955   1.142   2.280   4.845  0.5930  0.2464 -0.3519
   72MOL   H31435956   1.320   2.325   4.673 -0.0541  0.9338 -2.0012
   72MOL   H31535957   1.320   2.425   4.829 -0.3712 -0.3023  0.1772
   72MOL   H31635958   1.384   2.616   4.724 -0.1578 -0.4742  0.8698
   72MOL   H31735959   1.308   2.583   4.568  1.6175  3.1222  0.1430
   72MOL   H31835960   1.553   2.457   4.672 -1.1774  0.8801  0.2460
   72MOL   H31935961   1.479   2.405   4.531 -0.3536 -0.9600  1.5699
   72MOL   H32035962   1.525   2.668   4.455 -0.0733  2.7874  1.6225
   72MOL   H32135963   1.629   2.678   4.599 -0.3811  0.2471 -0.0666
   72MOL   H32235964   1.767   2.497   4.519  1.5997  0.9318 -0.6733
   72MOL   H32335965   1.659   2.475   4.384  0.6995  0.6228 -0.7322
   72MOL   H32435966   1.871   2.571   4.315 -0.1559 -2.3701  2.0758
   72MOL   H32535967   1.761   2.711   4.316 -0.9791  1.1757  2.1460
   72MOL   H32635968   1.875   2.694   4.446  0.4457  0.3137 -0.8467
   72MOL   C32735969   1.050   2.231   4.650  0.8499 -0.0184 -0.0015
   72MOL   C32835970   1.012   2.084   4.691  0.2155 -0.1948 -0.4769
   72MOL   O32935971   1.135   2.032   4.744  0.1811 -0.0844 -0.0179
   72MOL   C33035972   1.177   1.911   4.680  0.7377 -0.2747  0.4570
   72MOL   C33135973   1.315   1.860   4.720  0.2123 -0.9887  0.0837
   72MOL   C33235974   1.427   1.965   4.734  0.9469 -0.4258  0.4487
   72MOL   C33335975   1.413   2.055   4.863 -0.3278  0.8092  0.4810
   72MOL   C33435976   1.528   2.162   4.867  0.2305 -0.7978 -0.1677
   72MOL   C33535977   1.513   2.234   5.005 -0.2124  0.1249  0.4260
   72MOL   H33635978   1.127   2.223   4.573 -0.0250 -0.5879 -0.8229
   72MOL   H33735979   0.967   2.272   4.592 -0.6732 -1.9435  0.7912
   72MOL   H33835980   0.990   2.042   4.592  0.0938 -2.0589  0.3260
   72MOL   H33935981   1.182   1.914   4.572  0.6058 -0.5097  0.4442
   72MOL   H34035982   1.106   1.834   4.711  0.1528  0.8378  1.9487
   72MOL   H34135983   1.343   1.786   4.645 -2.1272  0.7905 -2.6356
   72MOL   H34235984   1.316   1.800   4.812 -0.2908  0.6425  1.1787
   72MOL   H34335985   1.522   1.916   4.754  1.3333 -0.2066 -0.8016
   72MOL   H34435986   1.435   2.026   4.644 -1.0403 -2.0597 -0.8783
   72MOL   H34535987   1.321   2.113   4.874  0.1710  1.4646  1.2887
   72MOL   H34635988   1.422   1.989   4.949 -0.7371  0.6046  0.3664
   72MOL   H34735989   1.629   2.126   4.850  0.8325 -0.2668  2.2645
   72MOL   H34835990   1.513   2.224   4.778  0.8827 -3.8442 -2.4922
   72MOL   H34935991   1.599   2.292   5.037 -1.3483  1.5649  0.9702
   72MOL   H35035992   1.430   2.305   5.000 -0.4649 -0.2310 -0.6587
   72MOL   H35135993   1.485   2.165   5.085  0.1352 -2.0066 -1.2257
   72MOL   C35235994   0.889   2.061   4.786  0.3045 -0.5292  0.2644
   72MOL   C35335995   0.812   1.924   4.788  0.1098  0.0364 -0.9743
   72MOL   O35435996   0.739   1.907   4.662  0.4137  0.0963 -0.0651
   72MOL   C35535997   0.790   1.809   4.577  0.1655  0.9283 -0.0855
   72MOL   C35635998   0.698   1.793   4.448 -0.0787  0.4544  0.0969
   72MOL   C35735999   0.740   1.903   4.348 -0.0943 -0.4093 -0.3310
   72MOL   C35836000   0.677   1.891   4.205 -0.2670 -0.5338  0.0224
   72MOL   C35936001   0.709   1.757   4.138  0.1813 -0.6393 -0.4338
   72MOL   C36036002   0.685   1.752   3.986 -0.8434 -0.6730  0.1892
   72MOL   H36136003   0.911   2.093   4.888  0.6177 -0.8621  0.3018
   72MOL   H36236004   0.814   2.136   4.759  1.1864  0.4891  0.5984
   72MOL   H36336005   0.889   1.849   4.804  0.8270  1.0249  0.3010
   72MOL   H36436006   0.769   1.717   4.631 -0.4114 -0.0375 -1.9179
   72MOL   H36536007   0.892   1.826   4.544  0.3851 -0.0567  0.0864
   72MOL   H36636008   0.593   1.803   4.474 -0.9602  1.5823 -3.6855
   72MOL   H36736009   0.712   1.694   4.405  2.7568  0.4309  0.9208
   72MOL   H36836010   0.728   2.002   4.390 -0.6720 -1.2040  1.4077
   72MOL   H36936011   0.849   1.898   4.343  0.0082 -0.6998  1.7173
   72MOL   H37036012   0.570   1.909   4.204 -0.3428 -0.9999 -0.8957
   72MOL   H37136013   0.710   1.965   4.133  0.6139 -0.5856  0.3710
   72MOL   H37236014   0.809   1.724   4.170  0.4464  0.8554  0.3371
   72MOL   H37336015   0.634   1.690   4.180  0.9285 -0.1248  1.8005
   72MOL   H37436016   0.684   1.647   3.954 -2.0935 -0.8180  0.6757
   72MOL   H37536017   0.593   1.791   3.944 -1.9522 -1.7760  1.5552
   72MOL   H37636018   0.770   1.800   3.937 -0.4281 -0.5688  1.0083
   72MOL   C37736019   0.690   1.921   4.891 -0.8356 -0.0169  0.3259
   72MOL   C37836020   0.592   1.802   4.881 -0.3207  0.8879  0.0921
   72MOL   O37936021   0.487   1.826   4.970 -0.4434 -0.4399 -0.0034
   72MOL   C38036022   0.354   1.791   4.933 -0.1957  0.0659  0.1230
   72MOL   C38136023   0.277   1.768   5.064  0.4102 -0.0918 -0.0718
   72MOL   C38236024   0.258   1.899   5.145  0.3470 -0.0471 -0.4073
   72MOL   C38336025   0.160   1.904   5.253  1.0603 -0.6696 -0.1731
   72MOL   C38436026   0.161   2.037   5.330  0.2039 -1.3823 -1.0421
   72MOL   C38536027   0.130   2.020   5.483 -0.9459 -0.2822 -0.1523
   72MOL   H38636028   0.719   1.943   4.994 -1.8084  0.5242  0.4894
   72MOL   H38736029   0.645   2.016   4.864  1.7232  1.0754 -0.2621
   72MOL   H38836030   0.552   1.789   4.780 -0.4104  1.8264 -0.0035
   72MOL   H38936031   0.358   1.708   4.863  1.0446 -0.0337  0.3009
   72MOL   H39036032   0.301   1.857   4.864 -1.0223 -0.7153  0.0008
   72MOL   H39136033   0.315   1.681   5.119  0.4837 -0.5268 -0.7956
   72MOL   H39236034   0.184   1.736   5.017  0.5961  0.7502 -1.0108
   72MOL   H39336035   0.355   1.910   5.195  0.7813 -0.6092 -1.1191
   72MOL   H39436036   0.252   1.989   5.085 -1.6631 -0.0305 -0.2007
   72MOL   H39536037   0.063   1.878   5.210  0.8729 -3.5025  1.8311
   72MOL   H39636038   0.167   1.820   5.321 -0.9458  0.1765  1.1198
   72MOL   H39736039   0.255   2.089   5.315  0.1563 -1.9049 -3.3354
   72MOL   H39836040   0.083   2.096   5.282 -1.2423 -1.6015  0.9803
   72MOL   H39936041   0.037   1.964   5.497 -1.7169  0.8553 -0.6582
   72MOL   H40036042   0.205   1.957   5.532  0.1599  1.2050  0.0800
   72MOL   H40136043   0.123   2.117   5.530  2.2793  0.3552 -0.8825
   72MOL   C40236044   0.662   1.669   4.921  0.0769  0.1431  0.2750
   72MOL   C40336045   0.739   1.652   5.054  0.3516 -0.0197 -0.2182
   72MOL   O40436046   0.800   1.520   5.055 -0.4030 -0.0217  0.2050
   72MOL   C40536047   0.944   1.520   5.036  0.1312  0.0496 -0.8398
   72MOL   C40636048   0.992   1.375   5.050 -0.0181  0.3283  0.1147
   72MOL   C40736049   0.898   1.275   4.971  0.5974  0.0178  0.1124
   72MOL   C40836050   0.963   1.139   4.945  0.1973 -0.2109  0.4009
   72MOL   C40936051   0.865   1.037   4.884  0.1845  0.5577 -0.4424
   72MOL   C41036052   0.937   0.899   4.864  0.1183 -0.2821  0.3233
   72MOL   H41136053   0.736   1.651   4.842 -1.7137  0.2735 -1.4821
   72MOL   H41236054   0.595   1.585   4.908 -0.8312  1.0522 -1.0790
   72MOL   H41336055   0.811   1.732   5.068  0.4645 -0.1460 -0.0655
   72MOL   H41436056   0.999   1.587   5.102 -0.8696  0.3513 -0.3092
   72MOL   H41536057   0.962   1.567   4.939  1.8511  0.8451 -0.1533
   72MOL   H41636058   0.993   1.346   5.156  0.1183 -3.3863 -0.8080
   72MOL   H41736059   1.092   1.370   5.008 -0.2202  0.9469 -0.4377
   72MOL   H41836060   0.803   1.268   5.022 -0.9803  3.4274 -2.1695
   72MOL   H41936061   0.860   1.317   4.878  0.3667  1.7964  0.9923
   72MOL   H42036062   1.043   1.147   4.870  1.5652 -0.3352  1.8184
   72MOL   H42136063   1.008   1.094   5.033  0.8420 -0.2398  0.0633
   72MOL   H42236064   0.781   1.023   4.952  0.5056 -0.4255 -0.2548
   72MOL   H42336065   0.821   1.069   4.789 -2.2530  1.2031  0.8525
   72MOL   H42436066   0.871   0.824   4.821  0.0843  0.7544 -1.4750
   72MOL   H42536067   1.023   0.920   4.800  0.6700 -0.1382  1.1050
   72MOL   H42636068   0.971   0.849   4.954  0.3294 -2.7605 -1.0782
   72MOL   C42736069   0.646   1.666   5.175 -0.0268 -0.4839  1.0023
   72MOL   C42836070   0.713   1.695   5.305  0.1345  0.0517  0.4586
   72MOL   O42936071   0.607   1.745   5.392 -0.7003  0.0155 -0.1300
   72MOL   C43036072   0.598   1.888   5.404 -0.5971 -0.5644  0.4767
   72MOL   C43136073   0.500   1.939   5.500 -0.2388  0.2970 -0.3996
   72MOL   C43236074   0.552   1.928   5.647 -0.1543 -0.5097  0.1785
   72MOL   C43336075   0.445   1.987   5.739  0.5456 -0.3332 -0.1369
   72MOL   C43436076   0.482   1.986   5.890  0.9061  0.2146  0.1049
   72MOL   C43536077   0.361   1.980   5.980 -0.6897 -0.3683 -0.2280
   72MOL   H43636078   0.587   1.754   5.149 -0.4340 -0.8872  0.5607
   72MOL   H43736079   0.577   1.582   5.183  0.5729 -0.9586  1.2444
   72MOL   H43836080   0.792   1.767   5.286  1.3088 -1.3611 -0.0424
   72MOL   H43936081   0.565   1.925   5.307  0.3941  1.6207  0.9543
   72MOL   H44036082   0.687   1.948   5.421 -1.1618  0.0331  1.3871
   72MOL   H44136083   0.399   1.903   5.479 -0.1249  0.5660 -1.4516
   72MOL   H44236084   0.492   2.048   5.490 -1.3223  0.4824  2.1372
   72MOL   H44336085   0.575   1.825   5.675 -1.8081 -1.5222 -2.0358
   72MOL   H44436086   0.643   1.986   5.663 -0.5529  0.3961 -0.7950
   72MOL   H44536087   0.414   2.089   5.715  2.0226 -0.5336 -3.2046
   72MOL   H44636088   0.357   1.932   5.705  0.4350  0.8667 -1.8349
   72MOL   H44736089   0.541   1.895   5.899 -2.5654 -2.2617 -1.0227
   72MOL   H44836090   0.541   2.074   5.917  1.1354 -0.1371  0.7528
   72MOL   H44936091   0.291   1.900   5.957  1.2963 -2.0252 -0.6561
   72MOL   H45036092   0.387   1.962   6.085  2.7351  0.8150 -0.7798
   72MOL   H45136093   0.307   2.074   5.982  2.3134  1.4400  0.2810
   72MOL   C45236094   0.763   1.568   5.372  0.3863 -0.0065  0.3846
   72MOL   C45336095   0.841   1.583   5.502 -0.3616  0.5984  0.6043
   72MOL   O45436096   0.951   1.659   5.464 -0.3218 -0.3160  0.1130
   72MOL   C45536097   0.968   1.781   5.529 -0.3075 -0.2765 -0.5267
   72MOL   C45636098   1.090   1.849   5.476 -0.6050  0.1392 -0.4865
   72MOL   C45736099   1.105   1.858   5.328  0.3166  0.2604 -0.3377
   72MOL   C45836100   1.233   1.922   5.276  0.0832 -0.2194  0.1695
   72MOL   C45936101   1.213   1.985   5.138 -0.2521 -0.5620 -0.1172
   72MOL   C46036102   1.146   1.888   5.045  0.1275 -0.2915  0.2867
   72MOL   H46136103   0.669   1.515   5.389  0.3886 -0.4511 -0.9586
   72MOL   H46236104   0.830   1.531   5.295  0.1973 -0.4292  0.4215
   72MOL   H46336105   0.781   1.631   5.579 -1.3892  1.0236 -0.4397
   72MOL   H46436106   0.977   1.779   5.638 -0.8445  2.7800 -0.3814
   72MOL   H46536107   0.890   1.849   5.496  0.7981 -0.3979 -3.5334
   72MOL   H46636108   1.172   1.803   5.532 -1.0496 -0.5323 -0.3839
   72MOL   H46736109   1.096   1.954   5.502 -2.5564  0.3564 -0.8473
   72MOL   H46836110   1.103   1.754   5.293 -0.5621 -0.2683  1.2194
   72MOL   H46936111   1.023   1.920   5.293  1.3003  0.8026 -1.7165
   72MOL   H47036112   1.257   2.005   5.341  0.7479 -0.4665  0.2446
   72MOL   H47136113   1.321   1.858   5.264  0.4373  0.2358  0.3456
   72MOL   H47236114   1.159   2.080   5.133 -1.8936 -1.4628 -0.0192
   72MOL   H47336115   1.310   2.016   5.101  1.0107 -2.6560  1.3364
   72MOL   H47436116   1.117   1.927   4.948  0.1467 -0.0687  0.3704
   72MOL   H47536117   1.222   1.813   5.022 -0.5069  0.2323 -3.9640
   72MOL   H47636118   1.063   1.830   5.087  1.5316 -1.2948  1.7563
   72MOL   C47736119   0.895   1.446   5.559 -0.5713 -0.2072  0.5055
   72MOL   C47836120   0.810   1.383   5.667 -0.8296  0.3551 -0.5107
   72MOL   O47936121   0.873   1.263   5.714 -0.2118  0.0687 -0.3335
   72MOL   C48036122   0.801   1.208   5.821  0.4675 -0.1461  0.0407
   72MOL   C48136123   0.887   1.095   5.881 -0.4918  0.0215 -0.2951
   72MOL   C48236124   0.928   0.990   5.777  0.4000  0.0052 -0.2546
   72MOL   C48336125   1.012   0.881   5.836  0.3507  0.2413  0.3416
   72MOL   C48436126   1.051   0.767   5.747 -0.6454  0.1314 -0.1959
   72MOL   C48536127   0.924   0.689   5.695  0.0585 -0.5730 -0.4197
   72MOL   H48636128   0.935   1.377   5.485 -0.9038  1.2074 -1.0126
   72MOL   H48736129   0.983   1.486   5.608 -0.7221  0.3628  0.3169
   72MOL   H48836130   0.803   1.456   5.748  2.1485 -1.3209  1.3353
   72MOL   H48936131   0.698   1.188   5.795  0.0797  2.8781 -0.9721
   72MOL   H49036132   0.789   1.279   5.903 -2.2461 -0.1142 -0.3376
   72MOL   H49136133   0.829   1.052   5.963  3.6884 -0.4549  2.5735
   72MOL   H49236134   0.975   1.133   5.932 -0.4864  1.0103 -1.0325
   72MOL   H49336135   0.836   0.952   5.734 -0.9106  1.7593  0.9708
   72MOL   H49436136   0.982   1.042   5.698 -0.7998  1.5027 -0.0950
   72MOL   H49536137   1.108   0.922   5.870  0.4774 -1.3633  2.0227
   72MOL   H49636138   0.974   0.849   5.933 -0.5999 -0.1712 -0.1606
   72MOL   H49736139   1.099   0.812   5.661  1.4621  2.4460  2.0946
   72MOL   H49836140   1.110   0.691   5.799 -2.2236  0.2837  1.9170
   72MOL   H49936141   0.955   0.593   5.653 -0.2886 -0.3000 -1.2903
   72MOL   H50036142   0.848   0.680   5.773  0.5079  0.5697  0.1743
   72MOL   H50136143   0.880   0.749   5.617  1.0602 -2.1198 -2.2203
   72MOL   H50236144   0.708   1.356   5.638 -0.9656 -1.4864  1.5198
   73MOL     C136145   4.592   5.431   0.384  0.3866  0.6339  0.0167
   73MOL     C236146   4.605   5.285   0.431 -0.4298  0.5882  0.6640
   73MOL     O336147   4.624   5.210   0.315  0.2116 -0.4705 -0.3031
   73MOL     C436148   4.747   5.147   0.302  0.5011  0.7694  0.0728
   73MOL     C536149   4.749   5.037   0.194 -0.2223  0.4275 -0.2864
   73MOL     C636150   4.627   4.948   0.167  0.2626 -0.1978  0.5285
   73MOL     C736151   4.642   4.841   0.059  0.0455  0.5137  0.5415
   73MOL     C836152   4.555   4.860   7.710 -0.1713 -0.4859  0.8851
   73MOL     C936153   4.571   4.755   7.607 -0.1190 -0.0162  0.0414
   73MOL    H1036154   4.601   5.490   0.476  0.7454  0.3289  0.1803
   73MOL    H1136155   4.677   5.463   0.323  1.1388 -1.7978 -0.2739
   73MOL    H1236156   4.679   5.279   0.510 -0.1869  0.8698  0.4589
   73MOL    H1336157   4.780   5.091   0.390 -0.9155  0.5558  0.4851
   73MOL    H1436158   4.830   5.214   0.278 -0.7813  2.1849 -0.4381
   73MOL    H1536159   4.832   4.968   0.204 -0.9067 -0.0933  2.1019
   73MOL    H1636160   4.760   5.094   0.101  0.8482 -2.1703 -1.7835
   73MOL    H1736161   4.578   4.913   0.258 -1.1237 -1.6806 -0.7504
   73MOL    H1836162   4.544   5.013   0.143 -0.6016 -0.9364  1.4694
   73MOL    H1936163   4.746   4.829   0.029  0.1270  1.4954  0.4196
   73MOL    H2036164   4.618   4.749   0.113 -1.9450 -1.1660 -3.0203
   73MOL    H2136165   4.580   4.956   7.664 -0.0408 -1.7422 -1.7772
   73MOL    H2236166   4.454   4.882   7.747  0.6566  2.8319  1.3578
   73MOL    H2336167   4.579   4.663   7.665  0.4242  0.6027  0.9580
   73MOL    H2436168   4.497   4.769   7.528  0.1311  1.4554  0.0528
   73MOL    H2536169   4.662   4.757   7.546 -0.0922  2.2142  0.1058
   73MOL    H2636170   4.503   5.460   0.329 -1.1043 -0.0703  2.0117
   73MOL    C2736171   4.473   5.239   0.496  0.1078 -0.3728  0.7330
   73MOL    C2836172   4.489   5.117   0.599  0.2212  0.2187  0.0586
   73MOL    O2936173   4.594   5.146   0.689 -0.1641 -0.5576 -0.2061
   73MOL    C3036174   4.681   5.044   0.726  0.5182 -0.1869 -0.1761
   73MOL    C3136175   4.796   5.118   0.792 -0.4982  0.1460  0.2414
   73MOL    C3236176   4.926   5.029   0.835 -0.1015  0.0576  0.1673
   73MOL    C3336177   5.022   5.090   0.941  0.0692 -0.4027  0.0606
   73MOL    C3436178   5.127   4.989   0.995 -0.4912  0.4186 -0.0167
   73MOL    C3536179   5.235   5.047   1.089 -0.2990  0.5953  0.7995
   73MOL    H3636180   4.433   5.327   0.546  0.1284 -0.7703  1.4610
   73MOL    H3736181   4.396   5.213   0.424  0.1519  0.1694  0.4965
   73MOL    H3836182   4.514   5.027   0.542 -1.8495 -0.1139 -0.3763
   73MOL    H3936183   4.723   4.986   0.643 -2.3521  0.7428 -2.3330
   73MOL    H4036184   4.629   4.978   0.795  0.4276  0.8761  0.7734
   73MOL    H4136185   4.752   5.162   0.881 -1.6481  0.0852 -0.2948
   73MOL    H4236186   4.825   5.195   0.721  1.8064  0.2814  1.2817
   73MOL    H4336187   4.894   4.942   0.892 -2.5239 -0.2027 -1.5276
   73MOL    H4436188   4.979   4.984   0.751 -1.3750 -1.0359 -0.0636
   73MOL    H4536189   5.068   5.174   0.890 -1.0520 -0.9743 -1.9592
   73MOL    H4636190   4.962   5.127   1.024 -1.0340  0.6217 -1.1665
   73MOL    H4736191   5.084   4.899   1.040  1.8273 -1.4484 -1.4281
   73MOL    H4836192   5.181   4.963   0.904 -0.1901  2.4476 -0.4371
   73MOL    H4936193   5.182   5.104   1.166  1.8688  2.1648  1.1774
   73MOL    H5036194   5.304   4.980   1.140 -2.0683 -1.2305  0.8296
   73MOL    H5136195   5.280   5.127   1.031 -1.5675  1.6764  1.2784
   73MOL    C5236196   4.364   5.067   0.674  0.8482 -0.2741  0.8724
   73MOL    C5336197   4.244   5.000   0.606  0.4016 -0.5946 -0.1684
   73MOL    O5436198   4.177   4.954   0.721  0.0254  0.2804 -0.2190
   73MOL    C5536199   4.196   4.815   0.749 -0.6296  0.8053  0.5503
   73MOL    C5636200   4.091   4.733   0.666  0.2111  0.2282 -0.2483
   73MOL    C5736201   3.952   4.777   0.716  0.0152 -0.6405 -0.0268
   73MOL    C5836202   3.830   4.711   0.649 -0.5798 -0.7715 -0.3763
   73MOL    C5936203   3.694   4.773   0.702 -1.1538  0.2933 -0.2990
   73MOL    C6036204   3.580   4.704   0.627 -0.2749 -0.6673 -0.1278
   73MOL    H6136205   4.325   5.145   0.739  2.8888  0.0557  1.7254
   73MOL    H6236206   4.383   4.996   0.754 -1.3677 -2.6215 -0.5830
   73MOL    H6336207   4.261   4.931   0.524 -1.3510 -0.9722 -0.2479
   73MOL    H6436208   4.174   4.805   0.855 -0.7948  0.7639  0.5136
   73MOL    H6536209   4.297   4.783   0.727 -0.7211  0.0958  1.1238
   73MOL    H6636210   4.090   4.628   0.692  0.6489  0.2663 -0.0606
   73MOL    H6736211   4.111   4.743   0.559  0.0407 -0.9610 -0.3989
   73MOL    H6836212   3.952   4.750   0.821 -0.4606  2.1561  0.7467
   73MOL    H6936213   3.943   4.886   0.718 -1.0415 -0.7341  0.9470
   73MOL    H7036214   3.837   4.729   0.542 -0.9152  1.5302 -0.0332
   73MOL    H7136215   3.817   4.603   0.657 -0.6676 -0.5303  4.0074
   73MOL    H7236216   3.695   4.752   0.808 -0.2592  2.5084  0.1631
   73MOL    H7336217   3.691   4.882   0.688 -1.4034  0.2432 -0.6462
   73MOL    H7436218   3.597   4.707   0.520 -0.1586 -0.3738 -0.1016
   73MOL    H7536219   3.574   4.598   0.648  0.0272 -0.5878  0.3678
   73MOL    H7636220   3.484   4.752   0.645 -0.5751 -1.6693  0.9721
   73MOL    C7736221   4.144   5.107   0.547  0.5839  0.6688 -0.2672
   73MOL    C7836222   4.100   5.091   0.395  0.1134  0.0359 -0.4925
   73MOL    O7936223   4.019   5.200   0.358  0.1453 -0.5529  0.3924
   73MOL    C8036224   4.084   5.321   0.312 -0.5581 -0.6461 -0.1064
   73MOL    C8136225   3.982   5.426   0.256 -0.8935  0.1319  0.2919
   73MOL    C8236226   3.903   5.385   0.128 -0.9778  0.0651 -0.2899
   73MOL    C8336227   3.791   5.483   0.110  0.1129 -0.0644 -0.3113
   73MOL    C8436228   3.691   5.431   7.777 -0.3063 -0.8123 -0.5203
   73MOL    C8536229   3.751   5.410   7.641  0.8020 -0.2708 -0.6177
   73MOL    H8636230   4.172   5.204   0.589 -1.7543  0.4814  1.8595
   73MOL    H8736231   4.057   5.105   0.613  1.5557  2.0229  1.0928
   73MOL    H8836232   4.190   5.081   0.334  1.1009 -1.3489  1.1132
   73MOL    H8936233   4.162   5.295   0.240  1.7985  0.1456  2.0907
   73MOL    H9036234   4.126   5.363   0.403  0.7813  1.4073 -1.6270
   73MOL    H9136235   4.043   5.513   0.235 -0.9358 -0.6266 -3.2310
   73MOL    H9236236   3.916   5.473   0.329 -2.6804  0.3120 -1.3922
   73MOL    H9336237   3.969   5.388   0.041  0.5927 -0.2697  0.8656
   73MOL    H9436238   3.874   5.280   0.135 -0.4834 -0.2844 -2.9329
   73MOL    H9536239   3.743   5.510   0.204  0.5083  1.6836 -0.5864
   73MOL    H9636240   3.830   5.580   0.079 -2.2927  0.5506 -1.5564
   73MOL    H9736241   3.642   5.341   0.036 -0.2061  0.1675  2.1627
   73MOL    H9836242   3.612   5.501   7.750  1.1421  0.5842 -1.2689
   73MOL    H9936243   3.814   5.494   7.612 -1.4535  2.8057  2.8116
   73MOL   H10036244   3.803   5.314   7.638 -2.2379 -1.9361 -2.2013
   73MOL   H10136245   3.671   5.410   7.568  1.3156  0.0040 -1.1859
   73MOL   C10236246   4.018   4.978   0.352 -0.4191  0.1395  0.2483
   73MOL   C10336247   4.004   4.963   0.198  0.1275  0.5147  0.3436
   73MOL   O10436248   4.068   4.843   0.147  0.4507 -0.0088  0.2336
   73MOL   C10536249   4.206   4.836   0.151 -0.1965  0.8043  0.0609
   73MOL   C10636250   4.255   4.690   0.122  0.3942  0.7689 -0.1011
   73MOL   C10736251   4.213   4.643   7.757 -0.5106  0.4455  0.1710
   73MOL   C10836252   4.270   4.509   7.723 -0.3635 -0.2764 -0.3248
   73MOL   C10936253   4.293   4.498   7.572 -0.0772 -0.3396  0.0777
   73MOL   C11036254   4.334   4.354   7.530 -0.5417  0.1345  0.0034
   73MOL   H11136255   4.061   4.881   0.377  2.1739  1.3637  0.7438
   73MOL   H11236256   3.920   4.961   0.397  0.3715 -2.3609  1.1184
   73MOL   H11336257   4.066   5.038   0.148  0.0221  0.5988  0.3386
   73MOL   H11436258   4.246   4.868   0.247  0.6999 -0.5662  0.1668
   73MOL   H11536259   4.258   4.901   0.081  1.0043 -0.3244 -0.1161
   73MOL   H11636260   4.210   4.621   0.194  0.6215  2.4933  1.7181
   73MOL   H11736261   4.364   4.685   0.132  0.4596  0.2705 -1.0688
   73MOL   H11836262   4.105   4.642   7.742 -0.1761  1.4370 -2.5573
   73MOL   H11936263   4.258   4.707   7.681  0.6076 -1.9616 -1.2584
   73MOL   H12036264   4.369   4.487   7.762 -0.0775  0.5291 -0.5963
   73MOL   H12136265   4.210   4.419   7.741 -0.3387  0.0915  1.7554
   73MOL   H12236266   4.198   4.510   7.519 -0.4200 -3.0284 -0.0046
   73MOL   H12336267   4.371   4.572   7.555 -0.1604 -0.1550  0.4844
   73MOL   H12436268   4.280   4.274   7.582  0.6038 -0.6380  0.0216
   73MOL   H12536269   4.322   4.337   7.423  0.8161 -0.4226 -0.0734
   73MOL   H12636270   4.436   4.333   7.561 -0.7759 -1.4875 -0.2444
   73MOL   C12736271   3.861   4.982   0.137 -0.3716 -0.5200  0.2724
   73MOL   C12836272   3.869   4.974   7.753 -0.0488  0.2500 -0.2992
   73MOL   O12936273   3.924   5.100   7.715 -0.5150 -0.2952  0.6428
   73MOL   C13036274   4.005   5.081   7.595 -0.1650 -0.4608 -0.0317
   73MOL   C13136275   4.087   5.203   7.583  0.4637  1.0659  0.0639
   73MOL   C13236276   4.192   5.216   7.691 -0.0485  0.0540 -0.3534
   73MOL   C13336277   4.263   5.354   7.693 -0.3709  0.1374 -0.2056
   73MOL   C13436278   4.390   5.355   7.769  0.2750 -0.0840  0.2139
   73MOL   C13536279   4.514   5.297   7.689  0.0689 -0.2255 -0.2728
   73MOL   H13636280   3.794   4.904   0.173 -1.8803  1.0763  1.0736
   73MOL   H13736281   3.822   5.079   0.169 -1.3722 -0.3979 -1.2547
   73MOL   H13836282   3.924   4.885   7.722 -0.0980  0.3519 -0.6904
   73MOL   H13936283   3.948   5.080   7.502 -1.6590 -1.0828  0.8762
   73MOL   H14036284   4.069   4.993   7.595  1.9076  0.9920 -1.0645
   73MOL   H14136285   4.022   5.290   7.588  0.6022  1.1642  0.1453
   73MOL   H14236286   4.129   5.212   7.482 -0.4700  1.3290 -0.3052
   73MOL   H14336287   4.147   5.203   0.012 -1.5992  4.7074 -0.3179
   73MOL   H14436288   4.270   5.144   7.668  1.0861  1.1693 -0.0754
   73MOL   H14536289   4.275   5.385   7.589 -0.6826  1.7195  0.2145
   73MOL   H14636290   4.195   5.423   7.742 -0.9929 -1.5087  1.2823
   73MOL   H14736291   4.409   5.455   0.030  1.7264  0.2063 -1.2303
   73MOL   H14836292   4.374   5.295   0.081 -0.2360  0.3330  0.4085
   73MOL   H14936293   4.599   5.278   7.756 -0.0749 -0.7501 -0.2449
   73MOL   H15036294   4.493   5.202   7.640 -1.1371  0.1198 -0.4345
   73MOL   H15136295   4.555   5.359   7.609  1.0887 -1.1373 -0.4659
   73MOL   C15236296   3.733   4.966   7.685 -0.5194  0.0498 -0.1557
   73MOL   C15336297   3.675   4.823   7.694  0.5046  0.7015 -0.0294
   73MOL   O15436298   3.537   4.838   7.742  0.1387 -0.2159 -0.0657
   73MOL   C15536299   3.459   4.719   0.002 -0.6257  0.0338 -0.0472
   73MOL   C15636300   3.476   4.660   0.145 -0.9020  0.1165 -0.0757
   73MOL   C15736301   3.385   4.551   0.187 -0.3485 -0.2164 -0.3311
   73MOL   C15836302   3.404   4.418   0.113  0.7009 -0.5870  0.5953
   73MOL   C15936303   3.319   4.304   0.181 -0.0134 -1.1818 -0.8256
   73MOL   C16036304   3.337   4.165   0.117  0.4672  0.4473  0.1742
   73MOL   H16136305   3.657   5.031   7.731 -0.2335  0.4587 -0.2591
   73MOL   H16236306   3.736   4.990   7.579 -0.8548 -0.8522 -0.3697
   73MOL   H16336307   3.745   4.759   7.748  0.0365 -0.7854 -1.1602
   73MOL   H16436308   3.481   4.633   7.715  0.3853 -0.8857  1.4986
   73MOL   H16536309   3.356   4.752   7.765 -0.8699 -1.0535 -0.8399
   73MOL   H16636310   3.477   4.735   0.224  0.5165 -2.8640  2.9026
   73MOL   H16736311   3.579   4.627   0.164 -1.0529 -0.4705 -0.2687
   73MOL   H16836312   3.406   4.542   0.293 -1.0351  2.1594  0.0477
   73MOL   H16936313   3.283   4.589   0.193 -0.4667 -0.5881  0.0355
   73MOL   H17036314   3.377   4.430   0.008  1.7951  1.2300  0.4892
   73MOL   H17136315   3.511   4.398   0.107  1.3404  2.7093 -0.4810
   73MOL   H17236316   3.340   4.304   0.288  0.3341  0.2285 -0.8833
   73MOL   H17336317   3.213   4.324   0.172  0.7059  2.5855 -1.3932
   73MOL   H17436318   3.250   4.104   0.143  0.2870 -0.1739 -1.7544
   73MOL   H17536319   3.355   4.180   0.010 -0.4400 -0.1076 -0.0623
   73MOL   H17636320   3.429   4.112   0.141  0.0226  0.7796  2.7387
   73MOL   C17736321   3.662   4.759   7.553  0.2608 -0.4661  0.0973
   73MOL   C17836322   3.795   4.715   7.489  0.3856  0.1441  0.6907
   73MOL   O17936323   3.873   4.622   7.569 -0.3630  0.9308  0.0148
   73MOL   C18036324   3.815   4.493   7.595  0.0695 -0.2788  0.7800
   73MOL   C18136325   3.907   4.428   7.699  0.3169  0.2249  0.5381
   73MOL   C18236326   3.892   4.500   0.050 -0.2829 -0.1690 -0.2884
   73MOL   C18336327   3.976   4.443   0.167 -0.3816  0.2755 -0.2177
   73MOL   C18436328   3.961   4.516   0.299  0.1731  0.3570 -0.5673
   73MOL   C18536329   4.040   4.439   0.407 -0.3939 -0.5929  0.9715
   73MOL   H18636330   3.604   4.668   7.569  0.3698  0.1790  4.8332
   73MOL   H18736331   3.607   4.824   7.485 -0.7426 -1.1291  0.2619
   73MOL   H18836332   3.844   4.810   7.469  0.5489 -0.0103  0.3498
   73MOL   H18936333   3.821   4.432   7.504  2.3412  0.4457  0.4101
   73MOL   H19036334   3.713   4.496   7.633  0.2397 -2.7046  1.5107
   73MOL   H19136335   4.007   4.432   7.655 -0.2639 -0.4965 -0.8982
   73MOL   H19236336   3.891   4.321   7.713 -2.4813  0.5981  0.4680
   73MOL   H19336337   3.916   4.605   0.032 -1.9057 -0.0775 -2.2434
   73MOL   H19436338   3.790   4.506   0.089 -0.4621  0.6092 -0.8484
   73MOL   H19536339   3.949   4.338   0.183 -0.6782  0.5530  1.1622
   73MOL   H19636340   4.079   4.435   0.133 -0.7986 -1.3250 -1.1677
   73MOL   H19736341   4.015   4.609   0.284  1.5465  0.0354  2.1537
   73MOL   H19836342   3.857   4.527   0.330 -0.1179 -4.5590  0.6640
   73MOL   H19936343   4.026   4.331   0.414 -4.9012 -0.1192  0.6728
   73MOL   H20036344   4.145   4.466   0.395 -0.6144 -1.5099 -4.0652
   73MOL   H20136345   4.022   4.488   0.503  1.3612  2.3608 -0.1310
   73MOL   C20236346   3.769   4.657   7.345  0.3411 -0.0840 -0.0195
   73MOL   C20336347   3.899   4.648   7.270  0.5186  0.1595  0.5275
   73MOL   O20436348   3.939   4.786   7.242 -0.4305  0.7297 -0.3436
   73MOL   C20536349   4.064   4.816   7.299 -0.5093 -0.5657 -0.3647
   73MOL   C20636350   4.110   4.945   7.230 -0.3122 -0.2714 -0.8265
   73MOL   C20736351   4.241   5.005   7.293  0.8506 -0.0205  0.1204
   73MOL   C20836352   4.302   5.138   7.237  0.3391  0.2822  0.3761
   73MOL   C20936353   4.406   5.199   7.337  0.0036 -0.6927  0.3381
   73MOL   C21036354   4.536   5.115   7.349 -0.6981 -0.6888  0.1028
   73MOL   H21136355   3.719   4.561   7.344 -1.0331  0.6078  0.7442
   73MOL   H21236356   3.705   4.718   7.282  1.0536  1.0421  0.3270
   73MOL   H21336357   3.975   4.592   7.325  1.3667  0.8972  0.1283
   73MOL   H21436358   4.139   4.736   7.293  0.1128 -0.0676  0.5804
   73MOL   H21536359   4.060   4.845   7.404 -0.7680  1.2192 -0.8529
   73MOL   H21636360   4.022   5.007   7.245  1.4301  2.5063 -1.6302
   73MOL   H21736361   4.138   4.928   7.126  1.2214 -0.5792 -0.3679
   73MOL   H21836362   4.216   5.029   7.396  2.0573 -1.6133  0.8215
   73MOL   H21936363   4.324   4.934   7.303  1.6827  0.9791  0.3924
   73MOL   H22036364   4.342   5.117   7.138  1.2740  0.5470  0.6955
   73MOL   H22136365   4.217   5.206   7.225 -0.0351 -0.5112 -1.6889
   73MOL   H22236366   4.433   5.298   7.300 -2.1206 -0.0348  0.4556
   73MOL   H22336367   4.362   5.226   7.433  0.6323 -0.2751  0.5055
   73MOL   H22436368   4.621   5.177   7.377  1.1641 -3.3809  0.5823
   73MOL   H22536369   4.524   5.054   7.438  0.8539 -1.5571 -0.2664
   73MOL   H22636370   4.556   5.040   7.273 -1.0873  1.6664 -2.4262
   73MOL   C22736371   3.874   4.572   7.133  0.0731 -0.1717 -0.4173
   73MOL   C22836372   3.993   4.572   7.033  0.5145  0.8644  0.1054
   73MOL   O22936373   4.073   4.455   7.065 -0.1122  0.2879 -0.1595
   73MOL   C23036374   4.217   4.480   7.074 -0.4372 -0.8781  0.0865
   73MOL   C23136375   4.293   4.350   7.109 -0.8139 -0.0471  0.8041
   73MOL   C23236376   4.311   4.256   6.978 -0.3545 -0.3770  0.5644
   73MOL   C23336377   4.371   4.115   6.998  0.4550 -0.8580  0.1219
   73MOL   C23436378   4.272   4.013   7.062  0.9755  0.5031  0.6371
   73MOL   C23536379   4.327   3.868   7.052  0.3211 -0.5525 -0.6107
   73MOL   H23636380   3.816   4.480   7.130  0.7983 -0.6085 -1.4118
   73MOL   H23736381   3.795   4.626   7.081 -0.3129 -0.5987 -0.2740
   73MOL   H23836382   4.042   4.667   7.052  0.5007  1.6864 -3.5472
   73MOL   H23936383   4.221   4.553   7.155 -2.7752  1.0241 -1.4390
   73MOL   H24036384   4.265   4.525   6.988  1.7704 -1.6566  0.8604
   73MOL   H24136385   4.248   4.293   7.191 -0.2420 -1.6236  0.0493
   73MOL   H24236386   4.393   4.375   7.144 -0.8215  0.7646  0.2466
   73MOL   H24336387   4.212   4.240   6.937 -0.9362  3.0010  0.5396
   73MOL   H24436388   4.370   4.316   6.909  1.9357 -0.9377  1.9519
   73MOL   H24536389   4.398   4.094   6.895 -1.5050 -1.7324 -0.2262
   73MOL   H24636390   4.461   4.138   7.056  1.4679  1.2419 -2.1901
   73MOL   H24736391   4.249   4.032   7.166  0.7283  2.1150  0.3073
   73MOL   H24836392   4.169   4.015   7.027  1.1667  2.2381  0.1028
   73MOL   H24936393   4.264   3.802   7.111  0.9924 -0.0811  0.6379
   73MOL   H25036394   4.320   3.835   6.948  0.9263 -1.2588 -0.4320
   73MOL   H25136395   4.429   3.859   7.089  0.5953  0.9516 -0.9891
   73MOL   C25236396   3.952   4.553   6.880 -0.4985 -0.0546 -0.3077
   73MOL   C25336397   3.890   4.680   6.817  0.2490 -0.0213  0.3995
   73MOL   O25436398   3.838   4.636   6.700 -0.3122  0.2295  0.2542
   73MOL   C25536399   3.697   4.620   6.693  0.4865  0.4434  0.8064
   73MOL   C25636400   3.661   4.546   6.567 -0.2040  0.3204  0.2380
   73MOL   C25736401   3.726   4.408   6.549 -0.8617  0.1602 -0.1013
   73MOL   C25836402   3.679   4.333   6.424  0.3188  0.2547 -0.5606
   73MOL   C25936403   3.751   4.195   6.405  0.1889  0.1520 -0.5611
   73MOL   C26036404   3.678   4.096   6.314  0.7255  0.2822 -0.1085
   73MOL   H26136405   4.048   4.526   6.835 -0.6355 -1.0168 -0.0523
   73MOL   H26236406   3.890   4.463   6.878  0.3202 -0.6403  0.3019
   73MOL   H26336407   3.816   4.713   6.889 -1.3359 -0.6729 -0.9030
   73MOL   H26436408   3.635   4.710   6.701  0.3937  0.4840 -0.3481
   73MOL   H26536409   3.662   4.566   6.781 -1.6520 -0.0529 -0.3058
   73MOL   H26636410   3.703   4.610   6.490  0.1338  0.8670  0.8720
   73MOL   H26736411   3.553   4.532   6.560 -0.1529  0.6156 -1.2498
   73MOL   H26836412   3.834   4.422   6.553 -0.8295  0.1453 -0.7994
   73MOL   H26936413   3.717   4.356   6.644 -2.2217 -0.3536 -0.4920
   73MOL   H27036414   3.572   4.319   6.438  0.7588 -1.1292  1.7436
   73MOL   H27136415   3.687   4.397   6.336 -0.9900 -0.0384 -0.8939
   73MOL   H27236416   3.853   4.201   6.367 -0.3078  0.5621 -1.8607
   73MOL   H27336417   3.763   4.138   6.498  0.8706  0.6831 -0.3222
   73MOL   H27436418   3.741   4.007   6.309 -0.6832 -0.7936  1.0191
   73MOL   H27536419   3.580   4.067   6.353  0.5437  0.4278 -0.4492
   73MOL   H27636420   3.666   4.134   6.212  2.4356  3.3256  0.7414
   73MOL   C27736421   3.995   4.788   6.780 -0.5676 -0.0851  0.3774
   73MOL   C27836422   3.968   4.930   6.787  0.6039 -0.3111  0.2660
   73MOL   O27936423   4.081   4.997   6.740 -0.9084 -0.0464 -0.3214
   73MOL   C28036424   4.154   5.050   6.850 -0.7778 -0.3163 -0.2311
   73MOL   C28136425   4.277   5.115   6.797  0.7650 -0.5152  0.2714
   73MOL   C28236426   4.243   5.220   6.691 -0.9193 -0.4931  0.1410
   73MOL   C28336427   4.362   5.294   6.641 -0.1966  0.7499  0.4041
   73MOL   C28436428   4.327   5.401   6.535 -0.1819 -0.2917 -0.0182
   73MOL   C28536429   4.448   5.416   6.441  0.9486 -0.4332  0.2403
   73MOL   H28636430   4.080   4.786   6.849 -0.4044  1.0965  0.2187
   73MOL   H28736431   4.041   4.759   6.685  0.2203  1.0173  0.4104
   73MOL   H28836432   3.935   4.945   6.890  2.2844 -0.9717  0.9036
   73MOL   H28936433   4.187   4.981   6.928 -0.2231  1.2660  0.9582
   73MOL   H29036434   4.107   5.134   6.900  2.9241  0.3970  2.2212
   73MOL   H29136435   4.345   5.043   6.752  0.0746 -2.5033  2.2796
   73MOL   H29236436   4.334   5.154   6.882  1.8504  0.2893 -0.8163
   73MOL   H29336437   4.188   5.177   6.607  0.0747  1.2340 -1.4443
   73MOL   H29436438   4.174   5.297   6.725 -0.5968 -0.5897  1.0269
   73MOL   H29536439   4.425   5.338   6.719 -0.6649 -1.5696  2.1402
   73MOL   H29636440   4.415   5.210   6.595 -2.1675  0.0724 -0.6744
   73MOL   H29736441   4.232   5.380   6.485 -0.0473 -0.4440 -0.2141
   73MOL   H29836442   4.310   5.492   6.590  3.1232  1.3062 -1.4596
   73MOL   H29936443   4.524   5.474   6.494 -2.1130  0.9752  3.2677
   73MOL   H30036444   4.509   5.330   6.411  1.2007  0.0480 -0.6419
   73MOL   H30136445   4.413   5.464   6.350 -2.2192 -1.6918  0.7519
   73MOL   C30236446   3.864   4.991   6.682  0.1260  0.3364  0.2083
   73MOL   C30336447   3.827   5.139   6.709 -0.2154 -0.4300  0.4313
   73MOL   O30436448   3.754   5.140   6.830 -0.1994 -0.3670  0.3372
   73MOL   C30536449   3.777   5.260   6.909  0.2060  0.8145  0.2135
   73MOL   C30636450   3.663   5.278   7.004  0.7983 -0.0536 -0.4629
   73MOL   C30736451   3.649   5.168   7.108 -0.0225  0.3120  1.3339
   73MOL   C30836452   3.545   5.205   7.217 -0.6523 -0.6516 -0.1298
   73MOL   C30936453   3.514   5.091   7.310  0.0128  0.2273 -0.4463
   73MOL   C31036454   3.427   5.151   7.425  0.3922 -0.0079 -0.1187
   73MOL   H31136455   3.904   4.982   6.581  0.7718  0.0470  0.4879
   73MOL   H31236456   3.768   4.941   6.688  1.7181 -2.8955 -0.1233
   73MOL   H31336457   3.917   5.197   6.725  0.1762 -0.6888 -0.7768
   73MOL   H31436458   3.794   5.352   6.852 -2.2472 -0.5443 -2.8656
   73MOL   H31536459   3.869   5.238   6.963  0.1788  0.7113  0.2178
   73MOL   H31636460   3.572   5.288   6.945  1.2135  1.0675 -0.9256
   73MOL   H31736461   3.666   5.365   7.070 -4.1593 -1.1319  1.4296
   73MOL   H31836462   3.610   5.084   7.050  0.0988  1.3436 -0.2920
   73MOL   H31936463   3.742   5.144   7.158 -0.5052 -4.0739  0.3229
   73MOL   H32036464   3.594   5.286   7.270  0.1534 -0.7382 -0.7400
   73MOL   H32136465   3.456   5.237   7.163 -0.8015  1.2488  1.1946
   73MOL   H32236466   3.474   5.005   7.256  0.0824 -0.4314  0.5217
   73MOL   H32336467   3.605   5.050   7.356  0.9820  2.5739 -0.2202
   73MOL   H32436468   3.465   5.248   7.457 -2.1649  0.7676  0.7580
   73MOL   H32536469   3.322   5.164   7.399  0.3803 -1.4279 -0.7919
   73MOL   H32636470   3.449   5.093   7.515  4.6320  1.7652  0.0915
   73MOL   C32736471   3.740   5.197   6.596  0.1109 -0.0438  0.4063
   73MOL   C32836472   3.798   5.217   6.451 -0.6529  0.4138  0.0798
   73MOL   O32936473   3.839   5.091   6.387 -0.3399  0.4530 -0.4266
   73MOL   C33036474   3.956   5.085   6.301  0.6224 -0.5109 -0.2042
   73MOL   C33136475   3.943   4.972   6.202  0.5883  0.1557 -0.0409
   73MOL   C33236476   3.969   4.841   6.273  0.0427 -0.6873 -0.0257
   73MOL   C33336477   3.957   4.717   6.188 -0.3363 -0.0360  0.3839
   73MOL   C33436478   3.939   4.585   6.271 -0.2547 -0.2248  0.8711
   73MOL   C33536479   3.929   4.457   6.192  0.0696  0.6421 -0.4191
   73MOL   H33636480   3.709   5.297   6.628  0.9521 -0.0915  1.4188
   73MOL   H33736481   3.645   5.146   6.588 -0.3309  0.7045  0.8550
   73MOL   H33836482   3.894   5.266   6.464 -0.9542  1.0594 -0.1233
   73MOL   H33936483   4.036   5.067   6.372  0.1673 -0.0236  0.4460
   73MOL   H34036484   3.951   5.184   6.256 -2.5012  0.7285  2.6098
   73MOL   H34136485   4.008   4.992   6.116  0.5682  3.7045  0.6840
   73MOL   H34236486   3.843   4.974   6.161  0.2911  0.5483  0.6983
   73MOL   H34336487   4.058   4.840   6.336 -1.1410  0.2710  1.7031
   73MOL   H34436488   3.899   4.833   6.356  1.7736  0.8015  1.6208
   73MOL   H34536489   3.869   4.733   6.126 -0.8139  0.3573  1.1477
   73MOL   H34636490   4.035   4.696   6.115 -1.2636 -2.6411  0.0705
   73MOL   H34736491   4.021   4.565   6.341  0.2299  0.3613  0.4831
   73MOL   H34836492   3.850   4.589   6.333  0.6037  0.7282  2.0877
   73MOL   H34936493   3.935   4.372   6.259  1.5201  2.3559  1.6727
   73MOL   H35036494   3.840   4.462   6.129 -1.9296  1.7978  2.3993
   73MOL   H35136495   4.019   4.444   6.131 -0.3086  0.5326 -0.9602
   73MOL   C35236496   3.699   5.300   6.358  0.9184 -0.2756 -0.0276
   73MOL   C35336497   3.768   5.413   6.290 -0.8504 -0.1442 -0.2951
   73MOL   O35436498   3.829   5.500   6.384 -0.3324 -0.0389 -0.2921
   73MOL   C35536499   3.962   5.534   6.372  0.0835  0.2048 -0.7286
   73MOL   C35636500   3.988   5.628   6.490 -0.2410  0.1541 -0.1896
   73MOL   C35736501   3.986   5.558   6.628  0.4167  0.3213  0.3711
   73MOL   C35836502   3.996   5.657   6.744 -0.0378  0.1115 -0.5857
   73MOL   C35936503   3.961   5.602   6.887 -0.2920 -0.0598 -0.5562
   73MOL   C36036504   4.049   5.478   6.926  0.3312 -0.5567  0.5695
   73MOL   H36136505   3.638   5.236   6.294  0.8500  2.7754 -3.1826
   73MOL   H36236506   3.616   5.344   6.414  0.5860  0.4581 -1.0726
   73MOL   H36336507   3.852   5.375   6.233 -0.4729  1.5191 -0.8778
   73MOL   H36436508   3.986   5.597   6.286 -2.1778 -0.2734 -1.7395
   73MOL   H36536509   4.032   5.450   6.371  0.7822  0.7662  0.5389
   73MOL   H36636510   3.914   5.708   6.495  0.2093  0.5119  1.1479
   73MOL   H36736511   4.081   5.684   6.486 -0.7623  1.3546  2.7550
   73MOL   H36836512   3.892   5.503   6.630  0.0121  0.9851 -0.1329
   73MOL   H36936513   4.062   5.480   6.633  0.5865  0.2094 -2.9744
   73MOL   H37036514   4.093   5.707   6.750  0.2121 -0.5440  1.0866
   73MOL   H37136515   3.920   5.732   6.724 -2.1089 -1.8496 -0.1894
   73MOL   H37236516   3.975   5.672   6.968 -1.5207  0.8579 -1.1205
   73MOL   H37336517   3.856   5.570   6.882 -0.6717  1.3035 -1.5117
   73MOL   H37436518   4.156   5.499   6.927  0.4526 -1.1946  1.3838
   73MOL   H37536519   4.023   5.439   7.024 -3.3207 -1.9091 -0.8301
   73MOL   H37636520   4.012   5.399   6.860 -0.1138  0.6460 -0.6495
   73MOL   C37736521   3.675   5.497   6.199 -0.3827  0.6614  0.2725
   73MOL   C37836522   3.635   5.432   6.067  0.7540  0.0135 -0.2582
   73MOL   O37936523   3.754   5.432   5.985  0.0417  0.2672  0.3646
   73MOL   C38036524   3.739   5.358   5.864 -0.2715  0.2290  0.3879
   73MOL   C38136525   3.731   5.454   5.741 -0.4872 -0.0674  0.1804
   73MOL   C38236526   3.865   5.534   5.727  0.4424  0.1049 -0.2765
   73MOL   C38336527   3.878   5.619   5.600  0.7190 -0.0288 -0.2478
   73MOL   C38436528   3.988   5.722   5.601  0.3370 -0.6480 -0.0737
   73MOL   C38536529   4.127   5.665   5.603  0.2655  0.1109 -0.1643
   73MOL   H38636530   3.584   5.510   6.259 -0.1657  1.2617  0.4742
   73MOL   H38736531   3.723   5.593   6.180  0.8822 -0.0917 -0.3561
   73MOL   H38836532   3.598   5.331   6.085  0.0646 -0.3734 -3.5448
   73MOL   H38936533   3.666   5.280   5.882 -0.2046  0.5418  2.1369
   73MOL   H39036534   3.832   5.304   5.850 -0.8663 -0.9952  1.0821
   73MOL   H39136535   3.646   5.521   5.740 -1.1075 -0.8482 -0.9431
   73MOL   H39236536   3.718   5.388   5.655 -1.0165 -0.0074  0.2126
   73MOL   H39336537   3.883   5.597   5.814  2.0013 -1.0563  0.2667
   73MOL   H39436538   3.940   5.455   5.725  1.5146  1.1446 -1.3013
   73MOL   H39536539   3.887   5.546   5.519  0.0603  0.1017 -0.4446
   73MOL   H39636540   3.784   5.663   5.566  0.5911 -0.4094 -0.3972
   73MOL   H39736541   3.982   5.797   5.522 -0.5636 -1.8985 -1.2150
   73MOL   H39836542   3.971   5.792   5.683  2.7308  2.6888 -2.3010
   73MOL   H39936543   4.197   5.748   5.612  0.3492  0.1321 -0.9507
   73MOL   H40036544   4.145   5.609   5.695 -0.4729  1.2958  0.7153
   73MOL   H40136545   4.146   5.608   5.512 -0.8602 -1.0062  0.2769
   73MOL   C40236546   3.518   5.510   5.998  0.8151 -0.1916  0.7627
   73MOL   C40336547   3.398   5.544   6.086  0.1277 -0.1504 -0.1196
   73MOL   O40436548   3.345   5.420   6.130  0.7302 -0.2552  0.6984
   73MOL   C40536549   3.262   5.415   6.248  0.5864  0.1887  0.1901
   73MOL   C40636550   3.192   5.279   6.271  0.5254 -0.3272  0.9243
   73MOL   C40736551   3.123   5.226   6.144  0.1810  0.5569 -0.7401
   73MOL   C40836552   3.041   5.099   6.182 -0.6895  0.1613 -0.5951
   73MOL   C40936553   3.005   5.029   6.052  0.2588  0.4180  0.4953
   73MOL   C41036554   2.933   4.902   6.076 -0.3319 -0.1721  0.8456
   73MOL   H41136555   3.482   5.456   5.911 -1.1111  1.2771  0.5920
   73MOL   H41236556   3.564   5.604   5.968 -0.1583 -1.0736 -3.8170
   73MOL   H41336557   3.422   5.598   6.177 -1.5742 -3.3970  2.3566
   73MOL   H41436558   3.190   5.495   6.233  0.9975  0.7791  1.3026
   73MOL   H41536559   3.319   5.430   6.340  1.7602  1.3568 -0.7108
   73MOL   H41636560   3.117   5.286   6.349 -0.6507 -1.6896 -0.0722
   73MOL   H41736561   3.269   5.208   6.301  1.4909  0.7820  1.1180
   73MOL   H41836562   3.068   5.306   6.096 -0.7754  1.9439  2.5544
   73MOL   H41936563   3.199   5.204   6.069 -0.3424  2.2404 -1.7864
   73MOL   H42036564   3.092   5.034   6.253 -0.7477 -0.4494 -1.1048
   73MOL   H42136565   2.954   5.134   6.239  0.7444 -0.5329  2.0981
   73MOL   H42236566   2.936   5.103   6.011  2.5330  1.5298 -1.4707
   73MOL   H42336567   3.086   5.000   5.984 -2.1954  0.0545 -2.4132
   73MOL   H42436568   2.826   4.916   6.094 -0.3880  0.6296 -0.0591
   73MOL   H42536569   2.943   4.833   5.992 -3.5317 -1.7270  1.6584
   73MOL   H42636570   2.977   4.854   6.163  0.8125 -0.2126  0.2575
   73MOL   C42736571   3.292   5.634   6.014 -0.1274 -0.0245 -0.3485
   73MOL   C42836572   3.330   5.773   5.963 -0.6384 -0.3152  0.1772
   73MOL   O42936573   3.228   5.830   5.892 -0.2308 -0.7570 -0.3217
   73MOL   C43036574   3.264   5.933   5.799 -0.0248 -0.0544  0.5036
   73MOL   C43136575   3.136   5.965   5.717  0.0270  0.2073  0.3082
   73MOL   C43236576   3.010   6.038   5.784 -0.4422  0.1785  0.0691
   73MOL   C43336577   2.896   6.033   5.681  0.2612 -0.4142 -0.6309
   73MOL   C43436578   2.784   6.135   5.706 -0.5688  0.2177  0.2090
   73MOL   C43536579   2.669   6.112   5.604  0.1665 -0.3606 -0.4040
   73MOL   H43636580   3.258   5.563   5.938  0.5870  0.5963 -1.2559
   73MOL   H43736581   3.217   5.651   6.092  0.2579  1.2785 -0.2615
   73MOL   H43836582   3.407   5.750   5.889  0.5103 -2.0424  1.8523
   73MOL   H43936583   3.324   5.894   5.717 -0.4112 -0.5042  0.4358
   73MOL   H44036584   3.302   6.024   5.846  2.2694 -0.5113 -0.3785
   73MOL   H44136585   3.101   5.876   5.665  0.6604 -0.1428  0.4703
   73MOL   H44236586   3.176   6.033   5.642 -1.6712  0.3159 -0.5026
   73MOL   H44336587   2.990   5.979   5.874 -0.3811  0.1445  0.0593
   73MOL   H44436588   3.035   6.134   5.827  0.1175 -0.3781  1.0057
   73MOL   H44536589   2.936   6.055   5.582  1.6932  0.2449  0.0863
   73MOL   H44636590   2.855   5.933   5.670  0.1165 -0.3041 -1.1162
   73MOL   H44736591   2.737   6.107   5.800  1.0778  2.3033  1.7160
   73MOL   H44836592   2.833   6.233   5.703 -2.6299  1.2787  0.6444
   73MOL   H44936593   2.689   6.169   5.514  0.8558  1.3092  0.7695
   73MOL   H45036594   2.653   6.005   5.595 -0.5584 -0.5517  2.6181
   73MOL   H45136595   2.575   6.158   5.634  0.2341 -0.4059 -0.1107
   73MOL   C45236596   3.386   5.872   6.062 -0.3027  0.1875  1.5331
   73MOL   C45336597   3.299   5.905   6.184 -0.1073  0.3813  0.1787
   73MOL   O45436598   3.203   5.998   6.139 -0.5935 -0.0736 -0.6771
   73MOL   C45536599   3.095   6.022   6.228  0.0749  0.0761 -0.6234
   73MOL   C45636600   2.972   6.080   6.160 -0.2007  0.0366 -0.2826
   73MOL   C45736601   3.009   6.221   6.111  0.4851 -0.0971 -0.0795
   73MOL   C45836602   2.888   6.293   6.052  0.5170  0.0177  0.1852
   73MOL   C45936603   2.923   6.429   5.981 -0.0078  0.8897  0.3369
   73MOL   C46036604   2.809   6.501   5.907 -0.1734  0.4190 -0.5602
   73MOL   H46136605   3.471   5.815   6.098 -1.8077 -2.3840  1.1633
   73MOL   H46236606   3.422   5.963   6.014 -0.2611 -0.4812  0.3007
   73MOL   H46336607   3.243   5.825   6.232 -1.6488  1.8385  0.8447
   73MOL   H46436608   3.126   6.084   6.312 -1.8241 -0.2897  0.3915
   73MOL   H46536609   3.066   5.927   6.275  0.8000  0.4166  0.5413
   73MOL   H46636610   2.889   6.088   6.230  1.7630  1.1662  2.0056
   73MOL   H46736611   2.947   6.012   6.079 -1.8306 -0.9496  1.0065
   73MOL   H46836612   3.055   6.285   6.186 -3.5396  2.7436  0.0987
   73MOL   H46936613   3.086   6.213   6.034  1.4464  2.1873  0.6043
   73MOL   H47036614   2.830   6.232   5.983 -0.3978 -0.0903  1.0393
   73MOL   H47136615   2.823   6.312   6.137  2.0487  2.7411  0.8239
   73MOL   H47236616   2.980   6.499   6.041  0.1213  2.8143 -1.9625
   73MOL   H47336617   3.006   6.401   5.915  0.3649  2.6255  0.0472
   73MOL   H47436618   2.766   6.447   5.822 -1.1009  1.1302 -0.5517
   73MOL   H47536619   2.723   6.536   5.963  0.8525 -2.0647  2.7666
   73MOL   H47636620   2.846   6.592   5.861 -0.5119 -0.2152 -2.1223
   73MOL   C47736621   3.369   5.971   6.306  0.2508 -0.6537 -0.1001
   73MOL   C47836622   3.487   5.887   6.354  0.1769 -0.2179  0.2670
   73MOL   O47936623   3.538   5.957   6.464 -0.2623 -0.3699  0.7692
   73MOL   C48036624   3.648   5.885   6.523 -0.1839  0.5771  0.3888
   73MOL   C48136625   3.708   5.963   6.635 -0.2484 -0.9937  0.2459
   73MOL   C48236626   3.758   6.101   6.579 -0.0552  0.2140 -0.5380
   73MOL   C48336627   3.847   6.182   6.666 -0.8587  0.3297 -0.1929
   73MOL   C48436628   3.907   6.308   6.596 -0.0132 -0.5755 -0.2071
   73MOL   C48536629   3.984   6.401   6.693 -0.1147  0.0241  0.0211
   73MOL   H48636630   3.408   6.062   6.262 -1.2819 -0.4023 -0.9771
   73MOL   H48736631   3.311   5.999   6.393 -0.6032  0.0831 -0.8884
   73MOL   H48836632   3.462   5.785   6.382  0.5737 -0.3130  0.2787
   73MOL   H48936633   3.733   5.866   6.457 -0.8471  0.7195 -0.5246
   73MOL   H49036634   3.625   5.785   6.558  0.3632  0.2324 -0.2267
   73MOL   H49136635   3.784   5.902   6.684  1.5908  1.0921  0.0780
   73MOL   H49236636   3.631   5.983   6.709 -0.0448  3.8092 -0.7013
   73MOL   H49336637   3.805   6.076   6.484 -1.9221 -0.8614 -1.1971
   73MOL   H49436638   3.676   6.162   6.540  0.3960  0.8073 -0.5764
   73MOL   H49536639   3.806   6.209   6.764 -1.8929 -1.2469 -0.1709
   73MOL   H49636640   3.935   6.122   6.692 -0.4990  0.5960 -0.7908
   73MOL   H49736641   3.979   6.274   6.522  1.3775  0.4608  0.6567
   73MOL   H49836642   3.824   6.360   6.548 -1.9705 -1.6490  1.8690
   73MOL   H49936643   4.056   6.350   6.757  0.2155  0.9782  0.4335
   73MOL   H50036644   4.025   6.472   6.622  0.9467 -1.4207 -0.8107
   73MOL   H50136645   3.918   6.451   6.765 -0.3319  0.9504 -0.8108
   73MOL   H50236646   3.568   5.888   6.281 -0.2586 -0.0886 -0.2244
   74MOL     C136647   1.933   2.108   7.310 -0.2330 -0.3600 -0.3817
   74MOL     C236648   1.962   2.110   7.163 -0.6771 -0.4069 -0.0339
   74MOL     O336649   1.990   1.973   7.135  0.2552 -0.3511 -0.0293
   74MOL     C436650   1.885   1.896   7.093  0.3607  0.2926  0.8507
   74MOL     C536651   1.943   1.754   7.080 -0.3003 -0.2543  0.2037
   74MOL     C636652   2.066   1.737   6.996 -0.0880  0.0030  0.1556
   74MOL     C736653   2.116   1.598   6.970 -0.8632  0.3932 -0.8785
   74MOL     C836654   2.267   1.599   6.943 -0.3513  0.0121 -0.2949
   74MOL     C936655   2.289   1.665   6.808 -0.5184  0.6225  0.8143
   74MOL    H1036656   1.908   2.210   7.340 -0.8999  0.1870 -2.6501
   74MOL    H1136657   1.847   2.045   7.331 -0.3017 -0.6471 -1.4817
   74MOL    H1236658   1.881   2.151   7.103 -3.2075 -1.4296  2.5960
   74MOL    H1336659   1.841   1.925   6.998  0.2359  2.0726  1.4325
   74MOL    H1436660   1.802   1.885   7.163  0.4929 -0.6811  0.8698
   74MOL    H1536661   1.870   1.685   7.038  0.0748 -1.2494  1.1460
   74MOL    H1636662   1.964   1.716   7.180 -2.2603  1.8081  1.4467
   74MOL    H1736663   2.051   1.789   6.902 -0.8756  1.8677  1.2933
   74MOL    H1836664   2.147   1.794   7.041 -1.3172  0.4434  1.8898
   74MOL    H1936665   2.111   1.527   7.052 -0.1894 -0.9722 -1.9994
   74MOL    H2036666   2.062   1.550   6.888  0.2109 -0.2680 -1.2051
   74MOL    H2136667   2.295   1.495   6.927 -2.1203 -1.0765  3.1442
   74MOL    H2236668   2.331   1.647   7.017  0.0247 -0.2107 -0.4734
   74MOL    H2336669   2.236   1.609   6.731  1.4793  0.8997 -0.7883
   74MOL    H2436670   2.257   1.769   6.811  0.7377  0.9864  3.5408
   74MOL    H2536671   2.393   1.660   6.777 -1.5711 -0.1037 -2.8794
   74MOL    H2636672   2.017   2.062   7.362  0.2444 -0.2242 -1.0269
   74MOL    C2736673   2.079   2.202   7.137  0.4072 -0.4601 -0.0454
   74MOL    C2836674   2.096   2.249   6.983  0.0387 -0.0992  0.3742
   74MOL    O2936675   2.179   2.365   6.981 -0.2908 -0.1992  0.1217
   74MOL    C3036676   2.152   2.452   6.874  0.2659 -0.0706 -0.3745
   74MOL    C3136677   2.032   2.551   6.903  0.3965 -0.4714  0.2954
   74MOL    C3236678   1.986   2.628   6.777 -0.2435 -0.9923  0.6764
   74MOL    C3336679   1.921   2.761   6.814  0.3142  0.3064  0.6388
   74MOL    C3436680   1.772   2.733   6.826  1.0812  0.3520 -0.9853
   74MOL    C3536681   1.695   2.844   6.903  0.1070  0.2504 -0.1244
   74MOL    H3636682   2.069   2.298   7.187 -0.4160 -1.3547  1.5572
   74MOL    H3736683   2.169   2.152   7.172  0.1740  0.9723  2.6663
   74MOL    H3836684   1.997   2.288   6.958 -0.0315  0.9861  2.2616
   74MOL    H3936685   2.121   2.398   6.785  0.6699 -1.9419  0.6077
   74MOL    H4036686   2.239   2.509   6.840 -0.7497  1.2783 -0.7886
   74MOL    H4136687   2.065   2.615   6.985 -2.5042  3.0440 -1.1664
   74MOL    H4236688   1.946   2.491   6.932  1.7070 -2.2890  0.5157
   74MOL    H4336689   2.067   2.650   6.708 -1.8179 -1.4886 -1.3623
   74MOL    H4436690   1.921   2.567   6.715 -2.1906  3.0288 -1.4508
   74MOL    H4536691   1.973   2.802   6.900  3.7440  0.2655 -1.2967
   74MOL    H4636692   1.948   2.842   6.746 -0.1104 -1.8955 -2.2912
   74MOL    H4736693   1.729   2.720   6.726 -5.2762 -0.5814  1.6348
   74MOL    H4836694   1.760   2.640   6.880 -0.5479  0.7640 -0.5902
   74MOL    H4936695   1.732   2.872   7.002 -1.5553  2.8517 -0.1833
   74MOL    H5036696   1.693   2.934   6.842  2.9702  0.8883  0.6645
   74MOL    H5136697   1.589   2.817   6.913  0.2067  0.6350  2.3570
   74MOL    C5236698   2.151   2.132   6.888  0.3585  0.0555  0.2104
   74MOL    C5336699   2.111   2.124   6.739 -0.0478  0.4516  0.0897
   74MOL    O5436700   2.198   2.026   6.681 -0.1906 -1.0262 -0.0490
   74MOL    C5536701   2.294   2.082   6.594 -0.2071 -0.3482  0.9263
   74MOL    C5636702   2.400   1.989   6.544  0.5760  0.0266 -0.3628
   74MOL    C5736703   2.515   1.964   6.643  0.0119  0.3164  0.1111
   74MOL    C5836704   2.635   1.877   6.584 -0.2970  0.4891  0.4763
   74MOL    C5936705   2.760   1.889   6.668 -0.0506 -0.6240 -0.5784
   74MOL    C6036706   2.891   1.825   6.618 -0.1298  0.2311  0.5836
   74MOL    H6136707   2.135   2.037   6.939 -1.4620  1.5595  2.5535
   74MOL    H6236708   2.260   2.138   6.885  0.4293 -0.9883  0.5591
   74MOL    H6336709   2.116   2.220   6.688 -1.0224 -0.6157 -2.0973
   74MOL    H6436710   2.339   2.168   6.644 -2.0800  1.7432 -0.9102
   74MOL    H6536711   2.251   2.139   6.513  1.3605 -1.0627 -0.4446
   74MOL    H6636712   2.442   2.027   6.451 -2.4070  2.8533 -0.6509
   74MOL    H6736713   2.349   1.898   6.513  1.2116 -1.0924  1.7743
   74MOL    H6836714   2.539   2.063   6.681 -0.8245 -0.6800  3.4398
   74MOL    H6936715   2.469   1.909   6.726  0.2152  0.0633  0.0559
   74MOL    H7036716   2.614   1.770   6.580 -0.5561  0.6240 -2.8519
   74MOL    H7136717   2.661   1.901   6.481  4.3705  0.5197  1.5312
   74MOL    H7236718   2.777   1.993   6.697 -0.8877 -0.7192  0.2846
   74MOL    H7336719   2.739   1.846   6.766 -0.2959 -0.8501 -0.7279
   74MOL    H7436720   2.924   1.852   6.517 -0.9823 -2.7598 -0.5408
   74MOL    H7536721   2.975   1.847   6.684  0.5000  1.1888 -0.5135
   74MOL    H7636722   2.888   1.717   6.628  0.0621  0.3184  1.5751
   74MOL    C7736723   1.969   2.064   6.724  0.0393  0.1117  0.1847
   74MOL    C7836724   1.894   2.124   6.605  0.0908  0.3143 -0.5368
   74MOL    O7936725   1.861   2.256   6.653 -0.1307  0.4721  0.3318
   74MOL    C8036726   1.830   2.343   6.546  0.1339 -0.8442 -0.4007
   74MOL    C8136727   1.705   2.419   6.577 -0.1923 -0.0347 -0.0808
   74MOL    C8236728   1.642   2.513   6.472  0.1264 -0.0394 -0.0383
   74MOL    C8336729   1.499   2.556   6.517  0.2916  0.2453 -0.3547
   74MOL    C8436730   1.435   2.658   6.432  0.1724  0.1457 -0.0447
   74MOL    C8536731   1.300   2.702   6.488  0.8079 -0.0073  0.0915
   74MOL    H8636732   1.920   2.090   6.817 -0.6920  0.6324 -0.3389
   74MOL    H8736733   1.977   1.955   6.720 -1.6268  0.0263 -1.4872
   74MOL    H8836734   1.963   2.137   6.521 -1.4726  1.0641 -1.7523
   74MOL    H8936735   1.829   2.298   6.446  1.0977  0.4624 -1.0108
   74MOL    H9036736   1.914   2.411   6.530 -1.5476  2.2747  3.3344
   74MOL    H9136737   1.720   2.479   6.667 -1.2161  0.7594 -0.4164
   74MOL    H9236738   1.633   2.349   6.621  0.5868 -0.7706  0.0354
   74MOL    H9336739   1.710   2.596   6.455  1.2494 -1.3313 -2.0645
   74MOL    H9436740   1.645   2.467   6.373 -0.9394 -1.0390  0.3730
   74MOL    H9536741   1.431   2.471   6.524  2.6472 -1.7067 -0.4542
   74MOL    H9636742   1.517   2.595   6.617  2.2401  0.2749 -0.6923
   74MOL    H9736743   1.514   2.733   6.438 -0.7224  1.0448  0.8331
   74MOL    H9836744   1.423   2.618   6.332  1.8702  0.1898 -0.2718
   74MOL    H9936745   1.307   2.764   6.577 -0.2233  2.5051 -1.5038
   74MOL   H10036746   1.247   2.765   6.416 -1.1683 -2.7438 -0.9538
   74MOL   H10136747   1.234   2.620   6.517 -0.5139 -0.1051 -2.9451
   74MOL   C10236748   1.765   2.050   6.573  0.7641  0.4282 -0.1643
   74MOL   C10336749   1.778   1.917   6.503 -0.5044  0.0826 -0.1632
   74MOL   O10436750   1.685   1.827   6.567 -0.0183 -0.6244  0.3785
   74MOL   C10536751   1.734   1.761   6.680 -0.5918  0.1267 -0.1560
   74MOL   C10636752   1.623   1.703   6.762 -0.3570 -0.0240 -0.5182
   74MOL   C10736753   1.519   1.809   6.789  0.5434 -0.2807 -0.0974
   74MOL   C10836754   1.412   1.760   6.886  0.8194 -0.1069 -0.5726
   74MOL   C10936755   1.329   1.856   6.979  0.9171 -0.1141 -0.2207
   74MOL   C11036756   1.279   1.784   7.110  0.4636  0.3065  0.4186
   74MOL   H11136757   1.714   2.031   6.667  1.0918 -0.7372 -0.2052
   74MOL   H11236758   1.680   2.104   6.531 -0.7697 -0.7598  1.3201
   74MOL   H11336759   1.880   1.883   6.521 -0.5851 -1.0931 -1.8435
   74MOL   H11436760   1.800   1.829   6.734 -0.4218  0.2919 -0.5670
   74MOL   H11536761   1.802   1.678   6.656 -0.9335  0.2873 -1.7073
   74MOL   H11636762   1.668   1.674   6.858 -1.8716  2.1788  0.9108
   74MOL   H11736763   1.585   1.609   6.722  0.6664 -0.6131 -0.1341
   74MOL   H11836764   1.575   1.896   6.825  1.0129 -0.0237 -1.4272
   74MOL   H11936765   1.469   1.852   6.702  2.3343  0.9011 -0.5613
   74MOL   H12036766   1.332   1.711   6.830  1.8929 -1.0435 -1.2876
   74MOL   H12136767   1.450   1.681   6.949 -0.5087 -0.4961 -0.2325
   74MOL   H12236768   1.390   1.943   7.006  1.7573 -0.3252 -1.4070
   74MOL   H12336769   1.241   1.891   6.925  0.0132 -0.6166  0.9097
   74MOL   H12436770   1.231   1.849   7.184  2.4339 -0.2551  2.2651
   74MOL   H12536771   1.209   1.702   7.096  1.1118  0.0461 -1.3584
   74MOL   H12636772   1.363   1.746   7.170 -1.2369 -1.3856  1.7925
   74MOL   C12736773   1.752   1.922   6.353  0.8015 -0.5619 -0.4783
   74MOL   C12836774   1.870   1.957   6.271  0.0008 -0.4657  0.6109
   74MOL   O12936775   1.894   2.102   6.268  0.1766 -0.2098  0.0308
   74MOL   C13036776   2.014   2.138   6.204 -0.0410  0.1046  0.2602
   74MOL   C13136777   2.065   2.281   6.240 -0.1894  0.4125 -0.5041
   74MOL   C13236778   2.011   2.390   6.149 -0.4387 -0.1839 -0.9521
   74MOL   C13336779   2.075   2.526   6.196 -0.0557  0.3974  0.2465
   74MOL   C13436780   1.993   2.642   6.140 -0.2730  0.0924  0.3076
   74MOL   C13536781   2.021   2.776   6.217  0.0647 -0.8172  0.6910
   74MOL   H13636782   1.733   1.817   6.329  1.8333 -0.9995  0.5675
   74MOL   H13736783   1.657   1.971   6.330  0.2712 -0.6755  1.3382
   74MOL   H13836784   1.966   1.916   6.302  1.3285  1.9156 -0.1933
   74MOL   H13936785   2.000   2.132   6.096 -0.2871 -1.7604  0.3852
   74MOL   H14036786   2.087   2.058   6.208 -0.3079 -0.2487 -1.7411
   74MOL   H14136787   2.173   2.296   6.239 -0.2811  1.3842  1.9545
   74MOL   H14236788   2.032   2.312   6.339  0.8201 -0.6318  0.1755
   74MOL   H14336789   2.027   2.357   6.047  1.6299 -1.8486 -0.1250
   74MOL   H14436790   1.904   2.385   6.166 -0.5371 -0.4278 -1.6557
   74MOL   H14536791   2.064   2.528   6.304 -1.9772  0.6127  0.0665
   74MOL   H14636792   2.181   2.534   6.176 -0.2652  0.7790 -0.7581
   74MOL   H14736793   2.020   2.652   6.035 -1.5475 -0.3571 -0.0655
   74MOL   H14836794   1.886   2.627   6.136 -0.2626 -1.1281  3.4338
   74MOL   H14936795   1.943   2.848   6.190  2.4499  1.7148  0.2842
   74MOL   H15036796   2.023   2.755   6.324  1.0226 -0.5545  0.7301
   74MOL   H15136797   2.117   2.820   6.189 -0.2914 -0.8354 -0.5598
   74MOL   C15236798   1.841   1.909   6.129 -0.2409 -0.4651  0.3947
   74MOL   C15336799   1.707   1.938   6.050  0.0195  0.0887 -0.5434
   74MOL   O15436800   1.705   2.073   6.019  0.6365 -0.3058 -0.0537
   74MOL   C15536801   1.598   2.142   6.078 -0.6409  0.4336 -0.0486
   74MOL   C15636802   1.622   2.287   6.037  0.1846  1.2004  0.7147
   74MOL   C15736803   1.506   2.384   6.071  0.3482  0.1296  0.2879
   74MOL   C15836804   1.539   2.527   6.035 -0.1723 -0.0237  0.3087
   74MOL   C15936805   1.416   2.623   6.030 -0.2416  0.2125  0.5388
   74MOL   C16036806   1.464   2.770   5.996 -0.5677  0.0317 -0.0517
   74MOL   H16136807   1.913   1.954   6.061 -0.4564 -0.6577  0.0378
   74MOL   H16236808   1.868   1.803   6.134  1.5306 -0.0151  0.6836
   74MOL   H16336809   1.619   1.898   6.100 -1.0172  1.5019 -1.2350
   74MOL   H16436810   1.596   2.143   6.187  0.3066  1.2778 -0.0326
   74MOL   H16536811   1.498   2.105   6.057 -0.0724 -1.4089  0.4074
   74MOL   H16636812   1.643   2.292   5.930 -2.9738  1.6401  0.0894
   74MOL   H16736813   1.713   2.323   6.087  0.3028 -2.0285  2.9267
   74MOL   H16836814   1.407   2.350   6.040 -0.7450  2.7780  0.7433
   74MOL   H16936815   1.493   2.384   6.179  1.4147  0.2426  0.4150
   74MOL   H17036816   1.604   2.573   6.110  0.1765  0.9007 -0.5376
   74MOL   H17136817   1.587   2.534   5.937  0.7936 -0.0808  0.7699
   74MOL   H17236818   1.348   2.602   5.947 -1.8459 -0.4141  1.9724
   74MOL   H17336819   1.362   2.613   6.124 -0.9230 -0.4613  0.0856
   74MOL   H17436820   1.540   2.775   5.918 -1.8535  0.2688 -1.3244
   74MOL   H17536821   1.379   2.828   5.961 -1.1694 -1.3728 -0.9795
   74MOL   H17636822   1.503   2.826   6.080 -1.3458  0.9515 -0.2925
   74MOL   C17736823   1.710   1.856   5.920 -0.3814  0.2009  0.6532
   74MOL   C17836824   1.570   1.829   5.865  1.1251 -0.1515 -0.3579
   74MOL   O17936825   1.567   1.796   5.723 -0.4036 -0.3755  0.3406
   74MOL   C18036826   1.568   1.909   5.628 -0.4195  0.1300  0.4921
   74MOL   C18136827   1.560   1.845   5.492 -0.6312  0.4216 -0.7346
   74MOL   C18236828   1.652   1.922   5.398  0.3243 -0.4987 -0.0015
   74MOL   C18336829   1.664   1.873   5.251  0.0895  0.4054 -0.0588
   74MOL   C18436830   1.783   1.948   5.169  0.9312 -0.0364  0.1758
   74MOL   C18536831   1.794   1.881   5.023 -0.2308 -0.2340  0.1190
   74MOL   H18636832   1.775   1.904   5.846 -1.2774 -2.1123 -1.6886
   74MOL   H18736833   1.754   1.761   5.951 -1.0319 -1.4906 -3.3488
   74MOL   H18836834   1.506   1.914   5.887  0.9967 -0.3286 -0.0463
   74MOL   H18936835   1.653   1.975   5.648 -1.2819  1.1774  0.6873
   74MOL   H19036836   1.475   1.962   5.645  0.1235  0.9869  0.8142
   74MOL   H19136837   1.460   1.825   5.455 -0.3060  0.1929 -1.4979
   74MOL   H19236838   1.603   1.745   5.495  0.2918  0.7809 -1.7644
   74MOL   H19336839   1.612   2.024   5.399  0.9055 -0.2615  2.3225
   74MOL   H19436840   1.749   1.931   5.447  0.7112 -0.7509 -0.7115
   74MOL   H19536841   1.669   1.764   5.249 -0.2282  0.3472  1.9123
   74MOL   H19636842   1.581   1.914   5.195  0.2086 -0.8124 -1.1453
   74MOL   H19736843   1.759   2.054   5.158 -0.9083 -0.4673 -0.1824
   74MOL   H19836844   1.878   1.940   5.220  0.4255 -0.0177  1.1280
   74MOL   H19936845   1.862   1.934   4.956  0.7897 -0.4174  0.9964
   74MOL   H20036846   1.823   1.776   5.025  0.3654 -0.1152 -1.4720
   74MOL   H20136847   1.695   1.882   4.979 -0.4302  0.7008  0.5770
   74MOL   C20236848   1.499   1.714   5.935  0.2581 -0.4917  0.5985
   74MOL   C20336849   1.348   1.698   5.889  0.5196  0.9024 -0.1533
   74MOL   O20436850   1.275   1.811   5.932 -0.6727  0.4299 -0.5572
   74MOL   C20536851   1.175   1.854   5.839 -0.9849  0.0190  0.4782
   74MOL   C20636852   1.115   1.978   5.900  0.7855  0.0671  0.0055
   74MOL   C20736853   0.999   2.052   5.822  0.0807  0.4828 -0.3719
   74MOL   C20836854   0.961   2.191   5.880  0.4395 -0.2006  0.2493
   74MOL   C20936855   0.847   2.255   5.800 -0.0753 -0.7938  0.6137
   74MOL   C21036856   0.790   2.380   5.874  0.3178  0.3959 -0.4379
   74MOL   H21136857   1.555   1.621   5.935 -0.0273 -0.6681 -0.2849
   74MOL   H21236858   1.489   1.736   6.041  1.6949  1.4785  0.3671
   74MOL   H21336859   1.341   1.691   5.780 -1.0858  0.5742 -0.0465
   74MOL   H21436860   1.093   1.787   5.812  0.7961 -2.0751  0.1107
   74MOL   H21536861   1.216   1.883   5.742  2.2650 -1.4433  1.3474
   74MOL   H21636862   1.196   2.050   5.908 -0.4964  1.4478  0.7950
   74MOL   H21736863   1.098   1.968   6.007  1.7959 -0.4225  0.1305
   74MOL   H21836864   1.010   2.055   5.714  2.1811  0.4644 -0.1612
   74MOL   H21936865   0.914   1.987   5.846  2.9749 -2.2347  3.0133
   74MOL   H22036866   0.944   2.182   5.988 -1.3462 -0.2356 -0.0233
   74MOL   H22136867   1.048   2.257   5.884 -0.2745  0.8174 -0.7917
   74MOL   H22236868   0.891   2.288   5.706  1.1307 -0.9353  1.1091
   74MOL   H22336869   0.777   2.174   5.781  0.4279 -1.2004  0.4739
   74MOL   H22436870   0.725   2.349   5.956 -1.7411  2.0345 -1.4334
   74MOL   H22536871   0.859   2.459   5.903  0.3946 -0.2021  1.0645
   74MOL   H22636872   0.715   2.433   5.816  0.8280  1.0226 -0.5310
   74MOL   C22736873   1.280   1.572   5.953 -0.9452  0.3883  0.4759
   74MOL   C22836874   1.359   1.446   5.923 -0.2920  0.3657 -0.3260
   74MOL   O22936875   1.270   1.349   5.989 -0.1235  0.2907  0.1757
   74MOL   C23036876   1.323   1.216   6.019 -0.3851 -0.8363  0.1083
   74MOL   C23136877   1.340   1.204   6.165  0.0467 -0.3062  0.3343
   74MOL   C23236878   1.464   1.277   6.214 -0.2858  0.3512 -0.4325
   74MOL   C23336879   1.480   1.265   6.367 -0.1597  0.6189 -0.1230
   74MOL   C23436880   1.583   1.363   6.412 -0.3251  0.1700  0.2074
   74MOL   C23536881   1.607   1.353   6.562 -0.3162 -0.7682 -0.6613
   74MOL   H23636882   1.260   1.589   6.059 -1.3273  1.6998  0.2068
   74MOL   H23736883   1.181   1.550   5.913  0.0876 -1.8395 -0.9558
   74MOL   H23836884   1.457   1.436   5.969 -0.6790  1.1685  0.7004
   74MOL   H23936885   1.414   1.193   5.964 -1.7746 -2.0124 -1.7508
   74MOL   H24036886   1.240   1.152   5.989 -1.2758 -0.7474  2.2855
   74MOL   H24136887   1.359   1.099   6.186 -0.1684 -0.2398  0.8646
   74MOL   H24236888   1.251   1.226   6.223 -0.4316  0.5367 -0.7057
   74MOL   H24336889   1.550   1.246   6.155  0.8819  2.1196  0.2992
   74MOL   H24436890   1.457   1.383   6.190 -0.3184  0.5615  0.4912
   74MOL   H24536891   1.387   1.305   6.409 -0.9878  0.4790 -1.7615
   74MOL   H24636892   1.492   1.168   6.414 -0.6638 -0.3396 -1.9185
   74MOL   H24736893   1.681   1.332   6.375  0.3094  1.3854  0.8117
   74MOL   H24836894   1.565   1.464   6.376 -0.6820 -0.3268 -1.0267
   74MOL   H24936895   1.579   1.445   6.613 -0.6748 -2.5043  2.3845
   74MOL   H25036896   1.553   1.282   6.624 -0.5003 -1.4919 -1.6400
   74MOL   H25136897   1.715   1.358   6.577 -0.5901 -1.1664  1.6068
   74MOL   C25236898   1.373   1.396   5.773 -0.1017 -0.4621 -0.0661
   74MOL   C25336899   1.496   1.434   5.693 -0.1576 -0.1650  0.6312
   74MOL   O25436900   1.472   1.373   5.567  0.0259  0.1113  0.2899
   74MOL   C25536901   1.410   1.451   5.472  0.4877  0.3240 -0.2061
   74MOL   C25636902   1.448   1.401   5.337 -0.4730  0.1300  0.1485
   74MOL   C25736903   1.392   1.492   5.223 -0.4889  0.3708 -0.2648
   74MOL   C25836904   1.425   1.432   5.076  0.3437  0.1955 -0.1230
   74MOL   C25936905   1.422   1.524   4.959  0.1514  0.7088  0.1104
   74MOL   C26036906   1.536   1.628   4.942 -0.4729 -0.4136  0.3358
   74MOL   H26136907   1.363   1.288   5.765 -0.3194 -0.6582  2.4986
   74MOL   H26236908   1.285   1.429   5.718 -0.1622  1.6894  1.2391
   74MOL   H26336909   1.506   1.542   5.684 -3.9774  0.1656 -0.8621
   74MOL   H26436910   1.433   1.557   5.483  0.3929  0.0393  3.2436
   74MOL   H26536911   1.303   1.449   5.490  0.3438  1.3096 -0.8918
   74MOL   H26636912   1.419   1.298   5.317  0.7850 -0.8866  3.2984
   74MOL   H26736913   1.556   1.397   5.337 -0.4310  1.1622  0.2819
   74MOL   H26836914   1.286   1.485   5.250  0.1491 -1.3589  1.8950
   74MOL   H26936915   1.429   1.594   5.236  1.8846 -0.6499  1.2040
   74MOL   H27036916   1.529   1.400   5.088 -0.3850 -2.0934  0.3267
   74MOL   H27136917   1.371   1.341   5.050 -2.0684  1.4370  0.3781
   74MOL   H27236918   1.427   1.459   4.871 -1.0288 -0.3947  0.8398
   74MOL   H27336919   1.323   1.569   4.960  1.0535  2.7414  0.5142
   74MOL   H27436920   1.623   1.563   4.934  1.8193  2.0134  3.8013
   74MOL   H27536921   1.532   1.687   4.851 -0.1520 -0.5668  0.2207
   74MOL   H27636922   1.540   1.703   5.021  0.1468  1.4894 -1.4706
   74MOL   C27736923   1.626   1.366   5.752  0.5538  0.2594  0.1756
   74MOL   C27836924   1.759   1.451   5.762 -0.0350  0.2211  0.2504
   74MOL   O27936925   1.851   1.396   5.857 -0.7333  0.2676  0.1310
   74MOL   C28036926   1.813   1.411   5.992 -0.4389 -0.0577  0.7713
   74MOL   C28136927   1.924   1.488   6.062 -0.1748  0.7784 -0.5933
   74MOL   C28236928   1.898   1.493   6.208 -0.1896  0.3060 -0.3007
   74MOL   C28336929   2.014   1.556   6.289 -0.2760  0.0373  0.6879
   74MOL   C28436930   1.987   1.602   6.423  0.7328  0.5900  1.4059
   74MOL   C28536931   2.094   1.676   6.494  0.6058  0.5727 -0.1444
   74MOL   H28636932   1.600   1.320   5.847  0.8688  1.5944  0.9341
   74MOL   H28736933   1.640   1.272   5.700 -1.5146  0.3399 -0.5322
   74MOL   H28836934   1.740   1.558   5.775  0.9756  0.5225 -0.6766
   74MOL   H28936935   1.798   1.312   6.034  2.7223 -0.7450  0.4253
   74MOL   H29036936   1.724   1.473   6.004 -0.0717  0.7838 -0.6653
   74MOL   H29136937   1.927   1.591   6.025  0.6893  0.8297 -0.4124
   74MOL   H29236938   2.024   1.447   6.045 -0.8706 -0.9171 -0.6512
   74MOL   H29336939   1.805   1.549   6.222 -0.1209  0.8510 -1.9522
   74MOL   H29436940   1.889   1.387   6.232  1.9442  0.3083  0.6122
   74MOL   H29536941   2.104   1.495   6.284 -0.5120 -0.5198  2.5968
   74MOL   H29636942   2.037   1.652   6.243  0.1375 -0.3305  0.1128
   74MOL   H29736943   1.895   1.661   6.426 -0.3492 -0.9198 -1.2038
   74MOL   H29836944   1.954   1.512   6.475  0.1940  0.8679  1.5485
   74MOL   H29936945   2.185   1.618   6.480  1.7209  1.9594  1.2248
   74MOL   H30036946   2.119   1.769   6.445  1.4462  0.7093  0.5422
   74MOL   H30136947   2.069   1.691   6.599  1.5404  2.4366 -0.1720
   74MOL   C30236948   1.823   1.442   5.619  0.4745  0.3744  0.1438
   74MOL   C30336949   1.944   1.537   5.599 -0.8524 -0.2168  0.0549
   74MOL   O30436950   1.976   1.528   5.458  0.1803  0.4920 -0.1233
   74MOL   C30536951   1.904   1.614   5.368  0.7148 -0.3014  0.2190
   74MOL   C30636952   1.933   1.552   5.233  0.0912 -0.3501 -0.6371
   74MOL   C30736953   1.897   1.405   5.219  1.1069 -0.8125  0.3899
   74MOL   C30836954   1.902   1.371   5.073  0.2950  0.4049  0.2022
   74MOL   C30936955   2.033   1.307   5.043 -0.9896 -0.1621 -0.1822
   74MOL   C31036956   2.043   1.157   5.080  0.7432 -0.0709  0.3782
   74MOL   H31136957   1.850   1.338   5.599 -3.7167 -0.8980  0.4748
   74MOL   H31236958   1.746   1.466   5.545  1.0868 -1.2243 -1.0395
   74MOL   H31336959   1.914   1.639   5.627  0.3294  0.1155  0.1096
   74MOL   H31436960   1.944   1.715   5.373 -2.6854  1.0825  0.8982
   74MOL   H31536961   1.800   1.620   5.399  0.3201 -1.2189 -0.9072
   74MOL   H31636962   2.036   1.571   5.201  0.4402 -0.8701  0.1803
   74MOL   H31736963   1.868   1.612   5.170 -0.4997  0.6094  0.8749
   74MOL   H31836964   1.961   1.338   5.278  0.2147 -0.3410  1.9222
   74MOL   H31936965   1.795   1.389   5.254  0.7025 -0.8283 -0.7795
   74MOL   H32036966   1.818   1.305   5.056  1.8181 -0.8321 -2.7482
   74MOL   H32136967   1.876   1.460   5.016  0.4908  2.1558  2.7087
   74MOL   H32236968   2.065   1.310   4.939  2.1331  0.1829  0.7380
   74MOL   H32336969   2.114   1.359   5.095 -0.4285 -1.7411  0.5476
   74MOL   H32436970   2.054   1.139   5.187  0.2551  0.5924  0.5421
   74MOL   H32536971   1.954   1.113   5.036 -0.8800  3.1193  0.2814
   74MOL   H32636972   2.131   1.119   5.029  0.2339  1.3278 -1.6551
   74MOL   C32736973   2.068   1.495   5.682 -0.4164  0.4642 -0.4906
   74MOL   C32836974   2.181   1.590   5.664 -0.5711 -0.4897 -0.0322
   74MOL   O32936975   2.146   1.717   5.734 -0.2787  0.0972  0.1898
   74MOL   C33036976   2.119   1.829   5.654  0.0169 -0.5052  0.8470
   74MOL   C33136977   2.060   1.929   5.756 -0.3713  0.1184 -0.9545
   74MOL   C33236978   1.997   2.039   5.680  0.1482 -0.0900  0.0652
   74MOL   C33336979   1.964   2.158   5.774  0.2069 -0.2472 -0.1571
   74MOL   C33436980   1.901   2.282   5.695 -0.1837 -0.5093  0.1056
   74MOL   C33536981   1.878   2.408   5.787 -0.1624  0.1463  0.3549
   74MOL   H33636982   2.101   1.404   5.631  1.3778 -0.7289  2.6527
   74MOL   H33736983   2.062   1.463   5.786  0.5624  2.5992  0.2393
   74MOL   H33836984   2.192   1.607   5.557 -3.0154  0.3979 -0.1786
   74MOL   H33936985   2.041   1.803   5.582  3.1355 -2.4254 -1.9752
   74MOL   H34036986   2.210   1.861   5.603 -1.1862  2.3335  0.4022
   74MOL   H34136987   2.142   1.962   5.820 -1.5421 -0.6047  0.9699
   74MOL   H34236988   1.987   1.878   5.818 -0.8871  0.6339 -1.1356
   74MOL   H34336989   2.073   2.079   5.612  0.4691  0.7780  0.9251
   74MOL   H34436990   1.910   2.010   5.622  0.9894 -0.5168 -1.0170
   74MOL   H34536991   1.883   2.126   5.840  0.7338 -1.9831 -0.3355
   74MOL   H34636992   2.045   2.186   5.842 -0.5950  1.4270  0.1424
   74MOL   H34736993   1.971   2.298   5.613  0.0397  2.5158  0.7979
   74MOL   H34836994   1.805   2.259   5.650  0.2694 -0.6394 -0.8080
   74MOL   H34936995   1.975   2.428   5.835  0.1691  0.0713 -0.2854
   74MOL   H35036996   1.851   2.495   5.727 -2.2192  0.3430  1.5425
   74MOL   H35136997   1.799   2.390   5.860 -1.4990 -0.2778 -1.1818
   74MOL   C35236998   2.315   1.534   5.713 -0.2132 -0.3760  0.5189
   74MOL   C35336999   2.448   1.601   5.654  0.7643 -0.4145 -0.1882
   74MOL   O35437000   2.563   1.515   5.678  0.1446 -0.2986  0.4368
   74MOL   C35537001   2.583   1.421   5.574  0.1586 -0.5798 -1.0159
   74MOL   C35637002   2.725   1.355   5.594 -0.1771 -0.3879 -0.1136
   74MOL   C35737003   2.831   1.462   5.566  0.3987  0.6193 -0.3074
   74MOL   C35837004   2.969   1.404   5.607 -0.5836 -0.7178  0.1907
   74MOL   C35937005   3.074   1.518   5.558 -0.3598 -0.3309  0.4122
   74MOL   C36037006   3.226   1.468   5.569 -0.9059  0.2528 -0.5966
   74MOL   H36137007   2.317   1.514   5.820 -1.6279  0.1958  0.6635
   74MOL   H36237008   2.323   1.431   5.678  0.5680 -0.7185  1.6790
   74MOL   H36337009   2.427   1.622   5.549 -1.0055 -2.4975 -0.2798
   74MOL   H36437010   2.576   1.459   5.473 -0.4710  0.3831 -0.6195
   74MOL   H36537011   2.499   1.352   5.583 -0.8421  0.9693  2.2661
   74MOL   H36637012   2.737   1.270   5.527  3.0499  0.6643 -0.9213
   74MOL   H36737013   2.735   1.322   5.698 -0.2263  0.4518  0.1625
   74MOL   H36837014   2.812   1.498   5.465 -2.5361  3.3703  1.1327
   74MOL   H36937015   2.800   1.542   5.633  1.9867  0.8703  0.1341
   74MOL   H37037016   2.976   1.391   5.715  0.6908 -0.7128  0.1218
   74MOL   H37137017   2.979   1.306   5.562 -1.6078 -2.0979  2.8509
   74MOL   H37237018   3.054   1.553   5.457 -0.5710 -0.7404  0.3098
   74MOL   H37337019   3.058   1.606   5.619 -1.9444 -0.0795 -0.3398
   74MOL   H37437020   3.236   1.391   5.492 -0.8668 -1.2488  0.8654
   74MOL   H37537021   3.286   1.556   5.549 -1.1765 -0.2396 -3.8325
   74MOL   H37637022   3.241   1.422   5.667 -0.8881  1.4743 -0.0250
   74MOL   C37737023   2.475   1.741   5.710 -0.1284 -0.8726 -0.4386
   74MOL   C37837024   2.583   1.816   5.631  0.2221  0.0425  0.6217
   74MOL   O37937025   2.661   1.901   5.713 -0.1370  0.2784  0.9990
   74MOL   C38037026   2.767   1.831   5.789  0.2988 -0.5663 -0.0222
   74MOL   C38137027   2.828   1.928   5.893  0.5952 -0.0641  0.2487
   74MOL   C38237028   2.908   1.854   6.004 -0.1397 -0.0632  0.0715
   74MOL   C38337029   2.963   1.959   6.099 -0.4158  0.2112  0.3701
   74MOL   C38437030   3.040   1.901   6.217  0.1316 -0.5539 -0.4081
   74MOL   C38537031   3.076   2.000   6.330 -0.3036  0.6973 -0.5688
   74MOL   H38637032   2.385   1.802   5.709  1.5480  1.6626 -0.5959
   74MOL   H38737033   2.499   1.739   5.817  1.8750  0.0032 -0.8576
   74MOL   H38837034   2.658   1.750   5.588 -0.4834  1.3089 -2.7106
   74MOL   H38937035   2.846   1.783   5.731 -0.0176  1.0108 -1.8375
   74MOL   H39037036   2.713   1.758   5.848  0.8269 -1.6734 -0.8895
   74MOL   H39137037   2.748   1.985   5.939  0.7776  0.5162 -0.1457
   74MOL   H39237038   2.876   2.014   5.846 -0.8427  0.0937 -0.9568
   74MOL   H39337039   2.842   1.789   6.060  0.3440 -1.0894 -0.5261
   74MOL   H39437040   2.984   1.797   5.950  0.1855  0.3751  0.0541
   74MOL   H39537041   3.029   2.021   6.039 -1.8532  1.8531  0.4454
   74MOL   H39637042   2.883   2.025   6.131 -0.4971 -0.4463  1.5616
   74MOL   H39737043   2.998   1.807   6.254 -1.3789 -0.3147 -1.4437
   74MOL   H39837044   3.135   1.873   6.172 -0.1791 -0.3312 -1.2182
   74MOL   H39937045   3.126   2.087   6.287  0.3922  0.5483 -0.0730
   74MOL   H40037046   2.980   2.029   6.371 -1.1574  0.1117 -2.1121
   74MOL   H40137047   3.140   1.948   6.402  2.2824  1.7973 -1.9952
   74MOL   C40237048   2.512   1.890   5.519 -0.3599 -0.0335 -0.2655
   74MOL   C40337049   2.598   1.932   5.398 -0.6763 -0.3709 -0.0202
   74MOL   O40437050   2.669   1.814   5.351  0.2022  0.0928  0.1619
   74MOL   C40537051   2.690   1.813   5.207 -0.1288  0.1144  0.7603
   74MOL   C40637052   2.829   1.759   5.179 -0.1700  0.3727 -0.0667
   74MOL   C40737053   2.937   1.827   5.264 -0.6940 -0.4439  0.0454
   74MOL   C40837054   3.079   1.766   5.242  0.2249 -0.4204 -0.0037
   74MOL   C40937055   3.186   1.812   5.352  0.4313 -0.2294 -0.5316
   74MOL   C41037056   3.320   1.754   5.323 -0.4226  0.3988 -0.3129
   74MOL   H41137057   2.462   1.984   5.542  0.4739  0.8796 -2.0638
   74MOL   H41237058   2.437   1.823   5.476  0.2405 -0.5361 -0.5262
   74MOL   H41337059   2.532   1.967   5.319  0.9266  1.7756 -0.4775
   74MOL   H41437060   2.692   1.914   5.166  1.3879 -0.7274 -1.3383
   74MOL   H41537061   2.615   1.750   5.159  1.1076 -1.1915  0.5182
   74MOL   H41637062   2.859   1.762   5.074 -2.1319  2.3408 -0.6018
   74MOL   H41737063   2.842   1.655   5.210 -0.7538  0.0832 -0.8015
   74MOL   H41837064   2.936   1.932   5.236 -0.3052 -0.2648  0.7111
   74MOL   H41937065   2.919   1.827   5.371  1.1369  0.4141  0.3777
   74MOL   H42037066   3.063   1.658   5.242  0.8694 -0.5224 -0.6746
   74MOL   H42137067   3.110   1.798   5.143  0.7939  0.7162  0.5308
   74MOL   H42237068   3.188   1.920   5.340  0.6611 -0.1774 -0.0222
   74MOL   H42337069   3.149   1.781   5.450  0.9553 -1.5286 -0.7309
   74MOL   H42437070   3.352   1.765   5.219 -1.7168  0.0397 -0.7673
   74MOL   H42537071   3.394   1.797   5.390 -0.4850 -0.7424  0.5198
   74MOL   H42637072   3.312   1.651   5.358 -0.7590  0.5409  0.0309
   74MOL   C42737073   2.692   2.033   5.428 -0.4083  0.5820  0.0476
   74MOL   C42837074   2.635   2.174   5.474  0.2320 -0.1985  0.5364
   74MOL   O42937075   2.736   2.265   5.518 -0.1117  0.0475  0.3316
   74MOL   C43037076   2.777   2.238   5.651 -0.1003 -0.0114 -0.4299
   74MOL   C43137077   2.815   2.369   5.724 -0.3238 -0.1704  0.7804
   74MOL   C43237078   2.840   2.346   5.877  0.4453 -0.7403 -0.6150
   74MOL   C43337079   2.920   2.463   5.960 -0.7083 -0.0891 -0.8515
   74MOL   C43437080   2.918   2.439   6.115 -0.1740  0.6853  0.1049
   74MOL   C43537081   3.028   2.332   6.156 -0.0331  0.4810  0.4435
   74MOL   H43637082   2.766   1.996   5.498 -1.2634 -0.0256  0.6354
   74MOL   H43737083   2.761   2.043   5.344  1.2457 -0.5895  1.2323
   74MOL   H43837084   2.573   2.157   5.562  2.2874 -2.5359  1.5924
   74MOL   H43937085   2.862   2.169   5.645 -0.4857 -0.4361 -1.0161
   74MOL   H44037086   2.701   2.185   5.709 -0.1523  0.1044 -0.3935
   74MOL   H44137087   2.742   2.445   5.699  0.1798 -0.0996 -0.4833
   74MOL   H44237088   2.902   2.411   5.674 -0.6264 -0.8343 -0.3212
   74MOL   H44337089   2.753   2.307   5.930  1.0139  0.8567  1.5781
   74MOL   H44437090   2.905   2.259   5.880 -0.4917 -1.4110  0.4418
   74MOL   H44537091   3.023   2.477   5.926 -0.1813  0.6811  1.0103
   74MOL   H44637092   2.869   2.557   5.941  1.4405  1.5125  1.1069
   74MOL   H44737093   2.943   2.533   6.164 -0.2584  0.6505  0.2147
   74MOL   H44837094   2.821   2.405   6.151  0.3478 -1.1022 -0.1624
   74MOL   H44937095   3.108   2.332   6.082 -0.5819 -1.1588 -0.1939
   74MOL   H45037096   3.061   2.340   6.259 -0.8748  0.0322  0.7583
   74MOL   H45137097   3.001   2.229   6.131 -0.9397  0.4165  1.6460
   74MOL   C45237098   2.556   2.251   5.367 -0.0707  0.0443  0.2873
   74MOL   C45337099   2.479   2.363   5.428  0.3685 -0.1145  0.0737
   74MOL   O45437100   2.389   2.301   5.513 -0.9936 -0.1009  0.2276
   74MOL   C45537101   2.406   2.336   5.642 -0.2713 -0.8344 -0.3373
   74MOL   C45637102   2.349   2.239   5.741  0.0432 -0.0286 -0.4843
   74MOL   C45737103   2.404   2.252   5.883 -0.3438 -0.2179  0.0560
   74MOL   C45837104   2.345   2.130   5.964  0.4476 -0.0939  0.1568
   74MOL   C45937105   2.385   2.132   6.105  0.3060 -0.2160 -0.1980
   74MOL   C46037106   2.526   2.088   6.126 -0.4584 -0.2462 -0.8163
   74MOL   H46137107   2.631   2.292   5.299 -1.5714  0.0414 -1.4005
   74MOL   H46237108   2.498   2.176   5.314  0.8724 -0.6696  0.2451
   74MOL   H46337109   2.552   2.428   5.474  0.5361  1.6473 -2.5611
   74MOL   H46437110   2.372   2.438   5.656  1.7543  0.0380 -1.5364
   74MOL   H46537111   2.510   2.346   5.675  1.1505 -1.7577 -4.2798
   74MOL   H46637112   2.357   2.141   5.694  0.3475 -0.7545  1.0546
   74MOL   H46737113   2.241   2.256   5.746  0.0079 -0.3825 -0.0126
   74MOL   H46837114   2.513   2.250   5.883 -0.3191  0.9714  0.8042
   74MOL   H46937115   2.370   2.348   5.921 -2.6728 -1.6192  1.6914
   74MOL   H47037116   2.237   2.145   5.964  0.6971  1.9363 -1.4689
   74MOL   H47137117   2.358   2.032   5.918  2.6985  0.8075 -1.1939
   74MOL   H47237118   2.372   2.234   6.141 -3.0302 -0.6242 -0.0486
   74MOL   H47337119   2.314   2.072   6.161 -1.6515  0.0482 -2.3064
   74MOL   H47437120   2.540   1.991   6.079  1.3730  0.3790 -1.5998
   74MOL   H47537121   2.600   2.146   6.070 -0.5308 -0.1769 -0.8416
   74MOL   H47637122   2.559   2.088   6.230  1.2070  0.1853 -1.3303
   74MOL   C47737123   2.399   2.427   5.310 -0.6031  0.3849  0.5687
   74MOL   C47837124   2.290   2.528   5.355  0.2030  0.4217 -0.1550
   74MOL   O47937125   2.230   2.580   5.238  0.3951 -0.0620  0.0021
   74MOL   C48037126   2.109   2.658   5.264  0.1771 -0.0478  0.7320
   74MOL   C48137127   1.977   2.574   5.309  0.3820 -0.1715 -0.1361
   74MOL   C48237128   1.937   2.455   5.217  0.1799  0.0249  0.2805
   74MOL   C48337129   1.794   2.404   5.218  0.1351 -0.0474  0.4282
   74MOL   C48437130   1.740   2.373   5.353 -0.3380  0.4190 -0.0629
   74MOL   C48537131   1.603   2.316   5.356 -0.2548  0.3714  0.2903
   74MOL   H48637132   2.476   2.480   5.253 -1.9136  0.9726 -0.6917
   74MOL   H48737133   2.360   2.343   5.254 -0.0869 -0.0891  0.9182
   74MOL   H48837134   2.221   2.489   5.430  0.4794 -1.4231 -0.8094
   74MOL   H48937135   2.083   2.714   5.175 -0.6118 -0.3496  0.7661
   74MOL   H49037136   2.139   2.727   5.342 -0.0347  0.3650  0.4479
   74MOL   H49137137   1.894   2.641   5.330  0.1463 -1.2391  2.5514
   74MOL   H49237138   1.989   2.517   5.402 -1.0684 -0.0734  0.1298
   74MOL   H49337139   1.942   2.482   5.111 -0.6130 -1.5017 -0.1690
   74MOL   H49437140   1.999   2.365   5.223  0.0018  0.0516  2.7611
   74MOL   H49537141   1.739   2.491   5.182  0.0029 -0.6585 -0.9017
   74MOL   H49637142   1.793   2.308   5.164  1.4415 -1.0186  2.0961
   74MOL   H49737143   1.804   2.307   5.412 -3.0246 -0.3223  2.1578
   74MOL   H49837144   1.752   2.466   5.408  2.8543  0.6924 -1.1411
   74MOL   H49937145   1.528   2.369   5.297 -1.5684 -0.8117  0.8907
   74MOL   H50037146   1.606   2.215   5.315  0.0387  1.2290 -1.8608
   74MOL   H50137147   1.557   2.305   5.454 -0.4815  2.2210  0.4079
   74MOL   H50237148   2.344   2.613   5.396  2.5297 -0.9646 -0.2279
   75MOL     C137149   4.160   1.996   5.022  0.0845 -0.1980  0.3722
   75MOL     C237150   4.111   2.134   4.971 -0.2103 -0.3001 -0.5399
   75MOL     O337151   4.070   2.211   5.082 -0.8945 -0.3618 -0.1116
   75MOL     C437152   4.171   2.278   5.148 -0.0760 -0.8500 -0.2024
   75MOL     C537153   4.117   2.328   5.276 -1.2107  0.4586 -0.4502
   75MOL     C637154   4.226   2.352   5.388 -0.0926 -0.1199 -0.0754
   75MOL     C737155   4.184   2.440   5.506 -0.1648 -0.0817  0.1262
   75MOL     C837156   4.277   2.439   5.633 -0.4857 -0.1554 -0.1730
   75MOL     C937157   4.309   2.309   5.707  0.1362  0.0474 -0.1029
   75MOL    H1037158   4.235   1.997   5.101  0.2847 -1.2048  0.2061
   75MOL    H1137159   4.073   1.956   5.074  0.6673  0.1721  1.6377
   75MOL    H1237160   4.189   2.185   4.915 -1.2243  1.5201 -0.3061
   75MOL    H1337161   4.203   2.363   5.088  1.7961 -0.6100  1.1014
   75MOL    H1437162   4.261   2.218   5.162  0.6804  0.3482  0.1538
   75MOL    H1537163   4.045   2.255   5.311  1.1181 -1.5869  0.2313
   75MOL    H1637164   4.061   2.417   5.248 -0.6548  0.2488 -2.2734
   75MOL    H1737165   4.272   2.259   5.422 -0.7533 -1.1843 -2.0282
   75MOL    H1837166   4.306   2.406   5.338  1.4526 -2.2329  0.0723
   75MOL    H1937167   4.166   2.544   5.478  1.7162 -0.0345 -0.9654
   75MOL    H2037168   4.088   2.397   5.536  0.0639 -0.4285  0.3511
   75MOL    H2137169   4.255   2.521   5.700  1.9744  0.8027 -0.5037
   75MOL    H2237170   4.377   2.461   5.597 -1.3985  0.4348 -2.4227
   75MOL    H2337171   4.224   2.253   5.744  1.3847 -0.4689  2.0574
   75MOL    H2437172   4.382   2.250   5.652  0.0805 -0.7942  0.7187
   75MOL    H2537173   4.353   2.334   5.804  1.5007  2.4362 -1.2721
   75MOL    H2637174   4.196   1.923   4.948 -1.9879  0.0749 -0.9583
   75MOL    C2737175   3.999   2.110   4.873  0.3527  0.3643 -0.2403
   75MOL    C2837176   3.937   2.239   4.816 -0.1129 -0.5353  0.6357
   75MOL    O2937177   4.043   2.301   4.739 -0.1930  0.2864 -0.5181
   75MOL    C3037178   4.071   2.429   4.787 -0.0927  0.2325  0.5470
   75MOL    C3137179   4.182   2.479   4.697  0.1260 -0.1333 -0.3272
   75MOL    C3237180   4.146   2.503   4.546  0.0149 -0.1540 -0.1071
   75MOL    C3337181   4.274   2.548   4.469 -0.7951 -0.0489 -0.5225
   75MOL    C3437182   4.250   2.543   4.317  0.3113 -0.2184  0.5331
   75MOL    C3537183   4.369   2.589   4.235  0.0063 -0.2836  0.2363
   75MOL    H3637184   4.040   2.055   4.788  0.4415  0.4442 -0.2496
   75MOL    H3737185   3.918   2.051   4.915 -1.5184  3.5239  0.7352
   75MOL    H3837186   3.907   2.285   4.910 -0.4132 -1.2139  0.8760
   75MOL    H3937187   4.102   2.420   4.891  0.8804  1.6629  0.4030
   75MOL    H4037188   3.982   2.491   4.780  0.0233  0.0402 -3.8754
   75MOL    H4137189   4.276   2.424   4.708 -1.1570 -1.8750  2.2099
   75MOL    H4237190   4.214   2.576   4.735  1.5408 -1.3585  1.6719
   75MOL    H4337191   4.119   2.408   4.499 -0.4497  0.3916 -0.9665
   75MOL    H4437192   4.068   2.578   4.538 -0.7798 -1.2115 -2.8396
   75MOL    H4537193   4.300   2.651   4.496  2.3428 -1.3391  1.7132
   75MOL    H4637194   4.362   2.487   4.491 -1.9682 -1.6513 -0.2016
   75MOL    H4737195   4.243   2.441   4.282  0.3672  0.8874 -2.8801
   75MOL    H4837196   4.155   2.591   4.294 -1.6895 -3.4314  1.8667
   75MOL    H4937197   4.456   2.525   4.244 -2.6553 -4.1017 -0.0876
   75MOL    H5037198   4.342   2.591   4.129 -0.1427 -0.0285  0.2766
   75MOL    H5137199   4.393   2.690   4.268 -2.2822  0.0976  0.8198
   75MOL    C5237200   3.818   2.218   4.723 -1.0444 -0.3841 -0.5786
   75MOL    C5337201   3.739   2.347   4.676  0.9839 -1.1979  0.3218
   75MOL    O5437202   3.716   2.330   4.531  0.8780  0.2524 -0.8904
   75MOL    C5537203   3.788   2.422   4.460 -0.4368  0.1702 -0.0059
   75MOL    C5637204   3.846   2.346   4.338  0.3852  0.2918  0.0607
   75MOL    C5737205   3.867   2.445   4.219 -0.3533 -0.1205  0.3096
   75MOL    C5837206   3.948   2.376   4.112 -0.3194  0.7459  0.4157
   75MOL    C5937207   4.006   2.469   3.998  0.3062 -0.1568 -0.4190
   75MOL    C6037208   4.114   2.395   3.927 -0.2298  0.0081 -0.4465
   75MOL    H6137209   3.752   2.143   4.767  0.4596 -0.5725  1.4080
   75MOL    H6237210   3.868   2.175   4.636  1.1214  0.5958  0.1584
   75MOL    H6337211   3.799   2.436   4.690  0.6641 -0.7784 -0.9074
   75MOL    H6437212   3.881   2.459   4.503 -0.4808 -0.0441  0.2710
   75MOL    H6537213   3.728   2.503   4.419  0.8290  1.0265 -0.2069
   75MOL    H6637214   3.757   2.290   4.309  0.1527  0.1048  1.1179
   75MOL    H6737215   3.922   2.273   4.366 -1.3001 -2.4344 -2.3079
   75MOL    H6837216   3.773   2.487   4.185 -1.6443 -1.4292  2.2066
   75MOL    H6937217   3.921   2.535   4.250  0.9424  0.2083 -2.7669
   75MOL    H7037218   4.035   2.342   4.168  0.2408  3.1915  1.1104
   75MOL    H7137219   3.899   2.291   4.065  0.9703  0.4670 -0.4448
   75MOL    H7237220   3.920   2.502   3.940 -0.5920  1.9837  2.0391
   75MOL    H7337221   4.040   2.559   4.049 -1.4367 -0.4515  1.3532
   75MOL    H7437222   4.138   2.441   3.832  0.2545  1.3351  0.3043
   75MOL    H7537223   4.207   2.397   3.984  1.1081 -1.0666 -2.5051
   75MOL    H7637224   4.088   2.293   3.898 -1.3262  0.0905  0.2345
   75MOL    C7737225   3.597   2.368   4.736  0.0158 -0.1832  0.4385
   75MOL    C7837226   3.597   2.384   4.890  0.2045  0.6885 -0.0835
   75MOL    O7937227   3.464   2.372   4.928 -0.3377  0.9564 -0.1464
   75MOL    C8037228   3.430   2.262   5.014 -0.2212 -0.0366 -1.1464
   75MOL    C8137229   3.400   2.136   4.934 -0.6216 -0.1702  0.5309
   75MOL    C8237230   3.318   2.026   5.017 -0.4235 -0.4187 -1.0597
   75MOL    C8337231   3.288   1.902   4.947  0.0821 -0.4297  0.2799
   75MOL    C8437232   3.172   1.914   4.851  0.0691 -0.7537 -0.2563
   75MOL    C8537233   3.171   1.786   4.766  0.5621  0.4235 -0.4314
   75MOL    H8637234   3.535   2.281   4.717 -1.1021  0.9130 -1.0861
   75MOL    H8737235   3.542   2.451   4.691  0.8453  0.6145  0.8702
   75MOL    H8837236   3.645   2.295   4.931 -4.1541 -1.6791  0.1784
   75MOL    H8937237   3.332   2.291   5.052  0.1332 -0.6173  0.2831
   75MOL    H9037238   3.503   2.253   5.095 -0.3230  1.2021 -0.9012
   75MOL    H9137239   3.492   2.089   4.898 -1.3938 -0.0720 -1.6931
   75MOL    H9237240   3.339   2.161   4.847  0.6110 -0.1757 -0.3558
   75MOL    H9337241   3.371   2.004   5.109  1.1192  0.0454 -1.8251
   75MOL    H9437242   3.227   2.068   5.060  0.5579  0.5256  0.1036
   75MOL    H9537243   3.374   1.864   4.891 -0.1063 -1.8570  0.9137
   75MOL    H9637244   3.270   1.829   5.026  0.3072 -0.5415  0.2292
   75MOL    H9737245   3.077   1.923   4.904  0.5208 -2.5795  0.8943
   75MOL    H9837246   3.182   1.993   4.776  0.3731  0.2502  0.8103
   75MOL    H9937247   3.177   1.702   4.835  0.4756 -0.7541 -1.8523
   75MOL   H10037248   3.072   1.767   4.724  0.6072 -1.5236  0.2887
   75MOL   H10137249   3.255   1.782   4.698 -0.2538  3.2402 -1.6804
   75MOL   C10237250   3.653   2.522   4.944 -0.3425  0.2029 -0.0585
   75MOL   C10337251   3.668   2.540   5.097 -0.3142 -0.6383  0.1283
   75MOL   O10437252   3.761   2.647   5.119  0.6932 -0.4340  0.2603
   75MOL   C10537253   3.894   2.611   5.156 -0.0417 -0.0439 -0.6823
   75MOL   C10637254   3.968   2.744   5.188  0.6906  0.4935  0.0211
   75MOL   C10737255   4.109   2.715   5.254  0.0445  0.2839 -1.0547
   75MOL   C10837256   4.197   2.833   5.250  1.0083 -0.1577 -0.4834
   75MOL   C10937257   4.322   2.823   5.336  0.6575  0.4640  0.3237
   75MOL   C11037258   4.413   2.938   5.312  0.1514 -0.1121 -0.3155
   75MOL   H11137259   3.752   2.524   4.899  0.2386  0.1992  1.1901
   75MOL   H11237260   3.589   2.601   4.904 -0.6659  0.9218  1.8129
   75MOL   H11337261   3.710   2.444   5.128 -1.2855 -1.7548 -1.9176
   75MOL   H11437262   3.935   2.550   5.076  1.1301  0.6596 -0.6219
   75MOL   H11537263   3.906   2.557   5.249 -1.0118  0.1519 -0.4324
   75MOL   H11637264   3.916   2.807   5.259  1.5539  0.8666  0.3320
   75MOL   H11737265   3.988   2.804   5.099 -3.6520  0.8731 -0.7809
   75MOL   H11837266   4.090   2.689   5.358 -0.6459 -2.0163 -1.7116
   75MOL   H11937267   4.148   2.622   5.213  2.7665  1.1940 -0.6290
   75MOL   H12037268   4.232   2.850   5.148  3.3878  1.6201  0.5815
   75MOL   H12137269   4.145   2.919   5.293 -1.1854 -2.1067  0.8571
   75MOL   H12237270   4.293   2.820   5.441 -1.9037  1.2713 -0.3110
   75MOL   H12337271   4.369   2.726   5.320 -0.4862 -0.0982  0.3457
   75MOL   H12437272   4.484   2.951   5.393 -0.4506 -0.6076  0.3027
   75MOL   H12537273   4.464   2.917   5.218 -0.8854  0.0386 -0.9166
   75MOL   H12637274   4.360   3.033   5.313 -3.0672 -1.7860  3.4399
   75MOL   C12737275   3.541   2.576   5.168  0.2903  0.2450 -0.4139
   75MOL   C12837276   3.534   2.541   5.318  0.4014 -0.1635 -0.2935
   75MOL   O12937277   3.556   2.405   5.328  0.6113 -0.5190 -0.0132
   75MOL   C13037278   3.646   2.368   5.433  0.3872  0.5414  0.1286
   75MOL   C13137279   3.660   2.209   5.432  0.3466  0.2782 -0.5160
   75MOL   C13237280   3.745   2.173   5.307  0.1642  0.2986  0.1303
   75MOL   C13337281   3.758   2.023   5.274 -0.0908 -0.4451 -0.0302
   75MOL   C13437282   3.638   1.948   5.220 -0.6002 -0.6754  0.1637
   75MOL   C13537283   3.679   1.801   5.196 -0.4843 -0.0479  0.1724
   75MOL   H13637284   3.514   2.680   5.150 -3.3758 -0.3979  0.9215
   75MOL   H13737285   3.457   2.525   5.121  1.5759 -2.4072  0.0436
   75MOL   H13837286   3.618   2.595   5.362  1.2281 -0.7923 -1.0894
   75MOL   H13937287   3.604   2.399   5.529 -0.1209 -0.3633  0.2038
   75MOL   H14037288   3.750   2.400   5.434  0.8197 -0.6424 -2.5290
   75MOL   H14137289   3.558   2.174   5.418  0.6285 -1.3845  1.4883
   75MOL   H14237290   3.711   2.170   5.519 -0.1578  1.5000  0.3392
   75MOL   H14337291   3.705   2.229   5.222 -3.0050 -2.7901 -0.5308
   75MOL   H14437292   3.841   2.224   5.317  0.6398 -0.4144 -0.6747
   75MOL   H14537293   3.841   2.007   5.206 -0.8020 -1.0374 -0.7640
   75MOL   H14637294   3.799   1.981   5.366 -0.4823 -0.0507  0.3330
   75MOL   H14737295   3.554   1.959   5.288 -0.2870  1.2130  0.2746
   75MOL   H14837296   3.593   1.989   5.129  1.2073 -2.2834 -1.5055
   75MOL   H14937297   3.591   1.744   5.168  0.7539 -1.3919 -1.1261
   75MOL   H15037298   3.760   1.792   5.123  0.0088 -0.8910  0.8124
   75MOL   H15137299   3.715   1.758   5.290  1.4177 -0.4337 -0.7101
   75MOL   C15237300   3.406   2.592   5.382 -0.1003 -0.0175  0.2328
   75MOL   C15337301   3.387   2.739   5.398  0.6444 -0.1996 -0.5019
   75MOL   O15437302   3.254   2.744   5.436 -0.1699 -0.4873 -0.2624
   75MOL   C15537303   3.171   2.760   5.322  0.0234 -0.1605  0.3499
   75MOL   C15637304   3.029   2.708   5.352  0.6406  0.0831 -0.7157
   75MOL   C15737305   2.958   2.760   5.480 -0.1417 -0.3932 -0.6544
   75MOL   C15837306   2.811   2.738   5.490 -0.0316  0.3287 -0.2688
   75MOL   C15937307   2.740   2.825   5.600 -0.0090  0.1538  0.2352
   75MOL   C16037308   2.767   2.797   5.749  0.3871 -0.2037  0.1268
   75MOL   H16137309   3.325   2.539   5.333 -0.8625  0.1007  1.3474
   75MOL   H16237310   3.409   2.537   5.476  1.3021  0.5043  0.5122
   75MOL   H16337311   3.408   2.791   5.304  0.0511  0.2956 -0.3657
   75MOL   H16437312   3.205   2.709   5.232 -1.5964 -0.0888 -0.3172
   75MOL   H16537313   3.167   2.866   5.298  1.0796 -0.0789  0.5399
   75MOL   H16637314   3.035   2.599   5.345  0.5212  0.0287 -0.0045
   75MOL   H16737315   2.962   2.743   5.273 -0.7704 -0.5280  0.1959
   75MOL   H16837316   2.999   2.726   5.575 -1.7956 -0.0059  0.2222
   75MOL   H16937317   2.984   2.866   5.479  2.0684 -0.8891  0.2218
   75MOL   H17037318   2.765   2.751   5.392 -0.7798 -1.2550 -0.1408
   75MOL   H17137319   2.788   2.636   5.519 -2.6089  1.2521  1.1643
   75MOL   H17237320   2.746   2.932   5.581  0.3340 -0.1046 -1.1684
   75MOL   H17337321   2.641   2.785   5.577  0.4880 -0.7658 -0.3229
   75MOL   H17437322   2.866   2.825   5.785 -0.6073  1.9958  1.2074
   75MOL   H17537323   2.691   2.836   5.816  1.2329 -0.7467  1.4252
   75MOL   H17637324   2.765   2.688   5.753 -2.1295 -0.2305 -1.0082
   75MOL   C17737325   3.482   2.807   5.499  0.3710  0.2013  0.5124
   75MOL   C17837326   3.499   2.960   5.479  0.3603 -0.3401  0.2669
   75MOL   O17937327   3.547   3.028   5.593  0.0330  0.3321 -0.1667
   75MOL   C18037328   3.450   3.043   5.692  0.4253  0.4550  0.3689
   75MOL   C18137329   3.492   3.164   5.788  0.0013 -0.2555  0.1145
   75MOL   C18237330   3.634   3.153   5.855  0.3197 -0.0054  0.6062
   75MOL   C18337331   3.687   3.293   5.898  0.4497  0.6834 -0.0958
   75MOL   C18437332   3.823   3.295   5.955 -0.5275 -0.2524  0.4181
   75MOL   C18537333   3.849   3.421   6.039  0.4262 -0.8158 -0.0420
   75MOL   H18637334   3.449   2.797   5.602  0.9460 -0.0676  0.6712
   75MOL   H18737335   3.580   2.761   5.498  1.3101  2.1233 -1.7495
   75MOL   H18837336   3.400   2.995   5.448  0.0710 -1.4451 -0.0669
   75MOL   H18937337   3.419   2.962   5.757 -2.2253  1.1224 -0.0232
   75MOL   H19037338   3.354   3.077   5.653 -1.0484  0.7616  4.0374
   75MOL   H19137339   3.415   3.175   5.864 -0.0627 -2.5464  0.4149
   75MOL   H19237340   3.489   3.249   5.719  1.4042  0.2755  0.6887
   75MOL   H19337341   3.629   3.082   5.937  0.2041 -1.6568 -0.7942
   75MOL   H19437342   3.707   3.101   5.792  0.4704 -1.7178  2.1732
   75MOL   H19537343   3.690   3.376   5.828  0.8169  1.2169  0.5464
   75MOL   H19637344   3.613   3.317   5.974  0.3580 -0.8214  0.3219
   75MOL   H19737345   3.837   3.212   6.026  0.8074 -0.9420 -0.6378
   75MOL   H19837346   3.905   3.278   5.886 -0.7564  0.7369 -0.1017
   75MOL   H19937347   3.874   3.513   5.986  0.3125  0.5740  2.2158
   75MOL   H20037348   3.766   3.442   6.106 -1.3130  0.2677 -2.4717
   75MOL   H20137349   3.935   3.400   6.104 -0.9263 -2.2373  1.3306
   75MOL   C20237350   3.604   3.009   5.367  0.3960 -1.0235  0.0256
   75MOL   C20337351   3.567   3.150   5.302  0.3897 -0.7792 -0.0583
   75MOL   O20437352   3.455   3.132   5.217 -0.4407 -0.2374 -0.0892
   75MOL   C20537353   3.356   3.232   5.243 -0.5690  0.1336 -0.0830
   75MOL   C20637354   3.243   3.206   5.138 -0.0258  1.1134  0.1868
   75MOL   C20737355   3.132   3.320   5.135 -0.1711  0.2524 -0.3422
   75MOL   C20837356   3.011   3.277   5.052 -0.3029  0.1093  0.1270
   75MOL   C20937357   2.899   3.375   5.071 -0.0303 -0.2122 -0.6542
   75MOL   C21037358   2.768   3.327   5.006 -0.4661 -1.0023  0.4141
   75MOL   H21137359   3.705   2.996   5.407  0.2060 -1.7331  0.3021
   75MOL   H21237360   3.602   2.932   5.289 -1.2058  1.3666 -2.3598
   75MOL   H21337361   3.557   3.222   5.384  0.8180 -1.3112  0.4634
   75MOL   H21437362   3.396   3.328   5.209  0.0091  1.0429  2.9878
   75MOL   H21537363   3.319   3.237   5.345 -0.4017 -0.0031 -0.0160
   75MOL   H21637364   3.190   3.113   5.154  1.6151  0.7124  3.8139
   75MOL   H21737365   3.292   3.198   5.041 -1.8393 -0.2640 -0.6325
   75MOL   H21837366   3.092   3.326   5.236  2.2801  0.6631  0.6406
   75MOL   H21937367   3.166   3.410   5.083 -0.4186  0.5964  0.0857
   75MOL   H22037368   3.035   3.266   4.947  2.7828 -0.3793  0.8351
   75MOL   H22137369   2.978   3.180   5.090  0.4247 -0.0790  0.2840
   75MOL   H22237370   2.872   3.378   5.176 -0.8113  0.4332 -0.8618
   75MOL   H22337371   2.929   3.476   5.041  1.6496 -0.9184 -1.4181
   75MOL   H22437372   2.688   3.385   5.052  3.0470  4.8845 -0.4117
   75MOL   H22537373   2.746   3.335   4.900 -2.1487  2.3268  0.9650
   75MOL   H22637374   2.757   3.220   5.027 -1.7612 -1.0588 -0.5039
   75MOL   C22737375   3.672   3.206   5.211  0.5587 -0.0995 -0.1432
   75MOL   C22837376   3.815   3.209   5.266  0.1298 -0.1782  0.6788
   75MOL   O22937377   3.885   3.286   5.166 -0.1329 -0.3665 -0.7684
   75MOL   C23037378   3.974   3.201   5.091 -0.0524 -0.6902  0.1088
   75MOL   C23137379   4.096   3.288   5.071 -1.0236 -0.1071  0.3093
   75MOL   C23237380   4.220   3.197   5.064 -0.0276  0.6876 -0.8338
   75MOL   C23337381   4.249   3.133   4.930  0.3794 -0.2508 -0.2757
   75MOL   C23437382   4.387   3.161   4.872 -0.2243  0.0022 -0.1665
   75MOL   C23537383   4.516   3.124   4.946  0.4169  0.2608 -0.1329
   75MOL   H23637384   3.673   3.154   5.115 -0.9295  0.8411 -0.7024
   75MOL   H23737385   3.631   3.305   5.192 -2.0131 -1.2010 -0.5690
   75MOL   H23837386   3.848   3.106   5.279  1.2608  0.3116  1.7945
   75MOL   H23937387   3.928   3.167   4.999 -0.2062  1.6023 -0.6981
   75MOL   H24037388   4.002   3.111   5.146  0.9940  0.0279  0.7677
   75MOL   H24137389   4.112   3.343   5.164 -1.4964 -0.0626  0.3635
   75MOL   H24237390   4.090   3.362   4.991  2.0544 -0.1926 -0.0914
   75MOL   H24337391   4.310   3.256   5.082  1.5426 -1.0074 -2.8303
   75MOL   H24437392   4.219   3.134   5.153  3.0240  0.8998 -0.5899
   75MOL   H24537393   4.224   3.027   4.930 -0.8133  0.0277 -1.3494
   75MOL   H24637394   4.185   3.189   4.862  0.4516  1.1627  0.7927
   75MOL   H24737395   4.393   3.091   4.788 -3.8109 -0.6150 -0.0043
   75MOL   H24837396   4.396   3.258   4.824  1.5951  1.4221  2.8985
   75MOL   H24937397   4.543   3.190   5.029 -0.9063 -1.6522  1.8647
   75MOL   H25037398   4.498   3.026   4.989 -0.1470 -0.3057 -1.6361
   75MOL   H25137399   4.599   3.130   4.875  1.6526  0.4848  1.2955
   75MOL   C25237400   3.834   3.283   5.395  0.2111  0.0631 -1.3645
   75MOL   C25337401   3.969   3.251   5.455  0.1814  0.5145 -0.6598
   75MOL   O25437402   3.993   3.107   5.478 -0.3434 -0.2531  0.2326
   75MOL   C25537403   3.912   3.044   5.573  0.1016  0.0965 -0.2556
   75MOL   C25637404   3.944   2.891   5.585  0.5163 -0.4851 -0.6049
   75MOL   C25737405   3.870   2.818   5.692  0.1034 -0.4969 -0.3494
   75MOL   C25837406   3.910   2.666   5.711 -0.2300  0.1384  0.1868
   75MOL   C25937407   3.794   2.582   5.764 -0.7697  0.0450  0.9103
   75MOL   C26037408   3.751   2.629   5.902  0.7603 -0.6037  0.2148
   75MOL   H26137409   3.819   3.391   5.386  2.6638  0.4385 -1.2773
   75MOL   H26237410   3.758   3.277   5.474  1.1786  1.3758 -0.3102
   75MOL   H26337411   4.050   3.268   5.384  0.8760  1.5325  0.3531
   75MOL   H26437412   3.805   3.060   5.559 -0.3726 -2.4621  0.2050
   75MOL   H26537413   3.940   3.079   5.672 -0.0402  0.4815 -0.3506
   75MOL   H26637414   4.050   2.890   5.609  0.5354  0.4831 -0.6494
   75MOL   H26737415   3.922   2.838   5.492 -1.6927 -1.3299  0.3604
   75MOL   H26837416   3.899   2.865   5.786  0.9387  2.1588 -1.8611
   75MOL   H26937417   3.764   2.843   5.682 -0.3664 -3.1414 -2.4852
   75MOL   H27037418   3.936   2.630   5.611 -1.7397  0.6523 -0.4108
   75MOL   H27137419   4.003   2.662   5.767 -0.8250 -0.9598  1.1077
   75MOL   H27237420   3.716   2.584   5.687 -0.5808  0.9112  0.7372
   75MOL   H27337421   3.826   2.479   5.776  1.8190  0.8883  1.5402
   75MOL   H27437422   3.839   2.656   5.960  1.6029  1.1174 -1.7932
   75MOL   H27537423   3.695   2.722   5.893  0.6927 -0.8547 -2.6783
   75MOL   H27637424   3.678   2.565   5.951 -0.1653 -0.6417 -1.1625
   75MOL   C27737425   3.996   3.337   5.580 -0.7185  0.2915  0.3684
   75MOL   C27837426   4.077   3.473   5.568 -0.2573 -0.6873 -0.0611
   75MOL   O27937427   3.992   3.560   5.489 -0.3886  0.5334 -0.5102
   75MOL   C28037428   4.063   3.675   5.451 -0.2074 -0.5715  0.2366
   75MOL   C28137429   3.967   3.746   5.349 -0.2455  0.2451  0.4007
   75MOL   C28237430   3.907   3.654   5.243  0.5266 -0.7056 -0.1173
   75MOL   C28337431   3.823   3.735   5.141 -0.1442  0.9323  0.2082
   75MOL   C28437432   3.731   3.651   5.046  0.0829  0.5902  0.4381
   75MOL   C28537433   3.796   3.555   4.954  0.2662 -0.2339  0.3086
   75MOL   H28637434   3.915   3.344   5.653  0.5534  1.9917  1.6520
   75MOL   H28737435   4.065   3.271   5.633 -1.7520 -1.3526 -0.3041
   75MOL   H28837436   4.171   3.458   5.515 -1.0626 -0.7101 -1.4820
   75MOL   H28937437   4.160   3.651   5.406 -0.6917 -2.4943  0.1658
   75MOL   H29037438   4.089   3.749   5.526  0.0445  0.8519 -1.2066
   75MOL   H29137439   4.022   3.825   5.297  0.1202  0.1328  0.6120
   75MOL   H29237440   3.884   3.780   5.411 -0.7477 -2.7538  1.4212
   75MOL   H29337441   3.993   3.600   5.203  1.3230  0.9103 -0.6319
   75MOL   H29437442   3.843   3.585   5.297 -1.6684  0.3647 -1.2941
   75MOL   H29537443   3.773   3.821   5.186  0.6576  1.9774 -0.8403
   75MOL   H29637444   3.900   3.777   5.075  0.3515  0.8834  0.7537
   75MOL   H29737445   3.661   3.594   5.108 -2.3098  2.3728 -0.5587
   75MOL   H29837446   3.676   3.723   4.986  0.7315  0.4073 -0.3808
   75MOL   H29937447   3.885   3.596   4.907  1.1551 -1.0643  1.2519
   75MOL   H30037448   3.827   3.472   5.016  1.1067 -1.2033 -1.3853
   75MOL   H30137449   3.738   3.518   4.870 -0.8080  2.8996 -0.4237
   75MOL   C30237450   4.104   3.522   5.717 -0.1064  0.2483  0.4067
   75MOL   C30337451   4.254   3.543   5.744  0.3780 -0.3057  0.3569
   75MOL   O30437452   4.307   3.407   5.751 -0.3760 -0.6141  0.4266
   75MOL   C30537453   4.409   3.378   5.652  0.3448 -0.4979 -0.5386
   75MOL   C30637454   4.412   3.224   5.654  0.9927  0.1266  0.2891
   75MOL   C30737455   4.483   3.161   5.769 -0.5540  0.0516 -0.6222
   75MOL   C30837456   4.504   3.008   5.745  0.1918 -0.6658  0.8651
   75MOL   C30937457   4.376   2.930   5.767  0.2081 -0.0034  0.6347
   75MOL   C31037458   4.404   2.779   5.756  0.0650 -0.4047 -0.3981
   75MOL   H31137459   4.047   3.615   5.728 -0.4986  0.2804 -1.6562
   75MOL   H31237460   4.068   3.450   5.790 -1.5211  1.9775  1.4645
   75MOL   H31337461   4.300   3.606   5.669  0.5827 -0.2439  0.5306
   75MOL   H31437462   4.504   3.423   5.683  0.5064 -1.9472  1.1355
   75MOL   H31537463   4.381   3.411   5.552 -0.8025  1.8502  0.5182
   75MOL   H31637464   4.464   3.203   5.561 -1.3148 -0.5105 -0.8635
   75MOL   H31737465   4.310   3.190   5.639  0.8572 -0.2884  2.0472
   75MOL   H31837466   4.578   3.211   5.788  0.1372 -1.4168 -0.1962
   75MOL   H31937467   4.427   3.176   5.861 -0.4781 -2.2908 -0.1674
   75MOL   H32037468   4.546   2.989   5.646  0.3005 -2.7192  1.2729
   75MOL   H32137469   4.578   2.980   5.819 -1.4903 -1.7554  2.1778
   75MOL   H32237470   4.336   2.957   5.865 -1.4556 -1.1126  0.2929
   75MOL   H32337471   4.292   2.947   5.700 -0.2866 -1.0407  0.9847
   75MOL   H32437472   4.316   2.722   5.788 -1.3399  2.3742  0.8854
   75MOL   H32537473   4.429   2.747   5.655 -1.0816 -0.3750 -0.6980
   75MOL   H32637474   4.495   2.758   5.812 -0.7252 -1.1417  0.6268
   75MOL   C32737475   4.287   3.609   5.876 -0.0631  0.8387  0.4005
   75MOL   C32837476   4.443   3.643   5.893  0.5454  0.2765 -0.1681
   75MOL   O32937477   4.462   3.757   5.981  1.0293 -0.0372 -0.6499
   75MOL   C33037478   4.500   3.874   5.916  0.1549  0.1821 -0.0696
   75MOL   C33137479   4.466   3.990   6.013 -0.1481 -0.8159  0.0248
   75MOL   C33237480   4.532   3.974   6.154 -0.7287 -0.1682 -0.2039
   75MOL   C33337481   4.687   3.991   6.154  0.1506  0.3452  0.0366
   75MOL   C33437482   4.730   4.031   6.300  0.4107  0.5859  0.1501
   75MOL   C33537483   4.859   4.116   6.304 -0.1295 -0.0344 -0.3604
   75MOL   H33637484   4.259   3.547   5.961  2.4833 -0.6506  0.2217
   75MOL   H33737485   4.232   3.703   5.884  1.4654  1.6952  1.1433
   75MOL   H33837486   4.484   3.659   5.793  0.9199 -0.7940 -0.1931
   75MOL   H33937487   4.436   3.880   5.828 -2.3786  1.5203  1.7994
   75MOL   H34037488   4.604   3.871   5.884  0.2146 -0.4930  0.1801
   75MOL   H34137489   4.360   3.974   6.031 -0.0590  0.1145  1.4421
   75MOL   H34237490   4.485   4.085   5.964 -0.1000 -1.0061 -0.3277
   75MOL   H34337491   4.486   4.045   6.222  1.0875  0.5332  0.3210
   75MOL   H34437492   4.517   3.873   6.193  1.8658 -0.0785  1.1755
   75MOL   H34537493   4.743   3.918   6.096 -0.7323  0.7467 -1.3496
   75MOL   H34637494   4.707   4.081   6.096 -0.7927  0.5663  0.0506
   75MOL   H34737495   4.647   4.075   6.354  1.8555  0.6339  2.3848
   75MOL   H34837496   4.757   3.937   6.348  0.8139 -0.2098 -1.5770
   75MOL   H34937497   4.860   4.208   6.245  3.4071  0.9587  1.1382
   75MOL   H35037498   4.883   4.134   6.409 -2.3121  1.0941 -0.0140
   75MOL   H35137499   4.944   4.060   6.266 -0.6582 -0.9372 -0.2198
   75MOL   C35237500   4.519   3.527   5.953  0.5817  0.8269 -0.6173
   75MOL   C35337501   4.673   3.529   5.943  0.8424 -0.1658  0.7512
   75MOL   O35437502   4.720   3.539   5.810 -0.2714  0.4714 -0.1686
   75MOL   C35537503   4.831   3.631   5.797 -0.4010 -0.3378  0.0438
   75MOL   C35637504   4.875   3.650   5.652  0.5524 -0.1999 -0.0817
   75MOL   C35737505   4.986   3.752   5.640  0.0864  0.2933 -0.6803
   75MOL   C35837506   4.942   3.895   5.668  0.4853 -0.2147 -0.4060
   75MOL   C35937507   5.049   4.007   5.644  0.4834  0.1515  0.0561
   75MOL   C36037508   5.159   4.007   5.750  0.4537 -0.8657  0.3347
   75MOL   H36137509   4.482   3.527   6.055  1.7550 -2.1602 -0.1435
   75MOL   H36237510   4.480   3.432   5.914 -0.8034  0.3379  1.8527
   75MOL   H36337511   4.700   3.614   6.006  1.7931  0.8548 -1.0032
   75MOL   H36437512   4.917   3.606   5.860 -0.5397 -1.4802 -0.2042
   75MOL   H36537513   4.789   3.721   5.841 -0.2617 -0.5610  0.6349
   75MOL   H36637514   4.793   3.685   5.589 -0.2385  1.4233  1.7956
   75MOL   H36737515   4.904   3.551   5.617  1.9244 -0.1562  0.8954
   75MOL   H36837516   5.066   3.716   5.706  1.3899  1.6517 -1.4705
   75MOL   H36937517   5.027   3.737   5.540  0.0938  0.0311 -0.6389
   75MOL   H37037518   4.858   3.914   5.601 -0.2119 -1.5898  0.0655
   75MOL   H37137519   4.900   3.907   5.768  1.3616 -0.1914 -0.0371
   75MOL   H37237520   5.093   4.001   5.545  1.4081 -0.8147  0.5081
   75MOL   H37337521   4.989   4.098   5.645 -0.0663 -0.2079  0.6342
   75MOL   H37437522   5.232   3.927   5.734 -0.6131 -1.9464  0.8022
   75MOL   H37537523   5.221   4.097   5.753 -0.7055 -0.0523  0.2806
   75MOL   H37637524   5.116   3.992   5.849 -1.4939  2.2650  0.0028
   75MOL   C37737525   4.739   3.398   5.995 -0.4076  0.0786  0.2213
   75MOL   C37837526   4.695   3.369   6.141  0.1914 -0.2926 -0.0328
   75MOL   O37937527   4.737   3.486   6.219 -0.0580 -0.3717 -0.3130
   75MOL   C38037528   4.637   3.534   6.309  0.1690 -0.4478  0.8038
   75MOL   C38137529   4.694   3.625   6.420 -1.0097  0.5208 -0.0751
   75MOL   C38237530   4.587   3.688   6.509  0.1440 -0.3185 -0.9523
   75MOL   C38337531   4.498   3.594   6.595  0.7885  0.2591  0.6402
   75MOL   C38437532   4.393   3.683   6.659  0.0264  0.3588 -0.3429
   75MOL   C38537533   4.308   3.605   6.761 -0.2716  0.2583 -0.1010
   75MOL   H38637534   4.724   3.312   5.930 -1.2292 -0.2032  0.7803
   75MOL   H38737535   4.847   3.411   6.002 -0.3478 -0.9529  1.3720
   75MOL   H38837536   4.587   3.352   6.145 -0.3241  2.8704  1.1618
   75MOL   H38937537   4.586   3.457   6.367  1.5277 -0.7438  1.6411
   75MOL   H39037538   4.565   3.591   6.251 -0.4713 -0.1304  1.8913
   75MOL   H39137539   4.756   3.696   6.366  1.3532 -2.5498 -1.6050
   75MOL   H39237540   4.757   3.568   6.489 -1.1408 -0.3860 -0.6959
   75MOL   H39337541   4.631   3.765   6.572  1.7890 -0.9139 -1.3270
   75MOL   H39437542   4.517   3.748   6.450  0.6017  2.1702  0.9665
   75MOL   H39537543   4.460   3.525   6.520  0.0437 -0.7691  1.9506
   75MOL   H39637544   4.566   3.541   6.662  0.4183 -0.3298  0.5479
   75MOL   H39737545   4.435   3.759   6.725 -0.4207  0.3460 -0.0452
   75MOL   H39837546   4.332   3.738   6.588  1.4351  0.6590 -1.3523
   75MOL   H39937547   4.210   3.647   6.742 -0.4567  0.7225  1.7853
   75MOL   H40037548   4.307   3.497   6.746  1.5406  0.0305  1.1902
   75MOL   H40137549   4.339   3.633   6.862 -4.1113  1.4035  0.8179
   75MOL   C40237550   4.752   3.245   6.198 -0.4200  0.0236  0.5817
   75MOL   C40337551   4.696   3.115   6.146 -0.4961 -0.6877 -0.0328
   75MOL   O40437552   4.565   3.092   6.197 -0.4538  0.2940 -0.0538
   75MOL   C40537553   4.478   3.003   6.128 -0.3150 -0.5626 -0.3624
   75MOL   C40637554   4.373   2.953   6.235  0.1944  0.4676 -0.7935
   75MOL   C40737555   4.253   2.873   6.171 -0.2353 -0.5896 -0.0636
   75MOL   C40837556   4.142   2.833   6.262 -0.2386  0.2388 -0.1703
   75MOL   C40937557   4.037   2.762   6.171 -0.6201  0.1107 -0.3783
   75MOL   C41037558   3.939   2.690   6.268 -0.0312  0.3759 -0.1930
   75MOL   H41137559   4.721   3.246   6.303 -1.7662 -0.3659  0.2033
   75MOL   H41237560   4.861   3.243   6.198 -0.4052  0.5876  1.0272
   75MOL   H41337561   4.705   3.104   6.038 -0.1460  2.4984 -0.4001
   75MOL   H41437562   4.531   2.919   6.083 -1.1554 -1.5812  0.5239
   75MOL   H41537563   4.435   3.063   6.048  0.2078 -1.9407 -1.7084
   75MOL   H41637564   4.326   3.034   6.291  0.1402  0.6754 -1.1388
   75MOL   H41737565   4.428   2.889   6.304 -2.9442  2.6814  4.0103
   75MOL   H41837566   4.207   2.927   6.088  0.1717  0.5607  0.4493
   75MOL   H41937567   4.294   2.776   6.143  1.3874  0.1237 -0.2299
   75MOL   H42037568   4.169   2.771   6.348 -0.9942 -0.9963 -0.7979
   75MOL   H42137569   4.100   2.924   6.303  1.7511 -0.0713  2.7541
   75MOL   H42237570   3.976   2.834   6.116 -1.7422  0.4869  1.3368
   75MOL   H42337571   4.084   2.689   6.105 -0.4328 -0.9677  0.9188
   75MOL   H42437572   3.981   2.598   6.309 -0.2822 -0.1228 -1.0584
   75MOL   H42537573   3.907   2.756   6.349 -1.2699  0.5600 -0.8292
   75MOL   H42637574   3.840   2.666   6.230 -0.8379  1.4691  1.1771
   75MOL   C42737575   4.780   3.006   6.211  0.7880  0.2063  0.1524
   75MOL   C42837576   4.896   2.952   6.123  0.5645 -0.0838 -0.7326
   75MOL   O42937577   5.013   3.026   6.158 -0.4068  0.4873 -0.2790
   75MOL   C43037578   5.107   3.047   6.056 -0.0488  0.3177  0.0361
   75MOL   C43137579   5.059   3.153   5.956  0.2111 -0.3148  0.8505
   75MOL   C43237580   5.173   3.187   5.858 -0.3286  0.0332 -0.1845
   75MOL   C43337581   5.136   3.302   5.762 -0.4279 -0.0708 -0.7442
   75MOL   C43437582   5.243   3.335   5.656  0.4172 -0.2078  0.0410
   75MOL   C43537583   5.174   3.421   5.552  0.1337  0.0659 -0.0163
   75MOL   H43637584   4.804   3.030   6.315 -3.2524  1.3850  0.8892
   75MOL   H43737585   4.712   2.921   6.221 -1.3185  1.6484 -1.4192
   75MOL   H43837586   4.875   2.972   6.018 -1.1000 -1.0216 -0.5788
   75MOL   H43937587   5.126   2.953   6.004 -0.9131  0.9597 -1.4793
   75MOL   H44037588   5.199   3.087   6.101 -0.8513  1.2560  0.8695
   75MOL   H44137589   5.044   3.245   6.011  0.7672 -0.4986  1.3189
   75MOL   H44237590   4.968   3.127   5.902  0.4707  0.1335  0.1960
   75MOL   H44337591   5.264   3.211   5.913 -1.5685  0.2694  1.8295
   75MOL   H44437592   5.186   3.093   5.803  0.5330 -0.1201  0.2741
   75MOL   H44537593   5.038   3.281   5.719 -0.2443 -0.5296 -0.9425
   75MOL   H44637594   5.118   3.385   5.829 -0.2660  0.1259 -0.9426
   75MOL   H44737595   5.330   3.386   5.697 -0.3568 -1.2220  3.0557
   75MOL   H44837596   5.281   3.245   5.608 -0.3462  0.5896 -2.1236
   75MOL   H44937597   5.227   3.401   5.459 -0.9803  1.9569 -1.1007
   75MOL   H45037598   5.074   3.395   5.516 -0.2271 -0.4353  1.3207
   75MOL   H45137599   5.174   3.528   5.572 -2.4657 -0.1342  1.3189
   75MOL   C45237600   4.923   2.804   6.154 -0.3716  0.7597 -0.1330
   75MOL   C45337601   5.014   2.729   6.057 -0.2729 -0.2747  0.0629
   75MOL   O45437602   4.985   2.745   5.915 -0.5539 -0.7335  0.1601
   75MOL   C45537603   4.861   2.687   5.870 -0.5011  1.1029  0.2996
   75MOL   C45637604   4.859   2.721   5.722  0.6612 -0.4343 -0.2207
   75MOL   C45737605   4.868   2.871   5.699  0.8879 -0.2247 -0.2282
   75MOL   C45837606   4.848   2.902   5.549  0.4463  0.7715 -0.3091
   75MOL   C45937607   4.877   3.047   5.513  0.4039 -0.2620 -0.4928
   75MOL   C46037608   4.790   3.162   5.565 -0.1475 -0.0775  0.3358
   75MOL   H46137609   4.961   2.785   6.254  0.9773 -2.1630 -1.1397
   75MOL   H46237610   4.828   2.750   6.160 -1.0375  2.1667  2.9135
   75MOL   H46337611   5.114   2.772   6.062  1.1779 -3.1244 -2.3940
   75MOL   H46437612   4.782   2.736   5.926  0.8015  2.3666  1.0706
   75MOL   H46537613   4.852   2.580   5.890  3.4748  0.2096 -2.0995
   75MOL   H46637614   4.777   2.673   5.669  2.7361 -1.3546 -2.6449
   75MOL   H46737615   4.946   2.676   5.675  0.5433 -1.9934  1.0021
   75MOL   H46837616   4.785   2.916   5.754  0.9355  2.0064 -1.9112
   75MOL   H46937617   4.953   2.920   5.746  0.0316  0.7840  0.2876
   75MOL   H47037618   4.906   2.839   5.482  1.0777 -0.7107  1.5807
   75MOL   H47137619   4.746   2.884   5.514  0.4312  0.2162  0.0214
   75MOL   H47237620   4.982   3.073   5.528  0.1991  0.0265  0.4335
   75MOL   H47337621   4.875   3.050   5.404 -0.3233 -0.2876 -0.4778
   75MOL   H47437622   4.823   3.257   5.523  1.6586 -0.9865 -0.3616
   75MOL   H47537623   4.684   3.155   5.539 -0.1489 -2.1645  0.8783
   75MOL   H47637624   4.802   3.181   5.672  2.7637 -0.9951  0.2018
   75MOL   C47737625   5.035   2.581   6.086  0.1715 -0.2634 -0.4776
   75MOL   C47837626   5.137   2.548   6.185  0.3825  0.4825 -0.6580
   75MOL   O47937627   5.134   2.408   6.206  0.1171  0.2156  0.5451
   75MOL   C48037628   5.210   2.354   6.307 -0.0012 -0.2487 -0.6558
   75MOL   C48137629   5.196   2.202   6.291  0.0288 -0.4938  0.7484
   75MOL   C48237630   5.302   2.127   6.372  0.0581 -0.8029 -0.1032
   75MOL   C48337631   5.281   1.970   6.354  0.3148 -0.0123 -0.6179
   75MOL   C48437632   5.330   1.909   6.226  0.0158 -0.8897 -0.3349
   75MOL   C48537633   5.331   1.752   6.234  0.1221 -0.0218  0.1752
   75MOL   H48637634   4.939   2.536   6.110  0.4030 -0.1118  0.7722
   75MOL   H48737635   5.065   2.532   5.993  0.4749  0.9181 -1.0205
   75MOL   H48837636   5.238   2.576   6.155  1.4545 -1.7768  0.6516
   75MOL   H48937637   5.176   2.393   6.403  0.5111  2.7209 -1.6358
   75MOL   H49037638   5.311   2.392   6.290  1.0633 -1.8510  1.7628
   75MOL   H49137639   5.215   2.184   6.185 -0.3455 -0.0969  0.6147
   75MOL   H49237640   5.097   2.162   6.312 -0.3869 -0.9922 -1.9583
   75MOL   H49337641   5.406   2.147   6.349  0.3230 -1.5171  0.4549
   75MOL   H49437642   5.282   2.161   6.473  2.0085  1.4794 -0.4407
   75MOL   H49537643   5.335   1.918   6.434 -0.3365 -0.4746 -0.4740
   75MOL   H49637644   5.178   1.936   6.369  0.6688 -0.5720  0.6873
   75MOL   H49737645   5.260   1.940   6.148  0.3427 -1.6106 -0.9152
   75MOL   H49837646   5.422   1.963   6.205 -1.5302  1.4232 -1.2705
   75MOL   H49937647   5.231   1.715   6.259  0.4609 -0.3871  0.9967
   75MOL   H50037648   5.346   1.703   6.138  0.2126 -1.1036  0.7301
   75MOL   H50137649   5.394   1.705   6.308  0.1840 -0.7817 -0.3564
   75MOL   H50237650   5.115   2.606   6.274 -1.5513 -2.5893  0.9327
   76MOL     C137651   1.585   3.090   4.277  0.1692 -0.2741 -0.0319
   76MOL     C237652   1.727   3.082   4.224 -0.3185 -0.9004 -0.6390
   76MOL     O337653   1.743   2.957   4.167 -0.5837 -0.3465 -0.3262
   76MOL     C437654   1.671   2.925   4.053  1.2508 -0.4136 -0.4741
   76MOL     C537655   1.733   2.791   4.006  0.3093 -0.6142  0.4445
   76MOL     C637656   1.857   2.812   3.916  0.2223 -0.1292  0.3248
   76MOL     C737657   1.916   2.686   3.863 -0.3614 -1.4755  0.1523
   76MOL     C837658   2.043   2.695   3.770 -0.1088  1.3005 -0.0872
   76MOL     C937659   2.164   2.776   3.821 -0.3671 -0.1422 -0.0655
   76MOL    H1037660   1.581   3.008   4.349  3.1158  0.3250  0.9144
   76MOL    H1137661   1.574   3.175   4.345 -0.4306 -0.8590  0.6113
   76MOL    H1237662   1.733   3.163   4.151 -2.4189 -0.1727 -0.0315
   76MOL    H1337663   1.680   3.001   3.975 -0.4986  1.0028  0.6621
   76MOL    H1437664   1.566   2.912   4.077  1.3980  1.4291  1.2826
   76MOL    H1537665   1.661   2.732   3.949 -0.1077 -0.4048  0.7528
   76MOL    H1637666   1.758   2.732   4.094  1.9880 -0.1775  0.2739
   76MOL    H1737667   1.822   2.867   3.829  0.0466 -1.6705 -0.6003
   76MOL    H1837668   1.931   2.877   3.963  0.0775 -0.4541  1.0096
   76MOL    H1937669   1.937   2.614   3.942  1.0295 -1.4996 -0.2317
   76MOL    H2037670   1.837   2.641   3.801 -2.5549 -0.0973  1.8673
   76MOL    H2137671   2.038   2.733   3.668 -1.5430 -0.4591 -0.6894
   76MOL    H2237672   2.084   2.596   3.751  3.0958  2.3068  1.1670
   76MOL    H2337673   2.168   2.873   3.773 -2.5762  1.4113  2.7487
   76MOL    H2437674   2.159   2.812   3.924 -0.2610  1.8262 -0.7421
   76MOL    H2537675   2.258   2.735   3.784 -0.1599  1.9030 -1.9022
   76MOL    H2637676   1.500   3.089   4.210 -1.2033  3.1912  1.5191
   76MOL    C2737677   1.838   3.081   4.338  0.5874  0.5661 -0.0252
   76MOL    C2837678   1.852   3.205   4.432 -0.1675  0.1685 -0.0479
   76MOL    O2937679   1.961   3.173   4.514  0.0372  0.9856 -0.1025
   76MOL    C3037680   1.933   3.121   4.640 -0.0401  0.2876  0.0056
   76MOL    C3137681   2.054   3.099   4.722 -0.1692 -0.3120  0.1112
   76MOL    C3237682   2.143   2.993   4.655 -0.2730  0.6508 -0.3276
   76MOL    C3337683   2.264   2.957   4.740 -0.7222 -0.0840 -0.4988
   76MOL    C3437684   2.367   3.074   4.738  0.4935  0.2057 -0.2036
   76MOL    C3537685   2.497   3.019   4.781 -0.3198 -0.0524  0.3376
   76MOL    H3637686   1.824   2.992   4.400 -3.2200 -1.3758 -3.4032
   76MOL    H3737687   1.936   3.065   4.293  1.1325 -2.8537  2.1078
   76MOL    H3837688   1.762   3.213   4.493 -0.1106 -0.3050  0.0967
   76MOL    H3937689   1.871   3.033   4.653 -2.5022  2.0076  0.1869
   76MOL    H4037690   1.870   3.191   4.694  0.6916  0.0915  1.1535
   76MOL    H4137691   2.026   3.071   4.823 -1.6214  1.6152  0.2695
   76MOL    H4237692   2.116   3.187   4.735  2.7959 -2.5559  1.8128
   76MOL    H4337693   2.098   2.906   4.607 -0.2541 -0.4307  1.5540
   76MOL    H4437694   2.182   3.051   4.572  0.6770 -1.2086 -1.1921
   76MOL    H4537695   2.233   2.909   4.833  1.4902 -0.7440 -0.0849
   76MOL    H4637696   2.312   2.873   4.690  0.7412 -0.4336  1.4483
   76MOL    H4737697   2.382   3.112   4.636  1.8473 -0.5904 -0.3129
   76MOL    H4837698   2.335   3.156   4.802 -1.3541  0.1583 -1.0284
   76MOL    H4937699   2.570   3.099   4.797 -0.4751  0.0871  0.3471
   76MOL    H5037700   2.484   2.960   4.871  0.4334 -2.1680 -0.9041
   76MOL    H5137701   2.539   2.950   4.708  1.0061  0.2853  0.7515
   76MOL    C5237702   1.889   3.350   4.367 -0.3142  0.9638 -0.7023
   76MOL    C5337703   1.970   3.446   4.453  0.3679 -0.8604 -0.1308
   76MOL    O5437704   2.024   3.547   4.371  0.0725 -0.0607  0.2045
   76MOL    C5537705   2.158   3.530   4.335  0.4740 -0.5514 -0.0311
   76MOL    C5637706   2.200   3.612   4.213 -0.5827 -0.1130  0.7275
   76MOL    C5737707   2.229   3.761   4.240  0.0261  0.4679 -0.2292
   76MOL    C5837708   2.099   3.832   4.282 -0.5729 -0.4680 -0.0149
   76MOL    C5937709   2.112   3.983   4.303  0.0265 -0.1726 -0.6596
   76MOL    C6037710   1.968   4.043   4.308 -0.8177  0.1012  0.5445
   76MOL    H6137711   1.794   3.399   4.345 -0.7837  0.4814  0.2090
   76MOL    H6237712   1.944   3.333   4.274  0.6662 -1.6278  0.3263
   76MOL    H6337713   2.051   3.394   4.504 -0.5811 -0.6741  1.5707
   76MOL    H6437714   2.190   3.427   4.323 -1.1371 -0.6327 -4.3507
   76MOL    H6537715   2.215   3.567   4.420 -3.0849 -1.5408  2.9332
   76MOL    H6637716   2.133   3.598   4.128 -1.4515  0.8311  1.2449
   76MOL    H6737717   2.300   3.578   4.185 -0.5607  1.2102 -0.9088
   76MOL    H6837718   2.310   3.774   4.311  0.9004  0.0996 -1.1557
   76MOL    H6937719   2.270   3.800   4.147 -1.1992 -2.4102 -2.0544
   76MOL    H7037720   2.031   3.828   4.198 -0.6938 -2.3865  0.1528
   76MOL    H7137721   2.048   3.787   4.367 -1.0919  2.6165  1.3825
   76MOL    H7237722   2.166   4.009   4.394  1.8971 -0.4276 -1.6689
   76MOL    H7337723   2.158   4.011   4.208  0.9847  0.4441 -0.0236
   76MOL    H7437724   1.927   4.014   4.405  0.2745 -1.7758  0.4766
   76MOL    H7537725   1.971   4.152   4.306  3.4778  0.0227 -1.7549
   76MOL    H7637726   1.911   3.997   4.228 -0.1126 -1.1497  0.7530
   76MOL    C7737727   1.879   3.509   4.569 -0.5350  0.0298  0.6222
   76MOL    C7837728   1.953   3.554   4.693 -0.0500 -0.3810 -0.1511
   76MOL    O7937729   1.874   3.551   4.803  0.3963  0.1304 -0.8371
   76MOL    C8037730   1.870   3.441   4.890 -0.2156  0.2545 -0.0675
   76MOL    C8137731   1.842   3.480   5.038  0.4124  0.4486  0.1714
   76MOL    C8237732   1.965   3.516   5.114 -0.2175  0.6441 -0.6760
   76MOL    C8337733   1.956   3.524   5.271 -0.3570 -0.5066 -0.0917
   76MOL    C8437734   2.095   3.560   5.334 -0.1735  0.1473  0.0373
   76MOL    C8537735   2.127   3.715   5.324 -0.0617 -0.0994 -0.6969
   76MOL    H8637736   1.797   3.440   4.590 -0.7339 -0.0535 -0.3725
   76MOL    H8737737   1.835   3.599   4.526  0.0827  1.0164  2.0596
   76MOL    H8837738   2.041   3.493   4.714 -0.0174 -0.6149 -0.9844
   76MOL    H8937739   1.961   3.381   4.894  0.3390  1.1398  0.8770
   76MOL    H9037740   1.785   3.385   4.851 -0.2001  0.2842 -0.1436
   76MOL    H9137741   1.797   3.396   5.090  1.6017  1.8005  3.5220
   76MOL    H9237742   1.772   3.563   5.045  1.6588  1.4100  1.5774
   76MOL    H9337743   2.045   3.445   5.093  0.9336  2.0879 -1.3150
   76MOL    H9437744   1.996   3.609   5.066  2.6071 -0.4710 -1.1496
   76MOL    H9537745   1.882   3.594   5.310  1.3512  1.9193 -1.0050
   76MOL    H9637746   1.934   3.423   5.303  1.3005 -1.4637 -1.8960
   76MOL    H9737747   2.111   3.514   5.431  1.2159 -0.5036 -0.4835
   76MOL    H9837748   2.171   3.507   5.277  2.6771  2.9312  1.1481
   76MOL    H9937749   2.127   3.744   5.219  0.1320  1.5001 -0.2783
   76MOL   H10037750   2.072   3.788   5.384 -0.8767 -0.4244 -1.0518
   76MOL   H10137751   2.229   3.724   5.363 -0.1924 -1.8996  0.1189
   76MOL   C10237752   2.019   3.699   4.670  0.1804 -0.2960  0.5506
   76MOL   C10337753   2.130   3.738   4.764  0.5840 -0.5297  0.5730
   76MOL   O10437754   2.222   3.641   4.722 -0.1431  0.2557 -0.3841
   76MOL   C10537755   2.294   3.582   4.825  0.3081 -0.4652  0.1054
   76MOL   C10637756   2.390   3.489   4.743  0.5778  0.0915 -0.5844
   76MOL   C10737757   2.500   3.561   4.674  0.3503 -0.3653  0.1118
   76MOL   C10837758   2.573   3.460   4.581 -0.2428  0.2170  0.6464
   76MOL   C10937759   2.648   3.337   4.646 -0.4272 -0.8506 -0.8241
   76MOL   C11037760   2.682   3.219   4.545  0.1274 -0.7833  0.1088
   76MOL   H11137761   2.057   3.706   4.568 -1.0253 -1.1303  0.0340
   76MOL   H11237762   1.939   3.772   4.665 -1.7586 -2.4649 -1.3296
   76MOL   H11337763   2.099   3.717   4.866 -0.7461  1.1645  0.5321
   76MOL   H11437764   2.219   3.536   4.890 -0.5063 -1.0718 -1.2492
   76MOL   H11537765   2.344   3.646   4.898 -0.4659 -0.9775  1.1090
   76MOL   H11637766   2.334   3.423   4.677 -1.6677  1.7064 -0.3400
   76MOL   H11737767   2.441   3.419   4.810  1.0256  1.6729  0.7469
   76MOL   H11837768   2.456   3.636   4.609  0.0399 -1.2250 -0.6934
   76MOL   H11937769   2.564   3.597   4.754 -0.1951 -3.2599  1.9247
   76MOL   H12037770   2.499   3.423   4.510  0.5786  0.0511 -0.1285
   76MOL   H12137771   2.640   3.510   4.511  0.6161 -0.0563  1.2644
   76MOL   H12237772   2.736   3.386   4.689 -0.7529 -1.9587  1.1612
   76MOL   H12337773   2.592   3.304   4.733  0.6929  1.0548  0.6492
   76MOL   H12437774   2.594   3.182   4.493  1.3045 -2.1983 -0.8899
   76MOL   H12537775   2.755   3.238   4.467  0.5812  2.8060  1.3161
   76MOL   H12637776   2.701   3.124   4.595 -1.0327 -0.8892  0.3678
   76MOL   C12737777   2.182   3.883   4.751  0.3230 -0.5165  0.4678
   76MOL   C12837778   2.078   4.005   4.753 -0.1427 -0.3176  1.0349
   76MOL   O12937779   2.156   4.119   4.721  0.6915  0.5350 -0.2992
   76MOL   C13037780   2.081   4.222   4.661 -0.0393  0.0593 -0.2826
   76MOL   C13137781   2.161   4.342   4.604  0.4572  0.1646 -0.2889
   76MOL   C13237782   2.078   4.461   4.562  0.1129 -0.6164  0.9641
   76MOL   C13337783   2.160   4.582   4.529  0.3164 -0.7150 -0.2405
   76MOL   C13437784   2.074   4.687   4.458  0.0523  0.3237 -0.5098
   76MOL   C13537785   1.994   4.764   4.561  0.4836 -0.6777 -0.1598
   76MOL   H13637786   2.270   3.901   4.813  1.8578 -0.8683 -1.5466
   76MOL   H13737787   2.228   3.887   4.652 -0.6518  0.0813  0.0288
   76MOL   H13837788   2.014   3.987   4.666  2.5105  0.9851 -1.2587
   76MOL   H13937789   2.006   4.274   4.721  0.7721  2.1687 -1.0520
   76MOL   H14037790   2.026   4.185   4.574 -2.0404  1.2699  0.4197
   76MOL   H14137791   2.232   4.306   4.530 -0.2349 -2.7993  0.4292
   76MOL   H14237792   2.230   4.377   4.681 -3.0063  1.1693  2.4993
   76MOL   H14337793   2.007   4.429   4.486 -0.1593  0.3929  0.7971
   76MOL   H14437794   2.019   4.498   4.645  0.0223 -1.7035  1.3999
   76MOL   H14537795   2.218   4.625   4.611 -0.8724  2.3348 -0.9109
   76MOL   H14637796   2.235   4.542   4.460  0.7038 -0.1771 -0.1365
   76MOL   H14737797   2.134   4.760   4.404  2.6730 -0.9106  0.6409
   76MOL   H14837798   2.014   4.636   4.383 -2.1292  1.8124  0.1616
   76MOL   H14937799   1.959   4.858   4.520 -3.2128 -2.2727 -0.8259
   76MOL   H15037800   1.908   4.703   4.590 -0.7078  0.4667 -1.2508
   76MOL   H15137801   2.048   4.785   4.653 -2.2239  3.5781  0.5960
   76MOL   C15237802   2.009   4.021   4.891 -0.2219  0.6122 -0.0911
   76MOL   C15337803   1.883   3.941   4.908  0.2651 -0.3295 -0.1852
   76MOL   O15437804   1.838   3.974   5.036 -0.1263 -0.1814 -0.3769
   76MOL   C15537805   1.867   3.883   5.140  0.2078  0.3073  0.8424
   76MOL   C15637806   1.823   3.938   5.273 -0.7226 -0.2429  0.1945
   76MOL   C15737807   1.917   4.063   5.318 -0.2813  0.5930 -0.2336
   76MOL   C15837808   1.854   4.136   5.430  0.3034 -0.1572  0.4343
   76MOL   C15937809   1.950   4.232   5.505 -0.0715 -0.5393  0.7081
   76MOL   C16037810   2.029   4.326   5.409  0.0749 -0.1168  0.4852
   76MOL   H16137811   2.078   4.012   4.975 -0.6500 -0.3560  0.1710
   76MOL   H16237812   1.965   4.121   4.892 -3.3422 -0.6817  0.4716
   76MOL   H16337813   1.910   3.836   4.904 -0.7471 -0.5890 -0.3139
   76MOL   H16437814   1.974   3.869   5.152  0.3687 -0.2452 -1.1543
   76MOL   H16537815   1.820   3.785   5.133 -0.8390  0.8477  0.0609
   76MOL   H16637816   1.824   3.853   5.340 -0.5427  0.5357  1.1951
   76MOL   H16737817   1.721   3.976   5.264 -0.7825 -0.4918 -0.2073
   76MOL   H16837818   2.014   4.026   5.352 -1.5068 -1.2766  1.3351
   76MOL   H16937819   1.922   4.120   5.226  0.2986  1.5154  0.3546
   76MOL   H17037820   1.761   4.187   5.402 -0.6364 -1.1636  1.6537
   76MOL   H17137821   1.822   4.071   5.512  2.1682 -1.3171  0.2648
   76MOL   H17237822   1.902   4.295   5.579 -4.6917  0.8262 -3.1687
   76MOL   H17337823   2.021   4.173   5.562  1.8651  2.5851  1.6090
   76MOL   H17437824   1.973   4.420   5.399 -0.7609 -0.5794  0.7602
   76MOL   H17537825   2.118   4.356   5.464 -0.1007  0.5997  0.3881
   76MOL   H17637826   2.046   4.289   5.308 -1.4981 -0.7873  0.4400
   76MOL   C17737827   1.766   3.977   4.807  0.2988 -0.2907  0.8436
   76MOL   C17837828   1.627   3.901   4.842 -0.0417  0.1724 -0.2690
   76MOL   O17937829   1.537   3.951   4.739  0.4464 -0.1281 -0.2868
   76MOL   C18037830   1.433   4.029   4.788  0.0734 -0.4810 -0.2836
   76MOL   C18137831   1.364   4.077   4.664 -0.1028  0.9874 -0.4503
   76MOL   C18237832   1.296   3.973   4.575 -0.5014  0.5364 -0.5448
   76MOL   C18337833   1.181   3.899   4.633 -0.4480  0.0554  0.1565
   76MOL   C18437834   1.111   3.813   4.525  0.3219 -0.5567 -0.0416
   76MOL   C18537835   1.012   3.715   4.590  0.8714  0.5356  0.0665
   76MOL   H18637836   1.750   4.084   4.822 -1.0488 -0.9703  5.0104
   76MOL   H18737837   1.792   3.956   4.704 -3.2923  2.0350 -0.6104
   76MOL   H18837838   1.600   3.931   4.943 -1.3820 -0.3581 -0.4607
   76MOL   H18937839   1.463   4.106   4.859 -3.1392 -0.0828  0.7021
   76MOL   H19037840   1.365   3.973   4.852 -0.8464 -1.3953 -2.0336
   76MOL   H19137841   1.443   4.117   4.601 -0.0736  0.6894 -0.6036
   76MOL   H19237842   1.292   4.159   4.677 -1.2496  0.0914 -1.0946
   76MOL   H19337843   1.258   4.025   4.487 -3.1499 -0.2169  0.1017
   76MOL   H19437844   1.373   3.902   4.542 -0.0503 -0.0902  1.8160
   76MOL   H19537845   1.204   3.832   4.716 -1.8724 -0.4376  0.1703
   76MOL   H19637846   1.110   3.967   4.681 -2.3498 -4.1195  3.5741
   76MOL   H19737847   1.059   3.884   4.462 -0.0229 -0.0839  0.7680
   76MOL   H19837848   1.184   3.772   4.455 -0.7006  1.2473 -2.1942
   76MOL   H19937849   1.063   3.642   4.653 -2.6183 -2.1212 -0.0034
   76MOL   H20037850   0.938   3.775   4.644 -1.3755 -3.1434  1.2360
   76MOL   H20137851   0.950   3.660   4.519 -0.4032  0.9564  0.8174
   76MOL   C20237852   1.633   3.746   4.832 -0.3589 -0.0367 -0.9808
   76MOL   C20337853   1.503   3.671   4.879 -0.9666  1.1439  0.3826
   76MOL   O20437854   1.527   3.661   5.023  0.2567 -0.1928 -0.5363
   76MOL   C20537855   1.408   3.668   5.110 -0.6560  0.3301  0.2152
   76MOL   C20637856   1.442   3.663   5.254  0.1562  0.9427 -0.3743
   76MOL   C20737857   1.552   3.554   5.286  0.4432 -0.1727 -0.2708
   76MOL   C20837858   1.551   3.513   5.436 -0.3221  0.0390 -0.2488
   76MOL   C20937859   1.634   3.391   5.462  0.2179 -0.6499  0.3529
   76MOL   C21037860   1.663   3.384   5.610 -0.0789  0.9034 -0.0675
   76MOL   H21137861   1.652   3.727   4.727  0.2045 -1.3347 -0.6620
   76MOL   H21237862   1.723   3.713   4.884  0.9074  1.4754 -2.1834
   76MOL   H21337863   1.423   3.737   4.848 -1.2229  0.6472 -0.0180
   76MOL   H21437864   1.347   3.582   5.084 -0.3399  0.7536 -2.0469
   76MOL   H21537865   1.348   3.758   5.099  1.5605  1.6357 -1.6944
   76MOL   H21637866   1.350   3.646   5.310  0.4694  1.2415  0.2353
   76MOL   H21737867   1.491   3.756   5.281  1.9901  0.3054 -1.4103
   76MOL   H21837868   1.530   3.459   5.237 -1.1014  0.6565 -1.2354
   76MOL   H21937869   1.650   3.591   5.257  0.8963 -0.5262  0.7596
   76MOL   H22037870   1.604   3.602   5.470  1.9109 -0.2170 -2.8446
   76MOL   H22137871   1.455   3.511   5.487 -0.1622  0.4160  0.0667
   76MOL   H22237872   1.575   3.307   5.426 -0.7771  0.5054 -0.7880
   76MOL   H22337873   1.719   3.388   5.393  0.6408  0.3346  0.8053
   76MOL   H22437874   1.727   3.299   5.630  0.6512  1.5327  0.3109
   76MOL   H22537875   1.706   3.479   5.644  0.1862  0.1128  1.8761
   76MOL   H22637876   1.567   3.391   5.661 -0.6398  0.5885 -1.0663
   76MOL   C22737877   1.473   3.533   4.823  0.4393  0.8059 -0.0558
   76MOL   C22837878   1.503   3.517   4.670 -0.2741 -0.1406  0.4828
   76MOL   O22937879   1.455   3.396   4.618  0.0703 -0.0431 -0.7662
   76MOL   C23037880   1.527   3.280   4.656  0.9695  0.4521 -0.0762
   76MOL   C23137881   1.428   3.192   4.738 -0.1412  0.6199 -0.5339
   76MOL   C23237882   1.477   3.051   4.765 -0.3062  0.4649 -0.2469
   76MOL   C23337883   1.374   2.974   4.838  1.6001 -0.1084 -0.3978
   76MOL   C23437884   1.285   2.883   4.743  0.1573 -0.1493  1.1297
   76MOL   C23537885   1.190   2.789   4.833  0.2747  0.3053 -0.4231
   76MOL   H23637886   1.527   3.462   4.885 -0.1035  0.4811  0.0426
   76MOL   H23737887   1.366   3.525   4.841  0.5746  1.6289  1.1916
   76MOL   H23837888   1.610   3.505   4.652 -0.3772  0.5715 -0.6756
   76MOL   H23937889   1.610   3.309   4.720  1.2182  0.1416 -0.2578
   76MOL   H24037890   1.561   3.225   4.568 -0.3998 -0.3768 -0.1055
   76MOL   H24137891   1.332   3.189   4.686 -0.0696  0.4323 -0.6539
   76MOL   H24237892   1.425   3.233   4.839  1.3819 -2.1142  0.6543
   76MOL   H24337893   1.508   3.008   4.670 -0.9092 -0.6015  0.0334
   76MOL   H24437894   1.568   3.063   4.824 -1.9943  0.1357  2.4856
   76MOL   H24537895   1.420   2.908   4.912  0.3517  0.1526  0.6294
   76MOL   H24637896   1.304   3.033   4.897  1.0491 -0.3519 -0.7976
   76MOL   H24737897   1.211   2.949   4.697  2.5260  1.7091 -0.1493
   76MOL   H24837898   1.329   2.836   4.656  0.6854  1.3241  0.5788
   76MOL   H24937899   1.105   2.748   4.778  2.1372 -1.9383 -1.7137
   76MOL   H25037900   1.242   2.696   4.853 -0.5964 -0.2958 -0.8863
   76MOL   H25137901   1.153   2.834   4.925 -0.1313  0.3192 -0.5915
   76MOL   C25237902   1.440   3.627   4.580 -0.4283 -0.2117 -0.1543
   76MOL   C25337903   1.502   3.629   4.438  0.8909  0.0245 -0.2501
   76MOL   O25437904   1.514   3.761   4.399  0.0111  1.0796 -0.1805
   76MOL   C25537905   1.637   3.825   4.423  0.2326  0.3052  0.4256
   76MOL   C25637906   1.635   3.979   4.388  0.7797  0.3278 -0.7507
   76MOL   C25737907   1.586   4.014   4.253 -0.5083  0.9373 -0.4759
   76MOL   C25837908   1.575   4.160   4.213  0.2871 -0.5401  0.5043
   76MOL   C25937909   1.479   4.188   4.091 -0.0937 -0.4123 -0.4222
   76MOL   C26037910   1.480   4.326   4.028 -0.6026 -0.8628 -0.2227
   76MOL   H26137911   1.331   3.628   4.580 -0.4328  1.6606  0.2328
   76MOL   H26237912   1.456   3.727   4.621  0.1255 -1.3085  2.4281
   76MOL   H26337913   1.604   3.590   4.436 -0.3104 -3.2613 -0.1467
   76MOL   H26437914   1.718   3.778   4.368 -0.7285 -1.5660  0.5825
   76MOL   H26537915   1.664   3.815   4.528  2.1740 -0.7227 -0.1458
   76MOL   H26637916   1.728   4.029   4.414  0.1714  1.7803 -1.3553
   76MOL   H26737917   1.562   4.032   4.450  2.6486  2.4807 -0.3299
   76MOL   H26837918   1.648   3.953   4.187 -0.3361 -1.4205  1.7931
   76MOL   H26937919   1.483   3.977   4.249  0.0986 -0.8156 -0.5558
   76MOL   H27037920   1.551   4.214   4.304  1.2462 -2.9985  2.2702
   76MOL   H27137921   1.673   4.200   4.186 -0.5656 -0.4652 -2.6452
   76MOL   H27237922   1.501   4.114   4.013  1.2524 -1.8989  1.3340
   76MOL   H27337923   1.375   4.159   4.107 -0.5060  1.5325  0.5619
   76MOL   H27437924   1.484   4.401   4.107 -2.0553  2.4746 -3.1765
   76MOL   H27537925   1.570   4.330   3.967  0.0288  1.5894  0.7775
   76MOL   H27637926   1.393   4.338   3.963 -0.0490 -0.4951 -0.8983
   76MOL   C27737927   1.424   3.553   4.330 -0.0846 -0.3716  0.1185
   76MOL   C27837928   1.474   3.579   4.185  0.1285  0.3311  0.6913
   76MOL   O27937929   1.603   3.534   4.154 -0.2251  1.1993 -0.3507
   76MOL   C28037930   1.687   3.603   4.056  0.8737 -0.3502  0.2552
   76MOL   C28137931   1.830   3.547   4.048  0.5102 -1.2454 -0.3711
   76MOL   C28237932   1.827   3.406   3.986  0.0342 -0.7319 -0.9290
   76MOL   C28337933   1.960   3.361   3.944 -0.5749 -0.0408  0.9386
   76MOL   C28437934   1.972   3.232   3.859  0.4440 -0.0095 -0.2315
   76MOL   C28537935   2.118   3.195   3.830 -0.6237  0.2492 -0.5023
   76MOL   H28637936   1.417   3.448   4.357 -2.3913 -0.5795 -1.1709
   76MOL   H28737937   1.323   3.589   4.349  0.7291  1.3463  1.3683
   76MOL   H28837938   1.468   3.688   4.178  0.2790  0.2909 -0.1206
   76MOL   H28937939   1.685   3.708   4.087  0.0814 -0.5889  1.0329
   76MOL   H29037940   1.634   3.597   3.961 -0.3620  0.5961  0.8601
   76MOL   H29137941   1.873   3.537   4.148 -1.0468  0.1303  0.4583
   76MOL   H29237942   1.887   3.625   3.998 -1.6547 -0.1064 -1.1240
   76MOL   H29337943   1.783   3.338   4.059  0.0497  1.4188  1.1351
   76MOL   H29437944   1.751   3.420   3.909 -1.8810 -0.2333  1.0146
   76MOL   H29537945   2.001   3.445   3.888  0.4519 -1.1626 -0.0123
   76MOL   H29637946   2.020   3.347   4.034  1.9399 -0.2939 -0.7211
   76MOL   H29737947   1.920   3.151   3.910  0.9546 -1.7371 -2.3977
   76MOL   H29837948   1.925   3.259   3.765  0.9266  1.3845 -0.0870
   76MOL   H29937949   2.184   3.267   3.783  0.5833  0.7912  1.9665
   76MOL   H30037950   2.170   3.160   3.920  2.4780 -0.5289 -2.5288
   76MOL   H30137951   2.112   3.113   3.758 -1.4066 -0.9055  0.8256
   76MOL   C30237952   1.380   3.513   4.080  0.5030 -0.3975 -0.5365
   76MOL   C30337953   1.234   3.575   4.079  0.2448 -0.5199 -0.6912
   76MOL   O30437954   1.150   3.517   3.977  0.0644  0.8974 -0.1025
   76MOL   C30537955   1.115   3.378   4.004  0.3694  0.2628  0.3518
   76MOL   C30637956   0.989   3.364   3.925  0.2485  0.4044  0.4977
   76MOL   C30737957   0.912   3.234   3.950  0.7580  0.5943 -0.1333
   76MOL   C30837958   0.788   3.219   3.854 -0.8018  0.1163  1.0350
   76MOL   C30937959   0.701   3.098   3.894 -0.1611  0.2554  0.4287
   76MOL   C31037960   0.591   3.084   3.788 -0.1171 -0.0916 -0.5632
   76MOL   H31137961   1.420   3.548   3.985  0.1568  0.4371 -0.3747
   76MOL   H31237962   1.388   3.404   4.088  1.0632 -0.4548 -1.6989
   76MOL   H31337963   1.183   3.561   4.174  0.8389  1.0571 -0.1286
   76MOL   H31437964   1.078   3.364   4.105  0.6330 -0.9933  0.2772
   76MOL   H31537965   1.191   3.307   3.971 -0.3621 -0.9135  1.1640
   76MOL   H31637966   1.021   3.375   3.821 -2.6562  0.4523 -0.4496
   76MOL   H31737967   0.916   3.439   3.955  0.0255  0.4050 -0.0455
   76MOL   H31837968   0.978   3.148   3.939 -0.9265 -1.1275  2.7265
   76MOL   H31937969   0.883   3.237   4.055  0.6985  1.1425 -0.1635
   76MOL   H32037970   0.726   3.308   3.870  0.2943  1.3432 -1.2794
   76MOL   H32137971   0.823   3.216   3.751  1.1393  1.7541  1.6248
   76MOL   H32237972   0.768   3.013   3.885  2.3121  2.2390 -0.7627
   76MOL   H32337973   0.665   3.096   3.997  1.5504 -1.3268  1.0317
   76MOL   H32437974   0.533   3.176   3.780  0.3019  0.3826  1.5998
   76MOL   H32537975   0.644   3.057   3.697 -1.1044  0.4640 -1.3043
   76MOL   H32637976   0.528   2.996   3.803 -1.5897  0.8455 -1.1995
   76MOL   C32737977   1.230   3.730   4.052 -0.4214  0.1385  0.4824
   76MOL   C32837978   1.105   3.813   4.024 -0.2854 -0.2053  0.7396
   76MOL   O32937979   1.022   3.815   4.139  0.4248 -0.2854  0.1332
   76MOL   C33037980   0.899   3.741   4.123  0.8602  0.6822 -0.3166
   76MOL   C33137981   0.815   3.762   4.247  0.6194 -0.3283  0.2127
   76MOL   C33237982   0.687   3.682   4.225  0.2607 -0.4829  0.3469
   76MOL   C33337983   0.572   3.690   4.328  0.3826  0.4557  0.2017
   76MOL   C33437984   0.513   3.841   4.331  0.5165 -0.1510  0.3379
   76MOL   C33537985   0.413   3.850   4.449 -0.0392 -0.2538  0.0074
   76MOL   H33637986   1.293   3.751   3.965 -1.5851 -0.3597 -0.4996
   76MOL   H33737987   1.279   3.779   4.136  1.3212  0.7724 -0.8798
   76MOL   H33837988   1.049   3.772   3.940  1.6577 -0.6724 -0.3742
   76MOL   H33937989   0.933   3.638   4.129 -3.1814 -0.6627  0.5277
   76MOL   H34037990   0.843   3.745   4.029 -3.5195 -0.8832  2.1016
   76MOL   H34137991   0.781   3.865   4.249 -2.3426 -1.2764  1.2489
   76MOL   H34237992   0.863   3.717   4.334  3.1072 -2.8002 -2.2711
   76MOL   H34337993   0.642   3.702   4.128 -0.6266 -0.9965  0.6410
   76MOL   H34437994   0.727   3.580   4.225  1.3281 -0.0620 -0.4992
   76MOL   H34537995   0.492   3.618   4.310  0.9971 -1.0529  3.1725
   76MOL   H34637996   0.613   3.665   4.426  0.3086 -1.4085 -0.2193
   76MOL   H34737997   0.590   3.917   4.348  1.6444 -0.8515 -1.4613
   76MOL   H34837998   0.464   3.861   4.236 -0.2926 -0.3075  0.7256
   76MOL   H34937999   0.463   3.809   4.536  1.4828  0.9745 -0.2511
   76MOL   H35038000   0.389   3.956   4.451  2.0476  0.2444 -0.4976
   76MOL   H35138001   0.317   3.799   4.437  1.3047 -2.4601 -1.8872
   76MOL   C35238002   1.148   3.954   3.991 -0.2015  0.4193 -0.0309
   76MOL   C35338003   1.030   4.052   3.968  0.3084 -0.0979  0.0285
   76MOL   O35438004   0.973   4.025   3.838  0.1469  0.4583 -0.2872
   76MOL   C35538005   0.834   4.041   3.818  0.5746  0.1290  0.4566
   76MOL   C35638006   0.789   3.954   3.696 -0.0766 -0.3400 -0.2641
   76MOL   C35738007   0.807   3.801   3.723  0.2441 -0.0050  0.2631
   76MOL   C35838008   0.741   3.714   3.612  0.3777 -0.4305 -0.4188
   76MOL   C35938009   0.724   3.570   3.660 -0.9815  0.4430 -0.6550
   76MOL   C36038010   0.689   3.484   3.536  0.0080  0.4106 -0.2777
   76MOL   H36138011   1.210   3.994   4.071 -1.9581  1.2526  0.9463
   76MOL   H36238012   1.207   3.963   3.900 -0.4787 -0.4562 -0.3033
   76MOL   H36338013   0.950   4.031   4.040  0.1818  0.2791 -0.0036
   76MOL   H36438014   0.814   4.148   3.815 -0.6856 -0.1384 -1.0520
   76MOL   H36538015   0.777   4.012   3.906  0.4329 -0.5851  0.1295
   76MOL   H36638016   0.842   3.993   3.609 -1.4637  1.5432 -0.2925
   76MOL   H36738017   0.683   3.966   3.672 -0.4686  0.7515  1.9328
   76MOL   H36838018   0.905   3.764   3.753  0.0163 -1.0208 -0.2154
   76MOL   H36938019   0.745   3.785   3.812  0.9263 -1.5381  0.4852
   76MOL   H37038020   0.654   3.760   3.565 -0.4253 -2.0400 -0.5488
   76MOL   H37138021   0.810   3.731   3.529 -2.6903  2.1901 -2.5288
   76MOL   H37238022   0.817   3.530   3.701 -1.5765 -0.5983 -0.2890
   76MOL   H37338023   0.656   3.553   3.744 -1.0056  0.1231 -0.7392
   76MOL   H37438024   0.703   3.381   3.569 -2.8236 -0.5779 -1.9731
   76MOL   H37538025   0.584   3.496   3.508  0.1130  0.9626 -0.4520
   76MOL   H37638026   0.761   3.499   3.455  1.8191  0.5288  1.3269
   76MOL   C37738027   1.069   4.198   3.974  0.6545 -0.5043  0.9055
   76MOL   C37838028   1.071   4.259   4.118  0.5123 -1.1675  0.1124
   76MOL   O37938029   0.943   4.255   4.187 -0.4565 -0.0859  0.6215
   76MOL   C38038030   0.937   4.162   4.294 -0.4174  0.2987 -0.4645
   76MOL   C38138031   0.807   4.171   4.376  0.0686 -0.2841  0.1368
   76MOL   C38238032   0.801   4.079   4.494  0.7060  0.5770 -0.5589
   76MOL   C38338033   0.675   4.113   4.569 -0.4683 -0.1507  0.0424
   76MOL   C38438034   0.662   4.018   4.694 -0.1810  0.0400 -0.2380
   76MOL   C38538035   0.564   4.084   4.795  0.6051 -0.4676 -0.5690
   76MOL   H38638036   1.166   4.212   3.925 -0.1822  0.5200 -0.5090
   76MOL   H38738037   0.989   4.246   3.918  1.2404 -0.1602  0.3425
   76MOL   H38838038   1.143   4.203   4.177 -0.2004 -1.3735  0.8062
   76MOL   H38938039   1.026   4.167   4.357  0.6208 -2.6203 -1.6321
   76MOL   H39038040   0.932   4.062   4.252  2.6501 -0.4326  0.7452
   76MOL   H39138041   0.724   4.139   4.313  0.2279  0.0475 -0.2429
   76MOL   H39238042   0.789   4.273   4.410  0.4973  0.5303 -2.0175
   76MOL   H39338043   0.807   3.978   4.453  3.4770  0.7373 -0.6796
   76MOL   H39438044   0.885   4.089   4.563  0.7006 -3.4179  0.1866
   76MOL   H39538045   0.668   4.219   4.595  0.1864 -0.1772  0.3511
   76MOL   H39638046   0.590   4.091   4.505 -1.1938  1.9435  0.2404
   76MOL   H39738047   0.628   3.922   4.655 -0.5429  0.0673  0.0188
   76MOL   H39838048   0.759   4.000   4.740 -0.2793 -0.4670 -0.2295
   76MOL   H39938049   0.518   3.999   4.845  0.4243 -0.9048 -1.4644
   76MOL   H40038050   0.621   4.149   4.861  1.2653 -0.9411 -0.6626
   76MOL   H40138051   0.479   4.141   4.757  0.1931  0.3731  1.5642
   76MOL   C40238052   1.110   4.412   4.122  0.7016 -0.2115  0.2507
   76MOL   C40338053   1.146   4.469   4.261  0.1959  0.3653  0.3310
   76MOL   O40438054   1.188   4.601   4.248 -0.0863 -0.4533 -0.0452
   76MOL   C40538055   1.089   4.701   4.300 -0.6144  0.0445 -0.4056
   76MOL   C40638056   1.152   4.841   4.286  0.3871 -0.0514  0.4280
   76MOL   C40738057   1.064   4.967   4.315 -0.1321 -0.2999 -0.2254
   76MOL   C40838058   0.940   4.986   4.221  0.0857 -0.5718  0.1221
   76MOL   C40938059   0.877   5.118   4.244 -0.8955  1.3711  0.1755
   76MOL   C41038060   0.753   5.142   4.163 -0.1451  0.6544  0.4655
   76MOL   H41138061   1.029   4.470   4.077  1.9886  0.1995 -1.6077
   76MOL   H41238062   1.199   4.430   4.063 -0.5021  1.4229 -1.1229
   76MOL   H41338063   1.063   4.465   4.331  0.0523  1.6787  0.2417
   76MOL   H41438064   1.046   4.673   4.396  0.6020 -2.0245 -0.4557
   76MOL   H41538065   1.000   4.692   4.237  0.6149 -0.4076 -2.1064
   76MOL   H41638066   1.190   4.860   4.186 -0.3222 -1.3154 -0.0932
   76MOL   H41738067   1.236   4.853   4.355  1.8691  1.6198 -1.6010
   76MOL   H41838068   1.028   4.954   4.417  1.5816 -1.0007  0.2879
   76MOL   H41938069   1.137   5.048   4.313  1.1029 -1.4240 -2.9452
   76MOL   H42038070   0.966   4.992   4.115 -3.3851  2.0874 -0.6718
   76MOL   H42138071   0.868   4.907   4.236  1.2002 -1.7333 -0.5123
   76MOL   H42238072   0.848   5.125   4.349 -1.8358  2.4945 -0.1502
   76MOL   H42338073   0.953   5.188   4.211  0.2484 -0.1043 -0.3867
   76MOL   H42438074   0.773   5.116   4.059  0.8141  0.1572  0.7676
   76MOL   H42538075   0.664   5.085   4.190  0.9464 -0.6782  1.3516
   76MOL   H42638076   0.718   5.244   4.178 -0.2686  0.6951 -0.0893
   76MOL   C42738077   1.267   4.403   4.336  0.4028  0.6828 -0.0330
   76MOL   C42838078   1.286   4.448   4.484  1.1724  0.1794 -0.2755
   76MOL   O42938079   1.168   4.402   4.551 -0.0635 -0.2438  0.1689
   76MOL   C43038080   1.150   4.459   4.681  0.4015 -0.6295  0.0691
   76MOL   C43138081   0.996   4.451   4.702  0.0311  0.1637  0.1292
   76MOL   C43238082   0.929   4.563   4.624 -0.4821  0.0121 -0.6586
   76MOL   C43338083   0.780   4.585   4.633  0.0682  0.0104  0.2437
   76MOL   C43438084   0.719   4.685   4.535 -0.1319 -0.3774 -0.0277
   76MOL   C43538085   0.669   4.618   4.406 -0.3252  0.1125 -0.3230
   76MOL   H43638086   1.257   4.295   4.339  1.7079  0.5810  1.0905
   76MOL   H43738087   1.367   4.392   4.296 -0.0409  0.0639 -0.9993
   76MOL   H43838088   1.290   4.557   4.492  0.0265  0.1075  1.9151
   76MOL   H43938089   1.180   4.564   4.677  1.4651 -0.9239  0.0984
   76MOL   H44038090   1.203   4.398   4.754 -2.6189 -1.2258  1.8275
   76MOL   H44138091   0.967   4.467   4.806 -3.3636 -0.4486 -0.6925
   76MOL   H44238092   0.953   4.356   4.670  1.3749  0.0926 -1.5000
   76MOL   H44338093   0.971   4.663   4.637  0.2342 -0.2230 -1.1227
   76MOL   H44438094   0.960   4.540   4.522  2.0362 -0.0311  0.0663
   76MOL   H44538095   0.729   4.489   4.628  0.3753 -0.2066  1.1387
   76MOL   H44638096   0.747   4.626   4.729  1.8973  2.0994  0.0100
   76MOL   H44738097   0.634   4.734   4.583 -0.0573  0.4383 -0.7145
   76MOL   H44838098   0.785   4.769   4.513 -0.1959 -0.1212  0.7528
   76MOL   H44938099   0.583   4.555   4.427  0.0148  0.3880  1.9681
   76MOL   H45038100   0.638   4.690   4.330  0.3995  0.5218 -0.2342
   76MOL   H45138101   0.740   4.556   4.351  0.2173 -0.2937  0.8178
   76MOL   C45238102   1.421   4.395   4.547 -0.0018 -1.0902  0.2492
   76MOL   C45338103   1.544   4.494   4.540  0.0242  0.6181  0.2851
   76MOL   O45438104   1.565   4.530   4.406  0.1640  0.5678 -0.2764
   76MOL   C45538105   1.569   4.668   4.370  0.7508 -0.7004 -0.0312
   76MOL   C45638106   1.552   4.682   4.215  0.0200 -0.0897 -0.5193
   76MOL   C45738107   1.663   4.615   4.138  0.0656  0.5761 -0.4847
   76MOL   C45838108   1.641   4.603   3.988 -0.0784  1.1210 -0.0125
   76MOL   C45938109   1.673   4.733   3.907  0.1556  0.5473 -0.6810
   76MOL   C46038110   1.671   4.728   3.752  0.1305  0.3488 -0.0406
   76MOL   H46138111   1.407   4.369   4.652 -0.8364  0.9152  0.6494
   76MOL   H46238112   1.447   4.306   4.490 -2.3074 -0.5293 -1.7750
   76MOL   H46338113   1.520   4.587   4.591  2.5643  2.4801 -1.7800
   76MOL   H46438114   1.667   4.706   4.397  0.4407 -0.4557  0.7696
   76MOL   H46538115   1.501   4.734   4.424  2.0330  1.9448 -1.6090
   76MOL   H46638116   1.525   4.780   4.176 -1.2878  0.2831  1.2449
   76MOL   H46738117   1.455   4.634   4.204  0.0882  0.2782 -2.8814
   76MOL   H46838118   1.754   4.672   4.154  1.4424 -1.4625 -0.8881
   76MOL   H46938119   1.662   4.516   4.184  0.5124  1.3564  1.2272
   76MOL   H47038120   1.685   4.512   3.948  1.4084  2.1197 -0.6821
   76MOL   H47138121   1.537   4.579   3.967  0.5141 -0.9973 -0.5825
   76MOL   H47238122   1.617   4.818   3.945  0.6794  0.9768 -0.8533
   76MOL   H47338123   1.777   4.763   3.922  0.6093 -0.9201 -0.8001
   76MOL   H47438124   1.569   4.726   3.714 -0.6246  1.6017  1.8480
   76MOL   H47538125   1.714   4.822   3.717 -1.9480  1.4748  0.3759
   76MOL   H47638126   1.727   4.640   3.721  0.6528 -0.1565  2.1928
   76MOL   C47738127   1.676   4.441   4.593 -0.8474  0.0735 -0.0202
   76MOL   C47838128   1.678   4.393   4.748 -0.0121  0.5406  0.0996
   76MOL   O47938129   1.778   4.455   4.825  0.1656  0.0680  0.2806
   76MOL   C48038130   1.789   4.403   4.957 -0.0857 -0.2023  0.3876
   76MOL   C48138131   1.858   4.512   5.037 -0.6614  0.7763 -0.6306
   76MOL   C48238132   2.006   4.535   4.997 -0.2424 -0.0259  0.1447
   76MOL   C48338133   2.086   4.609   5.100 -0.0590 -0.0178  0.0122
   76MOL   C48438134   2.226   4.647   5.047 -0.2721 -0.4297 -0.4896
   76MOL   C48538135   2.209   4.751   4.940 -0.0733 -0.0677  0.3437
   76MOL   H48638136   1.710   4.357   4.532  0.5116  0.1900  0.5527
   76MOL   H48738137   1.755   4.516   4.584 -1.0783  0.3581  0.3085
   76MOL   H48838138   1.584   4.418   4.798 -0.9692 -0.3825 -1.2041
   76MOL   H48938139   1.844   4.309   4.954  1.0451  0.4703 -0.4498
   76MOL   H49038140   1.695   4.394   5.011 -0.5474  1.0170 -0.1804
   76MOL   H49138141   1.867   4.467   5.137 -4.1384  0.8021 -0.2439
   76MOL   H49238142   1.811   4.610   5.045  0.8981  1.5299 -0.4242
   76MOL   H49338143   2.052   4.437   4.983  1.0273  0.1068  2.9332
   76MOL   H49438144   2.010   4.583   4.899 -0.6384  3.1257  1.6085
   76MOL   H49538145   2.035   4.704   5.114  0.1488 -0.0475  1.0452
   76MOL   H49638146   2.097   4.559   5.196 -1.7433 -0.0803  0.1902
   76MOL   H49738147   2.295   4.692   5.119 -0.1371 -1.0376 -0.2324
   76MOL   H49838148   2.284   4.566   5.002 -0.9123 -0.6851 -0.8586
   76MOL   H49938149   2.306   4.780   4.901  0.4097 -0.6883  1.0623
   76MOL   H50038150   2.156   4.714   4.853  1.8618 -2.4577  0.1362
   76MOL   H50138151   2.165   4.843   4.979  1.6887  1.0348 -0.2450
   76MOL   H50238152   1.689   4.285   4.738 -1.2276  0.4401 -0.2096
   77MOL     C138153   0.387   5.851   1.590  0.2413  0.1196  0.1652
   77MOL     C238154   0.305   5.955   1.513  0.4016  0.4660  0.2402
   77MOL     O338155   0.310   5.918   1.374 -0.5505 -0.2847  0.1256
   77MOL     C438156   0.200   5.849   1.331  0.3727 -0.2023  0.5830
   77MOL     C538157   0.221   5.793   1.184  0.2255 -0.0622  0.2668
   77MOL     C638158   0.128   5.672   1.154  0.0557 -0.0079 -0.6787
   77MOL     C738159   7.751   5.698   1.195  0.3040  0.0809  0.1320
   77MOL     C838160   7.666   5.591   1.127 -0.0289  0.0695 -0.7221
   77MOL     C938161   7.695   5.442   1.167  0.9810 -0.8149 -0.2858
   77MOL    H1038162   0.342   5.757   1.560  3.0707 -0.5344 -2.2007
   77MOL    H1138163   0.490   5.858   1.557  0.2744  0.8880  0.4097
   77MOL    H1238164   0.205   5.949   1.555  0.9049 -0.3353  1.3637
   77MOL    H1338165   0.117   5.918   1.345 -0.5690 -1.4851  1.3941
   77MOL    H1438166   0.186   5.770   1.406  0.7891  1.1883  2.1575
   77MOL    H1538167   0.321   5.754   1.166 -0.8915 -1.8177 -2.4192
   77MOL    H1638168   0.198   5.868   1.108  2.2156 -0.6705 -0.9712
   77MOL    H1738169   0.121   5.626   1.055 -1.6732  0.1805 -0.6552
   77MOL    H1838170   0.168   5.593   1.219  0.5026  0.5833 -0.2289
   77MOL    H1938171   7.734   5.704   1.303 -2.4179  0.5596 -0.2931
   77MOL    H2038172   7.716   5.796   1.164 -1.4914 -1.2097 -2.0676
   77MOL    H2138173   7.685   5.599   1.020  2.0817  3.2152 -0.1746
   77MOL    H2238174   7.561   5.613   1.145 -0.4585 -0.3872 -2.5775
   77MOL    H2338175   0.010   5.416   1.115 -0.1435  2.0322 -4.0223
   77MOL    H2438176   7.725   5.420   1.269 -0.6980 -3.4512 -0.3026
   77MOL    H2538177   7.614   5.378   1.131 -0.8016  0.4862  1.3217
   77MOL    H2638178   0.380   5.858   1.699 -0.5849 -2.3237  0.2932
   77MOL    C2738179   0.364   6.092   1.514 -0.1893 -0.2398  0.0483
   77MOL    C2838180   0.387   6.144   1.661  0.1351 -0.4030  0.2399
   77MOL    O2938181   0.435   6.275   1.645 -0.3803 -0.2033 -0.3569
   77MOL    C3038182   0.578   6.296   1.635 -0.4011  0.0991  0.5092
   77MOL    C3138183   0.589   6.445   1.674  0.0436  0.8628 -0.0488
   77MOL    C3238184   0.733   6.495   1.690 -0.5221  1.2924 -0.1925
   77MOL    C3338185   0.745   6.641   1.734 -0.8966  0.3955 -0.4078
   77MOL    C3438186   0.893   6.683   1.767  1.0944 -0.7757  0.0811
   77MOL    C3538187   0.891   6.795   1.865 -0.2801 -0.8588 -0.0159
   77MOL    H3638188   0.461   6.075   1.466 -1.0296 -1.2870 -1.3065
   77MOL    H3738189   0.320   6.168   1.449  0.2131 -0.3529 -0.3593
   77MOL    H3838190   0.454   6.078   1.716  0.4463  2.4492  3.4134
   77MOL    H3938191   0.617   6.267   1.537 -0.1615  0.5472  0.4719
   77MOL    H4038192   0.636   6.243   1.711  1.0847  0.5894 -0.2771
   77MOL    H4138193   0.529   6.448   1.765 -2.8912 -0.1200 -1.8642
   77MOL    H4238194   0.537   6.508   1.601 -0.3268  0.9206  0.2652
   77MOL    H4338195   0.779   6.436   1.769 -2.1989  1.4638  0.9347
   77MOL    H4438196   0.787   6.480   1.597 -0.7957  0.8882 -0.2879
   77MOL    H4538197   0.703   6.709   1.660  3.2837  2.7630 -0.7709
   77MOL    H4638198   0.678   6.649   1.819 -0.1484 -2.8276  0.5651
   77MOL    H4738199   0.943   6.600   1.816 -0.9154 -1.4385  1.0767
   77MOL    H4838200   0.940   6.728   1.679  1.6111 -1.1581  0.1647
   77MOL    H4938201   0.878   6.893   1.819  1.3280 -0.0286  1.2055
   77MOL    H5038202   0.813   6.784   1.940 -1.0974 -0.7932 -0.8511
   77MOL    H5138203   0.978   6.783   1.930  0.1892 -1.0472 -0.6686
   77MOL    C5238204   0.253   6.158   1.735 -0.0385 -0.8316  0.4495
   77MOL    C5338205   0.249   6.248   1.860  0.2983 -0.2816  0.5435
   77MOL    O5438206   0.111   6.281   1.876  0.3027 -0.8431 -0.4185
   77MOL    C5538207   0.067   6.400   1.810 -0.5875  0.1271  0.1482
   77MOL    C5638208   7.696   6.388   1.777 -0.2049  0.1766 -0.6445
   77MOL    C5738209   7.645   6.495   1.683  0.1153  0.6496 -0.5206
   77MOL    C5838210   7.494   6.487   1.667  0.1579  0.9118  0.1696
   77MOL    C5938211   7.401   6.558   1.773 -0.4110 -0.6980 -0.1187
   77MOL    C6038212   7.259   6.506   1.746 -0.6448 -0.3857 -0.5787
   77MOL    H6138213   0.220   6.063   1.777 -2.6142  1.3369  3.5657
   77MOL    H6238214   0.172   6.189   1.668  1.4637  2.3579  0.0153
   77MOL    H6338215   0.310   6.338   1.846  0.5026 -0.5466 -0.3308
   77MOL    H6438216   0.120   6.421   1.717  2.3398  0.6837  1.8898
   77MOL    H6538217   0.090   6.481   1.879  1.6674 -0.4962  0.1489
   77MOL    H6638218   7.636   6.392   1.869  0.6205  2.3179 -0.1713
   77MOL    H6738219   7.674   6.291   1.733  0.5781  0.1799 -1.0424
   77MOL    H6838220   7.666   6.597   1.714 -0.9203  0.0294  2.3358
   77MOL    H6938221   7.692   6.487   1.585 -1.6410 -1.7434 -1.1894
   77MOL    H7038222   7.462   6.522   1.569  0.4352  1.1842  0.1774
   77MOL    H7138223   7.470   6.380   1.662  0.8911  0.7531 -0.0581
   77MOL    H7238224   7.437   6.531   1.872  1.0970  0.1473 -0.4147
   77MOL    H7338225   7.414   6.664   1.749 -0.1336 -0.9793 -1.2492
   77MOL    H7438226   7.250   6.400   1.767  1.8084 -0.5483 -0.2971
   77MOL    H7538227   7.183   6.547   1.813  0.2066 -0.1927  0.2627
   77MOL    H7638228   7.233   6.527   1.642 -0.9722  1.4448 -0.1469
   77MOL    C7738229   0.302   6.180   1.990 -0.5577  0.3889 -0.0244
   77MOL    C7838230   0.337   6.284   2.107  0.0559 -0.1639  0.3308
   77MOL    O7938231   0.474   6.317   2.112  0.3175  0.4912 -0.0781
   77MOL    C8038232   0.524   6.416   2.021 -0.4190  0.2724 -0.6842
   77MOL    C8138233   0.641   6.495   2.085  0.5025  0.6889  0.1975
   77MOL    C8238234   0.578   6.614   2.173 -0.7043  0.5553  0.2429
   77MOL    C8338235   0.677   6.714   2.232  0.0516 -0.1974 -1.0158
   77MOL    C8438236   0.597   6.836   2.281  0.6180 -0.2463 -0.0488
   77MOL    C8538237   0.669   6.959   2.325  0.0635  0.4132  0.0745
   77MOL    H8638238   0.396   6.133   1.959 -0.8256 -2.0610  2.7111
   77MOL    H8738239   0.231   6.102   2.018 -2.7516  1.3298 -2.7248
   77MOL    H8838240   0.286   6.375   2.076  1.1135  1.1040  2.2424
   77MOL    H8938241   0.454   6.489   1.981 -2.3921  0.1979  2.4444
   77MOL    H9038242   0.562   6.359   1.937 -0.9190  1.4013 -1.6986
   77MOL    H9138243   0.690   6.547   2.003 -0.5981  0.0852 -0.8457
   77MOL    H9238244   0.717   6.432   2.132  0.0684 -0.0285 -0.0601
   77MOL    H9338245   0.504   6.668   2.113 -0.1022  0.2130 -0.8130
   77MOL    H9438246   0.514   6.568   2.248  0.9697  1.5388  2.3368
   77MOL    H9538247   0.735   6.670   2.313  2.0951  1.9704 -1.2638
   77MOL    H9638248   0.744   6.747   2.153  0.5482  0.6007 -0.2744
   77MOL    H9738249   0.530   6.878   2.206  1.3997 -0.1524 -0.6958
   77MOL    H9838250   0.531   6.804   2.362  1.9405 -0.2401  1.0619
   77MOL    H9938251   0.723   6.998   2.239  2.5822  0.5580  1.6536
   77MOL   H10038252   0.599   7.036   2.357  1.5049  0.9141  2.1577
   77MOL   H10138253   0.742   6.942   2.404 -1.7380 -3.9736  0.9736
   77MOL   C10238254   0.309   6.214   2.242 -0.2039 -0.8301  0.5916
   77MOL   C10338255   0.294   6.311   2.363 -0.1377  0.3244  0.3967
   77MOL   O10438256   0.190   6.399   2.326 -0.0338  0.0726  0.1005
   77MOL   C10538257   0.222   6.531   2.317 -0.2034 -0.5631 -0.1280
   77MOL   C10638258   0.098   6.609   2.276 -0.1728  0.3349  0.2451
   77MOL   C10738259   7.763   6.606   2.383  0.3024  0.2450  0.1869
   77MOL   C10838260   7.630   6.666   2.331 -0.4710 -0.6065  0.4768
   77MOL   C10938261   7.631   6.816   2.323 -0.1190 -0.4441 -1.0295
   77MOL   C11038262   7.615   6.892   2.452 -0.0280 -0.3316 -0.2636
   77MOL   H11138263   0.218   6.156   2.231  0.6979 -2.4699  1.5210
   77MOL   H11238264   0.386   6.139   2.262  1.4034  1.1636  2.1209
   77MOL   H11338265   0.383   6.370   2.381 -0.8946  1.2203  1.3009
   77MOL   H11438266   0.293   6.551   2.237 -0.3049  2.4201  0.4782
   77MOL   H11538267   0.268   6.558   2.413 -0.1972  3.0927 -1.1060
   77MOL   H11638268   0.052   6.571   2.185 -1.2562 -1.1121  1.3793
   77MOL   H11738269   0.129   6.713   2.266  1.3105 -0.0968  0.2168
   77MOL   H11838270   7.741   6.503   2.412 -1.1613  0.5240  0.1145
   77MOL   H11938271   0.006   6.653   2.479  1.4091 -1.6469  0.9187
   77MOL   H12038272   7.616   6.627   2.230  1.4660  0.1303 -0.0930
   77MOL   H12138273   7.540   6.644   2.388  0.3316 -0.6070  1.7789
   77MOL   H12238274   7.728   6.840   2.279 -0.1727  0.8385 -0.4681
   77MOL   H12338275   7.549   6.851   2.259 -0.3800  1.9268  0.5794
   77MOL   H12438276   7.666   6.987   2.435  0.4802 -0.6720 -0.7064
   77MOL   H12538277   7.518   6.922   2.489  0.9335  0.7693  1.4297
   77MOL   H12638278   7.649   6.846   2.545 -2.3733  0.1745  0.8704
   77MOL   C12738279   0.261   6.237   2.493  0.1377 -0.2208 -0.4363
   77MOL   C12838280   0.256   6.327   2.623 -0.7816 -0.3734 -0.0455
   77MOL   O12938281   0.391   6.384   2.637  0.1346  0.1310 -0.2103
   77MOL   C13038282   0.393   6.496   2.725 -0.1434  0.0985  0.1013
   77MOL   C13138283   0.495   6.595   2.667  0.3695  0.3083  0.0015
   77MOL   C13238284   0.542   6.699   2.774  0.2936 -0.2202  0.4269
   77MOL   C13338285   0.652   6.795   2.710 -0.4973  0.5643 -0.2107
   77MOL   C13438286   0.671   6.920   2.806  0.5484  0.5875 -0.0940
   77MOL   C13538287   0.732   7.042   2.743  0.2328  0.2963 -0.3460
   77MOL   H13638288   0.168   6.184   2.473 -1.0617  1.7283 -0.2108
   77MOL   H13738289   0.338   6.160   2.499 -0.1433 -0.3559  1.9295
   77MOL   H13838290   0.174   6.397   2.606 -3.2870 -2.6498  2.2518
   77MOL   H13938291   0.432   6.466   2.822 -0.2500 -1.9205 -0.4568
   77MOL   H14038292   0.300   6.546   2.749 -1.9662 -2.1636 -1.9001
   77MOL   H14138293   0.440   6.642   2.585  0.9536  2.5852  0.8894
   77MOL   H14238294   0.582   6.546   2.624 -0.5622 -1.4601  0.0824
   77MOL   H14338295   0.456   6.764   2.789 -0.3985 -0.6778 -1.4113
   77MOL   H14438296   0.578   6.665   2.871  1.2259  0.4725  0.3344
   77MOL   H14538297   0.747   6.743   2.694 -0.9883 -0.8054  1.2654
   77MOL   H14638298   0.625   6.840   2.615  1.1720  2.5960  0.2393
   77MOL   H14738299   0.579   6.957   2.851  0.8968  0.8879  0.3833
   77MOL   H14838300   0.739   6.888   2.886  1.4026  0.6556 -0.7809
   77MOL   H14938301   0.673   7.093   2.667 -1.7273 -0.2967  0.7527
   77MOL   H15038302   0.727   7.124   2.815 -3.7301  0.4197 -0.6808
   77MOL   H15138303   0.831   7.033   2.697  0.9116 -1.0750  1.3289
   77MOL   C15238304   0.211   6.253   2.747 -0.0552 -0.1125  0.1051
   77MOL   C15338305   0.060   6.213   2.745 -0.1421  0.1818 -0.3602
   77MOL   O15438306   0.039   6.098   2.653  0.4462 -0.4969 -0.0341
   77MOL   C15538307   7.694   6.093   2.586 -0.5202 -0.9883 -0.5285
   77MOL   C15638308   7.667   5.950   2.534  0.2320  0.1986  0.5675
   77MOL   C15738309   0.005   5.913   2.433 -0.0195  1.2819 -0.0031
   77MOL   C15838310   7.751   5.822   2.322 -0.3856 -1.0343 -0.2563
   77MOL   C15938311   7.650   5.708   2.359  0.2196 -1.1152  0.9722
   77MOL   C16038312   7.627   5.614   2.240 -0.5595 -0.0124  0.0787
   77MOL   H16138313   0.270   6.165   2.773 -0.3753 -0.2081  0.5204
   77MOL   H16238314   0.218   6.328   2.826  0.0978  0.3308 -0.3261
   77MOL   H16338315   7.775   6.297   2.713 -0.6766 -0.6496 -1.5526
   77MOL   H16438316   7.691   6.164   2.504 -3.0656 -2.0447 -1.4154
   77MOL   H16538317   7.607   6.124   2.645  0.2436 -0.1791  0.1838
   77MOL   H16638318   7.564   5.931   2.505 -0.4909  2.4747  1.5071
   77MOL   H16738319   7.675   5.881   2.618  0.2865  0.1828  0.5495
   77MOL   H16838320   0.056   6.003   2.400  1.8363 -0.7007 -2.8697
   77MOL   H16938321   0.084   5.862   2.488 -3.1182 -3.9095  0.0290
   77MOL   H17038322   7.703   5.875   2.240  0.8508  0.6505  0.0749
   77MOL   H17138323   0.068   5.782   2.286 -0.8357 -1.9076 -0.4865
   77MOL   H17238324   7.681   5.664   2.453  1.6643  0.0051  1.0360
   77MOL   H17338325   7.555   5.757   2.376  1.0696  0.3791  1.5245
   77MOL   H17438326   7.594   5.665   2.149  3.3559 -0.4123 -1.6569
   77MOL   H17538327   7.720   5.567   2.209  0.1062  1.2809  0.0786
   77MOL   H17638328   7.546   5.545   2.265 -1.7699  1.5786  0.6028
   77MOL   C17738329   0.008   6.159   2.881  0.4445  0.5666  0.3436
   77MOL   C17838330   7.768   6.262   2.993  0.4326 -0.1203 -0.3724
   77MOL   O17938331   0.119   6.305   3.048  0.1516  0.1185  0.1903
   77MOL   C18038332   0.115   6.326   3.186 -0.3735  0.2636  0.6221
   77MOL   C18138333   0.236   6.406   3.249  1.0218 -0.1057  0.5064
   77MOL   C18238334   0.237   6.417   3.400 -0.1480  0.6688  0.5466
   77MOL   C18338335   0.343   6.502   3.467  0.4462 -0.0629  0.7856
   77MOL   C18438336   0.313   6.531   3.621 -0.5370  0.9831  0.9477
   77MOL   C18538337   0.407   6.629   3.687  0.4439 -0.2319  0.7688
   77MOL   H18638338   7.692   6.107   2.857  0.7670 -1.1553  2.5910
   77MOL   H18738339   0.081   6.086   2.917 -0.2882 -0.4230 -0.1546
   77MOL   H18838340   7.711   6.206   3.067 -0.2008  1.1124  0.0943
   77MOL   H18938341   0.110   6.225   3.226 -0.2877  0.7465  1.8759
   77MOL   H19038342   0.025   6.373   3.224  1.0061  2.1560  1.6553
   77MOL   H19138343   0.222   6.509   3.216 -1.0476 -0.1573  1.1578
   77MOL   H19238344   0.332   6.373   3.210  0.8995  0.8536 -0.6376
   77MOL   H19338345   0.138   6.447   3.437 -0.0580  2.0398 -0.2952
   77MOL   H19438346   0.256   6.316   3.434 -0.1989  0.5006  0.0806
   77MOL   H19538347   0.448   6.476   3.450 -0.1661 -1.5519 -0.8368
   77MOL   H19638348   0.342   6.600   3.419  0.0074  0.5360  2.0013
   77MOL   H19738349   0.212   6.571   3.628 -1.5502 -1.2559 -0.2513
   77MOL   H19838350   0.334   6.433   3.663  1.2711 -0.6534 -3.4116
   77MOL   H19938351   0.394   6.725   3.638 -0.5403 -0.4942  0.4870
   77MOL   H20038352   0.382   6.638   3.793 -2.1729  0.3151  0.1536
   77MOL   H20138353   0.509   6.594   3.670  0.9967  1.4860  0.4787
   77MOL   C20238354   7.690   6.389   2.950 -0.5326 -0.3419  0.1653
   77MOL   C20338355   7.551   6.373   2.894  0.5762 -0.1982  0.7820
   77MOL   O20438356   7.492   6.499   2.869  0.3449 -0.3291  0.3639
   77MOL   C20538357   7.543   6.553   2.745  0.5120  0.1477 -0.2360
   77MOL   C20638358   7.440   6.659   2.699 -0.0244  0.3214  0.0477
   77MOL   C20738359   7.308   6.602   2.640 -0.2410 -0.2875 -0.2166
   77MOL   C20838360   7.209   6.705   2.589  0.3732 -0.0887 -0.8194
   77MOL   C20938361   7.061   6.649   2.592  0.3126  0.4315 -0.3470
   77MOL   C21038362   6.967   6.728   2.499  0.1317  0.4185  0.7813
   77MOL   H21138363   7.687   6.442   3.046 -1.0938 -0.8412  0.4253
   77MOL   H21238364   7.749   6.449   2.881  0.8632 -1.6724  0.1850
   77MOL   H21338365   7.544   6.306   2.808 -0.2550  1.3709 -0.3874
   77MOL   H21438366   7.566   6.478   2.669  0.4894  0.4421 -0.5354
   77MOL   H21538367   7.636   6.605   2.770  0.7938  1.1306 -3.0690
   77MOL   H21638368   7.485   6.716   2.617  3.3224 -1.6402  0.4314
   77MOL   H21738369   7.427   6.733   2.778  1.6971 -1.0129  1.6182
   77MOL   H21838370   7.337   6.534   2.560  2.0049  1.3949 -0.8996
   77MOL   H21938371   7.258   6.537   2.711  0.8515 -1.0542 -0.1417
   77MOL   H22038372   7.193   6.793   2.652 -2.2407  0.4232 -2.1489
   77MOL   H22138373   7.226   6.752   2.492  0.2200  2.7895  0.4938
   77MOL   H22238374   7.064   6.543   2.570  0.7069 -0.1774  2.3809
   77MOL   H22338375   7.019   6.665   2.692 -0.9622 -0.3964 -0.7362
   77MOL   H22438376   7.024   6.739   2.406  1.0575  1.0868  1.4147
   77MOL   H22538377   6.875   6.674   2.480  0.0464  1.3177 -1.4748
   77MOL   H22638378   6.937   6.825   2.538  1.9998  1.3822 -0.1020
   77MOL   C22738379   7.455   6.304   2.991  0.2200  0.2677  0.9294
   77MOL   C22838380   7.305   6.291   2.948  0.2421 -0.4508 -0.3675
   77MOL   O22938381   7.311   6.197   2.837  0.1205  0.2450  0.1242
   77MOL   C23038382   7.205   6.210   2.737 -0.0462  0.2953 -0.1464
   77MOL   C23138383   7.255   6.119   2.623 -0.6115  0.4330  0.1314
   77MOL   C23238384   7.141   6.032   2.564 -0.5469 -0.9315  0.3696
   77MOL   C23338385   7.187   5.942   2.451  0.2186 -0.4503  0.0786
   77MOL   C23438386   7.065   5.865   2.403 -0.3424  0.7956 -0.0945
   77MOL   C23538387   7.093   5.771   2.282 -0.4469  0.3413 -0.6795
   77MOL   H23638388   7.489   6.203   3.015  1.4325  1.0764  2.7525
   77MOL   H23738389   7.466   6.353   3.088  0.6173  1.2584  0.4006
   77MOL   H23838390   7.267   6.389   2.916  0.6821 -0.2008 -0.1251
   77MOL   H23938391   7.183   6.310   2.697  4.0006  0.3783 -2.3520
   77MOL   H24038392   7.118   6.152   2.767  0.8724 -0.4398  1.1263
   77MOL   H24138393   7.329   6.048   2.659 -0.7661  0.7925  1.2042
   77MOL   H24238394   7.308   6.179   2.548 -0.1302 -2.7224 -2.1198
   77MOL   H24338395   7.072   5.990   2.637 -0.0746  2.1297  2.6794
   77MOL   H24438396   7.072   6.105   2.522  0.4502  0.9463  1.9186
   77MOL   H24538397   7.224   5.998   2.365  0.6752  0.6055  0.9470
   77MOL   H24638398   7.262   5.871   2.488 -0.3460 -0.2688  1.5900
   77MOL   H24738399   7.029   5.806   2.488 -1.0900  0.7823 -0.4235
   77MOL   H24838400   6.983   5.933   2.379 -2.0631 -0.9886  0.5551
   77MOL   H24938401   7.145   5.682   2.318 -1.9328 -0.6250 -0.8721
   77MOL   H25038402   6.997   5.755   2.231 -1.1815  1.8908  0.1763
   77MOL   H25138403   7.175   5.805   2.220  1.5836 -5.7842 -1.6744
   77MOL   C25238404   7.217   6.232   3.061 -0.3076  0.9883 -0.2680
   77MOL   C25338405   7.186   6.321   3.182  0.5618 -0.5888  0.0701
   77MOL   O25438406   7.087   6.256   3.264  0.3591  0.2941 -0.2962
   77MOL   C25538407   7.139   6.183   3.367 -0.0082  1.1539  0.0211
   77MOL   C25638408   7.041   6.096   3.441 -0.0468 -0.2591  0.0068
   77MOL   C25738409   6.955   6.177   3.536  0.2681  1.0565  0.7957
   77MOL   C25838410   6.882   6.096   3.642  0.3512  0.7512  0.5720
   77MOL   C25938411   6.927   6.120   3.784  0.0361  0.3452 -0.5225
   77MOL   C26038412   7.073   6.072   3.807  0.7620 -0.5500  0.3789
   77MOL   H26138413   7.127   6.188   3.017  0.3755 -1.7460  0.9591
   77MOL   H26238414   7.268   6.144   3.101  0.1870  1.4593  0.1441
   77MOL   H26338415   7.282   6.337   3.231  0.9070 -2.9032  0.1947
   77MOL   H26438416   7.192   6.246   3.438  1.2211 -0.8409  0.9143
   77MOL   H26538417   7.211   6.110   3.330 -2.0396  0.3729 -2.5482
   77MOL   H26638418   7.092   6.011   3.486  0.0557  0.0530  0.4803
   77MOL   H26738419   6.990   6.049   3.357  0.7715  0.6014 -0.9840
   77MOL   H26838420   7.026   6.246   3.583 -1.4080  3.7943 -0.5983
   77MOL   H26938421   6.890   6.241   3.477 -0.5604  0.8174  1.4288
   77MOL   H27038422   6.778   6.124   3.624  0.5828  1.3333  0.1192
   77MOL   H27138423   6.900   5.992   3.617  2.4122  1.2312 -0.0838
   77MOL   H27238424   6.920   6.226   3.810 -2.7833  0.2576 -0.8275
   77MOL   H27338425   6.870   6.059   3.854  0.7497 -1.3515 -1.4091
   77MOL   H27438426   7.100   6.096   3.910 -0.5227  0.4978  0.4887
   77MOL   H27538427   7.091   5.966   3.787  1.7570 -0.4309  0.6101
   77MOL   H27638428   7.139   6.123   3.737  0.9103 -0.4578  0.5850
   77MOL   C27738429   7.117   6.448   3.128 -0.6085 -0.0594  0.3503
   77MOL   C27838430   7.201   6.571   3.157  0.5274  0.1875  0.4604
   77MOL   O27938431   7.141   6.678   3.079 -0.1278 -0.1696  0.2273
   77MOL   C28038432   7.226   6.720   2.971 -1.1597  0.1392 -0.3571
   77MOL   C28138433   7.164   6.857   2.928  0.0519  0.8549 -0.1771
   77MOL   C28238434   7.184   6.960   3.031  0.5975  0.3464  0.3276
   77MOL   C28338435   7.128   7.095   2.995  0.1476  0.0973  0.0917
   77MOL   C28438436   7.161   7.201   3.104  0.2901 -0.7082  1.1698
   77MOL   C28538437   7.074   7.327   3.082 -0.2294 -0.2742  0.8089
   77MOL   H28638438   7.073   6.437   3.029  0.2206  0.3743 -0.0719
   77MOL   H28738439   7.024   6.464   3.182 -0.9641  1.3404 -0.6518
   77MOL   H28838440   7.304   6.550   3.128  0.7281  3.1677 -1.1254
   77MOL   H28938441   7.215   6.653   2.886 -0.4986 -0.5118  0.0735
   77MOL   H29038442   7.332   6.725   2.994 -1.4357  0.1573  1.0044
   77MOL   H29138443   7.056   6.843   2.915 -0.2338  2.9406 -0.1730
   77MOL   H29238444   7.194   6.891   2.829  1.5260 -0.4779 -0.1986
   77MOL   H29338445   7.133   6.917   3.117 -0.4725 -0.3942 -0.6700
   77MOL   H29438446   7.286   6.970   3.068  0.5560  3.6774 -0.2823
   77MOL   H29538447   7.142   7.125   2.891  1.0365 -1.4199 -0.2495
   77MOL   H29638448   7.021   7.083   3.010  0.3978 -1.8851  0.4716
   77MOL   H29738449   7.130   7.160   3.201 -1.7196 -1.4281  0.2611
   77MOL   H29838450   7.268   7.220   3.101  0.1536 -0.1975 -0.9689
   77MOL   H29938451   7.126   7.386   3.006 -3.2856  1.8222  0.2502
   77MOL   H30038452   6.969   7.312   3.056 -0.4341  0.7154  1.0395
   77MOL   H30138453   7.081   7.382   3.176 -0.6018  0.0856  0.6279
   77MOL   C30238454   7.188   6.594   3.313 -0.5045  0.3592  0.6210
   77MOL   C30338455   7.292   6.690   3.372  0.0653 -0.4400 -0.5300
   77MOL   O30438456   7.406   6.613   3.356  0.1404  0.0661  0.0323
   77MOL   C30538457   7.535   6.679   3.340  0.7598  0.0051 -0.3310
   77MOL   C30638458   7.543   6.740   3.201 -1.3163  0.4492  0.6901
   77MOL   C30738459   7.685   6.781   3.157  0.8767  0.2714 -0.3189
   77MOL   C30838460   7.684   6.838   3.006  0.8371 -0.8952 -0.0446
   77MOL   C30938461   0.050   6.863   2.947  0.5755 -0.1261 -0.5620
   77MOL   C31038462   0.152   6.748   2.955  0.0591 -0.7756 -0.3024
   77MOL   H31138463   7.088   6.630   3.336  0.2352  1.6395  1.9816
   77MOL   H31238464   7.201   6.504   3.372  0.0480 -1.6319 -2.4198
   77MOL   H31338465   7.295   6.782   3.312 -1.6213 -1.5289 -2.3482
   77MOL   H31438466   7.615   6.607   3.353  1.7064  0.8164 -1.4930
   77MOL   H31538467   7.553   6.757   3.414 -1.5177 -0.6960  1.0276
   77MOL   H31638468   7.492   6.836   3.212 -2.8528  0.0953 -2.6420
   77MOL   H31738469   7.509   6.678   3.117  3.8736 -0.3084 -0.9959
   77MOL   H31838470   7.743   6.843   3.226 -1.1721  1.6512  0.2298
   77MOL   H31938471   7.724   6.680   3.156 -0.6286 -0.3345  0.6015
   77MOL   H32038472   7.629   6.761   2.952 -0.7040 -0.0412  0.2772
   77MOL   H32138473   7.628   6.932   3.008  1.1204 -0.7407  2.8439
   77MOL   H32238474   0.041   6.880   2.840 -1.5311  0.5102 -0.3073
   77MOL   H32338475   0.104   6.943   2.998  0.7970 -0.5284 -0.1658
   77MOL   H32438476   0.232   6.766   2.883 -2.2525  0.3410 -2.6761
   77MOL   H32538477   0.198   6.731   3.053  0.1523 -1.2611 -0.4287
   77MOL   H32638478   0.101   6.658   2.921  0.4917 -0.6005 -1.4510
   77MOL   C32738479   7.281   6.730   3.517 -0.6361 -0.0819 -0.1983
   77MOL   C32838480   7.164   6.823   3.551 -0.0832  0.6890 -0.3444
   77MOL   O32938481   7.155   6.850   3.693 -0.8191  0.1327 -0.3259
   77MOL   C33038482   7.035   6.813   3.766  0.1019  0.0371 -0.4156
   77MOL   C33138483   7.015   6.657   3.780  0.6532  0.8914 -0.1548
   77MOL   C33238484   7.123   6.606   3.870 -0.0184  0.5934 -1.1373
   77MOL   C33338485   7.114   6.452   3.886 -0.1995 -0.5067 -0.1255
   77MOL   C33438486   7.178   6.400   4.022 -0.1359  0.2312  0.8671
   77MOL   C33538487   7.126   6.451   4.146  0.0025 -0.0229  0.1140
   77MOL   H33638488   7.367   6.795   3.536  1.0593 -2.3614  0.0544
   77MOL   H33738489   7.270   6.644   3.583  3.8354 -0.4241  0.2490
   77MOL   H33838490   7.073   6.763   3.537  1.3898 -2.1904  1.7895
   77MOL   H33938491   6.950   6.856   3.713  0.0198  0.4383  0.0480
   77MOL   H34038492   7.047   6.877   3.853  0.1236 -0.7550  0.1690
   77MOL   H34138493   7.020   6.606   3.683  0.0291  0.5029  0.0172
   77MOL   H34238494   6.915   6.644   3.820  0.2732  1.0839 -1.0087
   77MOL   H34338495   7.216   6.642   3.825 -0.3669  2.7850 -0.1541
   77MOL   H34438496   7.096   6.663   3.959 -1.9862 -1.7758 -0.1726
   77MOL   H34538497   7.011   6.415   3.887 -0.0526 -0.8969  0.6172
   77MOL   H34638498   7.142   6.407   3.791  0.9788  0.1119 -0.0774
   77MOL   H34738499   7.167   6.292   4.021 -4.2422  0.5906  0.4672
   77MOL   H34838500   7.287   6.411   4.021 -0.0880  0.0240  2.4595
   77MOL   H34938501   7.151   6.557   4.153 -0.8275  0.3637 -2.3304
   77MOL   H35038502   7.017   6.449   4.140 -0.1279  1.6613  1.4793
   77MOL   H35138503   7.173   6.394   4.226  1.4189  1.0250  0.0521
   77MOL   C35238504   7.148   6.953   3.476 -0.8709  0.1343  0.7774
   77MOL   C35338505   7.254   7.055   3.504 -0.1572  0.4397 -0.5109
   77MOL   O35438506   7.200   7.187   3.490  0.7421  0.0948 -0.4538
   77MOL   C35538507   7.145   7.239   3.611 -0.0710 -0.5357 -0.5061
   77MOL   C35638508   7.056   7.366   3.586  0.0706  1.0403  0.0204
   77MOL   C35738509   6.926   7.329   3.510  0.3535 -0.8848  0.1404
   77MOL   C35838510   6.866   7.465   3.455 -0.6442  0.1054  0.1781
   77MOL   C35938511   6.730   7.455   3.387 -0.0135  0.0929 -0.9651
   77MOL   C36038512   6.697   7.582   3.305 -0.7974 -0.0638 -0.3793
   77MOL   H36138513   7.130   6.936   3.369  1.8883 -0.3289  0.3293
   77MOL   H36238514   7.056   6.996   3.515 -1.4933  1.0637 -1.6060
   77MOL   H36338515   7.299   7.043   3.602  3.4385 -0.3895 -2.1786
   77MOL   H36438516   7.222   7.268   3.683 -2.1574  1.8626  0.8482
   77MOL   H36538517   7.096   7.163   3.672  1.9468 -1.8627 -0.4825
   77MOL   H36638518   7.117   7.447   3.546  1.6763 -1.2590 -2.3030
   77MOL   H36738519   7.029   7.415   3.680 -2.9086  1.1670 -0.8715
   77MOL   H36838520   6.956   7.284   3.415  2.3109  1.1033 -0.2236
   77MOL   H36938521   6.870   7.253   3.563 -1.6332  0.9923  0.8118
   77MOL   H37038522   6.864   7.529   3.543 -1.2277 -0.7148  0.7754
   77MOL   H37138523   6.939   7.506   3.385 -0.7394 -0.1475 -0.0713
   77MOL   H37238524   6.733   7.381   3.307  3.2187 -1.2468  0.3034
   77MOL   H37338525   6.651   7.432   3.459 -1.8648 -1.5978 -3.4174
   77MOL   H37438526   6.679   7.670   3.367  1.6597 -1.1627  1.9995
   77MOL   H37538527   6.779   7.608   3.238  2.0273 -4.7687  0.9872
   77MOL   H37638528   6.605   7.563   3.250 -0.1426  1.3417 -2.0022
   77MOL   C37738529   7.377   7.055   3.404 -0.6000  0.0486 -0.0785
   77MOL   C37838530   7.469   7.174   3.407 -0.0173  0.1305 -0.0801
   77MOL   O37938531   7.568   7.158   3.308 -0.2089 -0.6470  0.3422
   77MOL   C38038532   7.620   7.279   3.254 -0.8338  0.5204 -0.2755
   77MOL   C38138533   7.758   7.244   3.189 -0.1209 -0.1704 -0.3492
   77MOL   C38238534   0.065   7.366   3.154  0.3377 -0.1286  0.0995
   77MOL   C38338535   0.190   7.312   3.073  0.7285  0.1942 -0.5213
   77MOL   C38438536   0.296   7.412   3.049 -0.4072  0.2955  0.1728
   77MOL   C38538537   0.420   7.380   2.960  0.2506  0.5018 -0.7319
   77MOL   H38638538   7.431   6.965   3.435  2.5319  1.6391 -0.7386
   77MOL   H38738539   7.336   7.035   3.305 -0.9564  1.9444 -0.3369
   77MOL   H38838540   7.414   7.266   3.385 -0.6811  0.2816  2.0814
   77MOL   H38938541   7.632   7.352   3.333 -0.4650 -2.3663  2.4581
   77MOL   H39038542   7.554   7.319   3.177  0.1138  1.3115 -0.6859
   77MOL   H39138543   7.732   7.200   3.092 -0.3529 -0.6478 -0.0710
   77MOL   H39238544   0.036   7.181   3.259 -0.7176  0.5136  0.7331
   77MOL   H39338545   0.008   7.439   3.097 -0.8347 -0.9928  0.1502
   77MOL   H39438546   0.102   7.408   3.248  1.4133  2.7901 -1.5406
   77MOL   H39538547   0.246   7.231   3.119  0.2494 -0.5559 -1.2422
   77MOL   H39638548   0.173   7.249   2.985 -0.8425 -0.8562  0.4946
   77MOL   H39738549   0.247   7.486   2.986 -1.7049 -0.6000  0.1064
   77MOL   H39838550   0.321   7.454   3.146  0.3217 -0.7380  0.4333
   77MOL   H39938551   0.483   7.469   2.967  1.0444 -0.1345  0.5215
   77MOL   H40038552   0.485   7.305   3.006 -0.7543  1.6793  2.7853
   77MOL   H40138553   0.398   7.368   2.854 -0.8245 -1.7060 -0.2967
   77MOL   C40238554   7.536   7.199   3.542  0.0672  0.1030 -0.5076
   77MOL   C40338555   7.607   7.079   3.608 -0.0672  0.8689 -0.0828
   77MOL   O40438556   7.648   7.118   3.739 -0.3141  0.3099  1.0601
   77MOL   C40538557   7.571   7.055   3.840  0.1385 -0.4190  0.4740
   77MOL   C40638558   7.627   7.103   3.975 -0.1273  0.5882  0.0533
   77MOL   C40738559   7.561   7.028   4.097 -0.7086  0.1036 -0.1580
   77MOL   C40838560   7.637   7.062   4.229 -0.1283 -0.5758 -0.2751
   77MOL   C40938561   7.580   6.986   4.349 -0.6702  0.0262 -0.4772
   77MOL   C41038562   7.642   7.047   4.483  0.6318  0.5372  0.8902
   77MOL   H41138563   7.461   7.237   3.612  0.1873 -0.2712 -0.1776
   77MOL   H41238564   7.607   7.281   3.540  0.4811 -0.1447  1.9362
   77MOL   H41338565   7.549   6.986   3.604  2.3314 -0.6721 -0.0929
   77MOL   H41438566   7.584   6.947   3.841 -0.2594 -0.5271 -2.0577
   77MOL   H41538567   7.465   7.066   3.816  0.7815 -0.4475 -2.5959
   77MOL   H41638568   7.602   7.209   3.982  0.5386  0.9066 -1.9532
   77MOL   H41738569   7.735   7.088   3.973 -0.5960 -3.3419 -0.1479
   77MOL   H41838570   7.455   7.047   4.110 -0.7099 -0.6053  0.8818
   77MOL   H41938571   7.562   6.920   4.081 -0.8532  0.1777 -0.6806
   77MOL   H42038572   7.743   7.044   4.211  0.0828 -0.3164  0.6860
   77MOL   H42138573   7.645   7.169   4.249  4.1052 -0.9109  0.2049
   77MOL   H42238574   7.472   6.978   4.345 -0.6004 -0.7730 -0.9783
   77MOL   H42338575   7.624   6.886   4.344  0.4395  0.5811 -2.5114
   77MOL   H42438576   7.750   7.039   4.476  0.3574 -1.1243 -2.7323
   77MOL   H42538577   7.614   7.150   4.506  0.7508  1.0994 -1.3840
   77MOL   H42638578   7.604   6.978   4.558  0.2826 -0.2983 -0.0461
   77MOL   C42738579   7.731   7.033   3.533 -0.0580  0.3157  0.1856
   77MOL   C42838580   0.049   6.944   3.622  0.3518 -0.0679 -0.1959
   77MOL   O42938581   7.746   6.835   3.658 -0.0440  0.1159 -0.2561
   77MOL   C43038582   0.009   6.767   3.778 -0.5748  0.5131  0.2540
   77MOL   C43138583   7.680   6.659   3.804  0.2983 -0.2704 -0.6236
   77MOL   C43238584   7.653   6.560   3.682  0.6956  0.0244 -0.5693
   77MOL   C43338585   7.551   6.457   3.727  0.4678  0.9311 -0.5330
   77MOL   C43438586   7.541   6.331   3.633 -0.0511  0.1494 -0.3173
   77MOL   C43538587   7.426   6.232   3.671  0.3314  0.2682 -0.3923
   77MOL   H43638588   7.716   6.983   3.437 -1.4225 -1.0635  1.0793
   77MOL   H43738589   7.775   7.126   3.498  1.3444 -0.1772  0.6218
   77MOL   H43838590   0.080   7.002   3.709 -1.1002 -0.9014  0.8791
   77MOL   H43938591   0.011   6.842   3.857  0.9754  0.3413  0.3866
   77MOL   H44038592   0.112   6.732   3.785 -1.7684 -2.8904  1.7176
   77MOL   H44138593   7.586   6.710   3.823  0.7847  0.8740 -1.2371
   77MOL   H44238594   7.706   6.599   3.891  0.6134 -2.2126 -2.0078
   77MOL   H44338595   7.604   6.616   3.603  0.2653 -0.9272 -0.9870
   77MOL   H44438596   7.738   6.501   3.646  0.9754  0.3330 -0.4211
   77MOL   H44538597   7.572   6.430   3.831  0.0514  1.5092 -0.2983
   77MOL   H44638598   7.451   6.500   3.737 -0.1590 -0.6699  0.3187
   77MOL   H44738599   7.519   6.359   3.530  1.1860 -0.4118 -0.7437
   77MOL   H44838600   7.632   6.271   3.639  0.8895  1.7784  2.7918
   77MOL   H44938601   7.412   6.143   3.610 -1.6143  0.9101 -0.9260
   77MOL   H45038602   7.434   6.196   3.774  0.1664 -1.1729 -0.8646
   77MOL   H45138603   7.331   6.286   3.668  0.8068  1.0821 -0.7969
   77MOL   C45238604   0.170   6.897   3.542 -0.8082  0.8490 -0.0532
   77MOL   C45338605   0.270   7.008   3.504 -0.3790  0.5568 -0.1635
   77MOL   O45438606   0.363   6.965   3.400  0.0523 -0.1902  0.5164
   77MOL   C45538607   0.313   6.957   3.268 -0.1923 -0.1816 -0.3506
   77MOL   C45638608   0.421   6.948   3.158 -0.4161 -0.2634 -0.2785
   77MOL   C45738609   0.509   7.081   3.151 -0.4286 -0.6561 -0.6860
   77MOL   C45838610   0.631   7.092   3.245 -0.3479 -0.5548  0.6821
   77MOL   C45938611   0.695   7.227   3.225  0.1525  0.2575  0.2909
   77MOL   C46038612   0.635   7.334   3.315  0.6005  0.2725 -0.0208
   77MOL   H46138613   0.228   6.825   3.599 -0.1968  0.2807 -1.3636
   77MOL   H46238614   0.132   6.854   3.448  1.7930 -0.8027 -0.3912
   77MOL   H46338615   0.211   7.095   3.475  1.5907  1.7816 -0.5920
   77MOL   H46438616   0.260   7.051   3.250 -1.1653 -0.8354 -0.9093
   77MOL   H46538617   0.241   6.876   3.263  1.8337 -2.1407  1.6350
   77MOL   H46638618   0.386   6.930   3.056  2.2314 -3.1534 -0.7467
   77MOL   H46738619   0.484   6.862   3.180  3.2026  2.4840  0.7621
   77MOL   H46838620   0.539   7.088   3.046  2.3489  0.3327  0.1438
   77MOL   H46938621   0.436   7.162   3.158 -0.0510 -0.4638  1.2762
   77MOL   H47038622   0.615   7.071   3.351  0.4580  1.2556  1.1955
   77MOL   H47138623   0.705   7.017   3.218 -0.7570 -0.1037 -1.7911
   77MOL   H47238624   0.801   7.230   3.253  0.7396 -1.0209 -1.6591
   77MOL   H47338625   0.700   7.262   3.122  1.5657 -2.2241 -0.5474
   77MOL   H47438626   0.530   7.347   3.290  0.6427 -1.5815 -1.2874
   77MOL   H47538627   0.648   7.307   3.419  1.0390  0.7152  0.0427
   77MOL   H47638628   0.688   7.428   3.297  2.1103 -0.7912 -1.3317
   77MOL   C47738629   0.352   7.038   3.628  0.2370 -0.6194 -0.1824
   77MOL   C47838630   0.420   7.178   3.622 -0.3433  0.3941  0.2199
   77MOL   O47938631   0.495   7.210   3.740  0.0943  0.2072 -0.8074
   77MOL   C48038632   0.542   7.351   3.736 -0.1736  0.1107  0.7245
   77MOL   C48138633   0.428   7.454   3.749 -0.3610  0.4778 -0.5177
   77MOL   C48238634   0.353   7.419   3.873 -0.5457 -0.2072  1.0025
   77MOL   C48338635   0.251   7.536   3.904  0.3550 -0.6018  0.3842
   77MOL   C48438636   0.181   7.520   4.044 -0.0383  0.3994 -0.5068
   77MOL   C48538637   0.101   7.387   4.078 -0.1696 -0.2960  0.0620
   77MOL   H48638638   0.288   7.040   3.716 -0.7635  3.1916 -0.8892
   77MOL   H48738639   0.428   6.964   3.650 -0.1584 -0.5118  1.6028
   77MOL   H48838640   0.494   7.167   3.542  0.2986  2.5566  0.4873
   77MOL   H48938641   0.594   7.365   3.641 -2.0418  1.6918 -0.0816
   77MOL   H49038642   0.612   7.372   3.816  2.9894  0.6400 -2.0644
   77MOL   H49138643   0.366   7.450   3.660  3.1783 -2.0063 -3.0056
   77MOL   H49238644   0.455   7.559   3.760  1.1690 -0.1678  2.5738
   77MOL   H49338645   0.310   7.319   3.883  2.5213 -1.8994 -1.9176
   77MOL   H49438646   0.424   7.428   3.955  3.0610 -1.5672 -1.8613
   77MOL   H49538647   0.292   7.636   3.891 -1.1528  0.5632  3.9364
   77MOL   H49638648   0.172   7.528   3.828  0.6197  1.1084 -0.0973
   77MOL   H49738649   0.251   7.533   4.127  1.2488 -1.6479 -1.2291
   77MOL   H49838650   0.124   7.611   4.064 -0.2682  0.0243  0.5950
   77MOL   H49938651   0.030   7.366   3.998 -0.8467  1.3072  0.2181
   77MOL   H50038652   0.169   7.303   4.090  0.1401 -0.0960 -0.2803
   77MOL   H50138653   0.041   7.404   4.167 -2.3347 -2.5699 -0.9158
   77MOL   H50238654   0.353   7.259   3.594 -1.7624  0.7013  4.2202
   78MOL     C138655   5.311   7.309   4.615  0.5707  0.2537  0.3530
   78MOL     C238656   5.278   7.307   4.464 -0.1282  0.5122  0.1413
   78MOL     O338657   5.199   7.192   4.431  0.1951  0.0625  0.0471
   78MOL     C438658   5.144   7.195   4.299  0.9447  0.3774 -0.3451
   78MOL     C538659   5.010   7.265   4.327 -0.2980 -0.2813 -0.1770
   78MOL     C638660   4.935   7.320   4.208 -0.1356  0.5719  0.2621
   78MOL     C738661   4.792   7.381   4.241  0.5787  0.3652  0.2461
   78MOL     C838662   4.798   7.494   4.343 -0.0101  0.3586 -0.1551
   78MOL     C938663   4.883   7.606   4.289  0.2390  0.5202  0.5325
   78MOL    H1038664   5.232   7.349   4.678  0.7853  0.8790  0.2296
   78MOL    H1138665   5.325   7.207   4.649 -0.7536  0.5319  1.7592
   78MOL    H1238666   5.221   7.397   4.441  1.3572  1.5686  0.5328
   78MOL    H1338667   5.127   7.092   4.265 -0.8153  0.4499  0.2336
   78MOL    H1438668   5.207   7.247   4.227  1.5035  0.0038 -0.1282
   78MOL    H1538669   5.022   7.354   4.388 -0.6195  1.9846 -3.3409
   78MOL    H1638670   4.948   7.194   4.383 -1.7401 -0.5996 -2.1473
   78MOL    H1738671   5.002   7.391   4.159  0.2404  1.2974  1.7921
   78MOL    H1838672   4.927   7.239   4.135  1.5307  1.2412 -0.7151
   78MOL    H1938673   4.743   7.416   4.151  0.6652 -1.8613 -0.6969
   78MOL    H2038674   4.741   7.287   4.266 -1.7231  1.5278  0.0512
   78MOL    H2138675   4.839   7.463   4.439  1.4784  0.5176 -0.7252
   78MOL    H2238676   4.702   7.533   4.379 -0.8773 -3.2532  1.6634
   78MOL    H2338677   4.986   7.570   4.298  0.3493  0.8770  0.6800
   78MOL    H2438678   4.861   7.623   4.184  0.2251  1.0330  0.6194
   78MOL    H2538679   4.873   7.694   4.352  1.1477  0.0392  1.3638
   78MOL    H2638680   5.407   7.354   4.640  0.9563 -1.1140  1.3833
   78MOL    C2738681   5.419   7.313   4.386 -0.4847 -0.6638  0.4761
   78MOL    C2838682   5.463   7.458   4.363 -0.4606  0.3507  0.1940
   78MOL    O2938683   5.604   7.453   4.349  0.0843  0.5130 -0.7933
   78MOL    C3038684   5.675   7.484   4.466 -0.2913 -0.2774  0.3086
   78MOL    C3138685   5.811   7.424   4.455  0.0514  0.4757 -0.3305
   78MOL    C3238686   5.900   7.443   4.574  0.2461  0.1059  0.6585
   78MOL    C3338687   6.052   7.413   4.541  0.2280 -0.8109 -1.0771
   78MOL    C3438688   6.141   7.412   4.665 -0.1808  0.3125  0.2404
   78MOL    C3538689   6.124   7.303   4.770  0.0258 -0.4599 -0.4447
   78MOL    H3638690   5.491   7.266   4.453 -1.3671 -0.8825  1.2734
   78MOL    H3738691   5.411   7.261   4.291 -0.3135  0.9501 -0.4363
   78MOL    H3838692   5.442   7.517   4.453 -2.0723  0.3139 -0.1467
   78MOL    H3938693   5.625   7.432   4.548  0.3152  0.3332  1.0677
   78MOL    H4038694   5.666   7.589   4.493  0.9450  0.0258 -0.4221
   78MOL    H4138695   5.855   7.449   4.358 -0.6609  1.8048 -0.3195
   78MOL    H4238696   5.793   7.317   4.457 -1.8036  0.7916  0.5895
   78MOL    H4338697   5.901   7.541   4.622  1.5145  0.4173  0.0171
   78MOL    H4438698   5.865   7.372   4.649  0.8049  0.6760  1.4725
   78MOL    H4538699   6.066   7.317   4.492 -1.2568 -0.1465 -2.8484
   78MOL    H4638700   6.094   7.492   4.479  0.2198 -1.3934 -1.8252
   78MOL    H4738701   6.242   7.401   4.626  0.6683 -0.9966  2.6688
   78MOL    H4838702   6.146   7.510   4.712  0.3107 -0.7199  2.3922
   78MOL    H4938703   6.220   7.290   4.820  0.7202  0.7756 -1.4481
   78MOL    H5038704   6.053   7.331   4.848 -0.1317  0.6657 -0.9888
   78MOL    H5138705   6.095   7.204   4.733 -1.2647 -0.4586  0.5391
   78MOL    C5238706   5.407   7.517   4.228  0.7102  0.6603 -0.2033
   78MOL    C5338707   5.447   7.662   4.192 -0.2606  0.1005  0.2683
   78MOL    O5438708   5.418   7.694   4.054  0.2289  0.4162  0.1753
   78MOL    C5538709   5.516   7.651   3.961 -0.2032  0.4624 -0.4489
   78MOL    C5638710   5.462   7.687   3.821  0.0517 -0.2924  0.1977
   78MOL    C5738711   5.426   0.055   3.798  0.2696 -0.3452  0.5038
   78MOL    C5838712   5.349   0.095   3.659 -0.3277 -0.4866 -0.2845
   78MOL    C5938713   5.293   0.235   3.660 -0.9493  0.7971  0.1690
   78MOL    C6038714   5.210   0.267   3.534  0.3489 -0.4007 -0.8484
   78MOL    H6138715   5.298   7.514   4.236  0.8586  0.2966  1.9185
   78MOL    H6238716   5.431   7.443   4.152  1.0744  2.2758 -1.6875
   78MOL    H6338717   5.556   7.666   4.198 -0.2582 -2.2773  2.2352
   78MOL    H6438718   5.553   7.549   3.966  2.1135  1.3075  0.1948
   78MOL    H6538719   5.602   7.711   3.992  0.3591  0.0113 -1.1244
   78MOL    H6638720   5.371   7.628   3.813  1.1832 -1.9029 -1.2258
   78MOL    H6738721   5.536   7.653   3.749 -0.4181  0.1203 -0.4992
   78MOL    H6838722   5.370   0.095   3.883  1.7656  1.4707  0.6510
   78MOL    H6938723   5.522   0.105   3.802 -0.1568  0.7547 -2.0377
   78MOL    H7038724   5.417   0.077   3.576 -0.6226 -0.7958 -0.4606
   78MOL    H7138725   5.270   0.020   3.651 -0.3955 -0.9118  3.4804
   78MOL    H7238726   5.236   0.262   3.749 -1.4291  3.0797 -0.7984
   78MOL    H7338727   5.378   0.303   3.664  0.6475 -1.0621 -1.1236
   78MOL    H7438728   5.273   0.251   3.446  0.6516  2.4910 -1.2089
   78MOL    H7538729   5.133   0.190   3.524  1.1493 -1.1204 -1.5710
   78MOL    H7638730   5.156   0.361   3.524 -0.9042 -1.0938 -0.6843
   78MOL    C7738731   5.387   7.768   4.289  0.3674 -1.6364  0.2505
   78MOL    C7838732   5.479   0.111   4.303 -0.6099 -0.4195 -0.2942
   78MOL    O7938733   5.583   0.060   4.380 -0.6062 -0.0323  0.4263
   78MOL    C8038734   5.712   0.126   4.375  0.7956  0.9655  0.3277
   78MOL    C8138735   5.786   0.096   4.248  0.3369  0.3374 -0.1491
   78MOL    C8238736   5.860   7.737   4.268  0.6632  0.1440 -0.3741
   78MOL    C8338737   5.946   7.709   4.144 -0.5164 -0.4482 -0.2356
   78MOL    C8438738   5.875   7.648   4.023  0.5274  0.5219 -0.8111
   78MOL    C8538739   5.972   7.582   3.921  0.5403  0.2257 -0.1958
   78MOL    H8638740   5.358   7.733   4.388  0.0297 -2.0037  0.0198
   78MOL    H8738741   5.291   0.024   4.252  0.2004 -0.5937  1.5925
   78MOL    H8838742   5.508   0.154   4.207 -0.5059 -0.9397 -0.4982
   78MOL    H8938743   5.779   0.090   4.452  0.1301 -1.1829 -0.0618
   78MOL    H9038744   5.701   0.233   4.397 -1.3292  0.7400  0.4741
   78MOL    H9138745   5.865   0.169   4.232  1.0854 -0.5991 -0.8002
   78MOL    H9238746   5.712   0.092   4.169  0.0861 -0.1475  0.1129
   78MOL    H9338747   5.920   7.724   4.358  0.2160 -0.9451 -0.2182
   78MOL    H9438748   5.788   7.655   4.281 -0.9146  1.0259 -3.1042
   78MOL    H9538749   6.005   0.018   4.111 -1.1665 -0.1795 -0.7119
   78MOL    H9638750   6.027   7.648   4.184 -0.2598 -0.3733 -0.6364
   78MOL    H9738751   5.803   7.580   4.068  1.7327 -0.3368 -0.1529
   78MOL    H9838752   5.815   7.726   3.976 -0.0517  0.3299 -0.3820
   78MOL    H9938753   5.929   7.504   3.857  1.2703  0.6412 -1.2178
   78MOL   H10038754   6.019   7.654   3.854  0.7173 -1.5836 -2.0742
   78MOL   H10138755   6.056   7.531   3.968 -0.7237 -0.7872  0.9904
   78MOL   C10238756   5.428   0.237   4.374  0.5154 -0.2986  0.0585
   78MOL   C10338757   5.276   0.263   4.356 -0.6813 -0.3809  0.5018
   78MOL   O10438758   5.203   0.179   4.447  0.1733 -0.1577  0.1043
   78MOL   C10538759   5.065   0.175   4.442  0.3721 -0.7523 -0.1931
   78MOL   C10638760   5.003   0.098   4.567 -0.5809 -0.1223  0.0595
   78MOL   C10738761   5.014   0.178   4.697  0.1921  0.1494  0.6989
   78MOL   C10838762   4.999   0.098   4.835 -0.4068  0.3992 -0.7933
   78MOL   C10938763   5.001   0.179   4.963 -0.1697 -0.1577  0.0788
   78MOL   C11038764   5.131   0.265   4.972  0.2214 -0.0675 -0.3381
   78MOL   H11138765   5.436   0.226   4.482 -1.0125 -0.1104  0.2031
   78MOL   H11238766   5.480   0.330   4.350 -0.6673  0.3224 -0.1423
   78MOL   H11338767   5.236   0.236   4.259 -2.5251 -0.3213  1.2297
   78MOL   H11438768   5.037   0.120   4.351 -1.5982  0.2961 -0.2511
   78MOL   H11538769   5.017   0.273   4.433  1.4826 -0.0060  1.8415
   78MOL   H11638770   5.064   0.007   4.567 -0.6529 -0.1719  0.0097
   78MOL   H11738771   4.899   0.070   4.548  0.1284 -1.5019 -2.0052
   78MOL   H11838772   5.100   0.245   4.689 -2.1792  3.1503 -0.6275
   78MOL   H11938773   4.935   0.252   4.687 -0.0122  0.0165  1.3311
   78MOL   H12038774   4.906   0.041   4.823 -0.3959  0.4645 -1.2053
   78MOL   H12138775   5.081   0.027   4.836  0.2767  1.1646 -1.4151
   78MOL   H12238776   4.905   0.230   4.965  0.0563  0.2716  0.2542
   78MOL   H12338777   5.001   0.105   5.042  1.0921 -1.3193 -0.9841
   78MOL   H12438778   5.133   0.329   5.060 -4.0249 -1.0214  0.5951
   78MOL   H12538779   5.222   0.205   4.971  0.5237  0.2885  2.2064
   78MOL   H12638780   5.140   0.327   4.883  0.9695 -0.0347 -0.2426
   78MOL   C12738781   5.240   0.404   4.409  0.2061  0.6600 -0.4740
   78MOL   C12838782   5.255   0.503   4.295  0.5107  0.0762 -0.3400
   78MOL   O12938783   5.299   0.626   4.349  0.4617 -0.3110  0.2639
   78MOL   C13038784   5.432   0.661   4.356 -0.3277 -0.1393  0.0279
   78MOL   C13138785   5.444   0.786   4.447 -0.2804  0.0765  0.2844
   78MOL   C13238786   5.399   0.914   4.377  0.0117 -0.0398  0.1079
   78MOL   C13338787   5.404   1.037   4.472 -0.5736  0.4308  0.5762
   78MOL   C13438788   5.551   1.069   4.512 -0.0985  0.3581  0.4797
   78MOL   C13538789   5.579   1.201   4.587  0.3289  0.3864  0.9265
   78MOL   H13638790   5.145   0.413   4.460  1.5197 -1.4278  2.4683
   78MOL   H13738791   5.307   0.422   4.493  1.9932 -1.8531 -1.2678
   78MOL   H13838792   5.338   0.470   4.233  1.3247 -0.1568  0.8642
   78MOL   H13938793   5.462   0.673   4.252 -0.9385 -2.1729 -0.4046
   78MOL   H14038794   5.500   0.581   4.384  1.0144  0.1381 -2.3285
   78MOL   H14138795   5.544   0.799   4.488 -1.0888  0.9792  2.0175
   78MOL   H14238796   5.374   0.772   4.529 -3.3207  2.5371 -1.7394
   78MOL   H14338797   5.460   0.932   4.288  0.1840 -0.4602  0.1394
   78MOL   H14438798   5.304   0.892   4.329  0.2790 -0.7096 -0.1207
   78MOL   H14538799   5.366   1.129   4.426  2.8038  0.7070 -1.8545
   78MOL   H14638800   5.349   1.015   4.563  0.4840 -0.0297  1.1100
   78MOL   H14738801   5.584   0.982   4.568  0.2299  0.5124  0.5263
   78MOL   H14838802   5.616   1.079   4.425 -1.7036 -0.8830 -0.8907
   78MOL   H14938803   5.510   1.199   4.671 -1.1845 -0.5948 -0.3088
   78MOL   H15038804   5.679   1.221   4.626  0.3458  1.6170  0.2591
   78MOL   H15138805   5.565   1.293   4.531 -0.1875 -1.1340 -1.5170
   78MOL   C15238806   5.119   0.529   4.217 -0.5897  0.2368 -0.6825
   78MOL   C15338807   5.140   0.564   4.071  0.2965  0.1144 -0.1655
   78MOL   O15438808   5.011   0.551   4.007 -0.0353  0.0644 -0.3000
   78MOL   C15538809   4.985   0.420   3.961  0.2112  0.0835  0.4377
   78MOL   C15638810   4.837   0.400   3.928 -0.6281  0.0424 -0.0836
   78MOL   C15738811   4.731   0.412   4.039  0.0941 -0.1025 -0.1935
   78MOL   C15838812   4.606   0.319   4.031 -0.1744  0.5456  1.1177
   78MOL   C15938813   4.508   0.354   4.146 -0.4030  0.0934 -0.4457
   78MOL   C16038814   4.380   0.270   4.144 -0.1340 -0.2926 -0.1792
   78MOL   H16138815   5.071   0.431   4.215 -0.6426  0.2564 -0.2928
   78MOL   H16238816   5.054   0.599   4.270  2.1384  1.7100  0.8328
   78MOL   H16338817   5.215   0.496   4.030  2.0872  0.6782  2.0255
   78MOL   H16438818   5.019   0.348   4.035 -0.5175 -0.7559 -0.0302
   78MOL   H16538819   5.042   0.397   3.871  0.4042  3.6818 -0.4422
   78MOL   H16638820   4.834   0.303   3.880 -0.9485 -0.3206  0.6624
   78MOL   H16738821   4.808   0.458   3.841 -0.8323  1.1084  0.6745
   78MOL   H16838822   4.772   0.407   4.139 -0.3016 -0.9076 -0.0609
   78MOL   H16938823   4.696   0.515   4.032  0.8139  0.2416  1.2261
   78MOL   H17038824   4.562   0.336   3.933  0.1243 -1.2438  0.6595
   78MOL   H17138825   4.635   0.214   4.035  0.7602  0.5925 -2.7711
   78MOL   H17238826   4.548   0.328   4.244 -1.6189 -0.7033 -0.1512
   78MOL   H17338827   4.488   0.461   4.151 -3.9987 -0.6050  1.1929
   78MOL   H17438828   4.314   0.294   4.228  0.4767 -0.0366  0.2305
   78MOL   H17538829   4.323   0.284   4.052 -2.0748 -0.2770  0.9965
   78MOL   H17638830   4.397   0.163   4.155 -1.7874 -0.4410  1.1603
   78MOL   C17738831   5.192   0.711   4.056 -0.7983  0.1171 -0.0952
   78MOL   C17838832   5.219   0.757   3.909 -0.2968 -0.0946  0.1533
   78MOL   O17938833   5.275   0.887   3.923  0.5188 -0.0236 -0.3346
   78MOL   C18038834   5.182   0.992   3.918 -0.3748 -0.9480  0.5255
   78MOL   C18138835   5.252   1.125   3.956 -0.3475  0.2967  0.5578
   78MOL   C18238836   5.299   1.137   4.093  0.1650 -0.1500 -0.3311
   78MOL   C18338837   5.360   1.271   4.126 -0.9732  0.1423 -0.5286
   78MOL   C18438838   5.270   1.393   4.114 -0.0444 -0.8283 -0.1599
   78MOL   C18538839   5.342   1.522   4.151  0.6172 -0.7044 -0.2233
   78MOL   H18638840   5.124   0.780   4.107 -0.0872  0.7250  0.0315
   78MOL   H18738841   5.289   0.720   4.103 -0.4660 -0.8555 -0.5932
   78MOL   H18838842   5.124   0.758   3.857 -0.6979 -3.0152  0.7439
   78MOL   H18938843   5.097   0.986   3.986 -1.9277 -0.9080 -1.3834
   78MOL   H19038844   5.145   0.995   3.816 -1.0610  0.1790  0.8012
   78MOL   H19138845   5.183   1.207   3.936  1.6908  1.6248 -1.3051
   78MOL   H19238846   5.329   1.150   3.883  0.2715  1.6549  1.6508
   78MOL   H19338847   5.217   1.127   4.164  0.4122  3.8232  0.6464
   78MOL   H19438848   5.360   1.054   4.130 -0.1380  0.8092  2.4833
   78MOL   H19538849   5.403   1.262   4.226  1.8959 -1.0605 -1.8127
   78MOL   H19638850   5.444   1.283   4.057 -1.0305  1.1613 -0.4321
   78MOL   H19738851   5.231   1.391   4.012 -1.3200 -1.8826  0.3255
   78MOL   H19838852   5.190   1.373   4.186 -0.0773 -1.7056 -0.4390
   78MOL   H19938853   5.267   1.598   4.172  1.1002 -0.1962 -0.3374
   78MOL   H20038854   5.393   1.496   4.244 -0.0061 -2.2305 -0.2991
   78MOL   H20138855   5.414   1.555   4.076  0.3661 -1.4960 -0.8134
   78MOL   C20238856   5.326   0.680   3.826  0.1205 -0.2024  0.0712
   78MOL   C20338857   5.344   0.706   3.676 -0.4078  0.4167 -0.1917
   78MOL   O20438858   5.240   0.637   3.605  0.0748 -0.1918  0.6221
   78MOL   C20538859   5.136   0.724   3.569 -0.1498 -0.1221  0.7395
   78MOL   C20638860   5.012   0.634   3.570 -0.2020  0.5980  0.0819
   78MOL   C20738861   4.899   0.671   3.480  0.0700  0.0517  0.1139
   78MOL   C20838862   4.766   0.599   3.513 -0.8306  0.5845 -0.3126
   78MOL   C20938863   4.784   0.449   3.538 -0.4725  0.7013 -0.2124
   78MOL   C21038864   4.651   0.369   3.528  0.5525  0.2644  0.6097
   78MOL   H21138865   5.418   0.693   3.883  0.3255  0.1967 -0.3438
   78MOL   H21238866   5.303   0.574   3.824  1.6868 -0.5376 -0.7193
   78MOL   H21338867   5.346   0.815   3.669  1.2020  0.3989 -0.3525
   78MOL   H21438868   5.158   0.752   3.466  0.7151 -0.5937  0.7927
   78MOL   H21538869   5.128   0.812   3.633  0.4859 -0.2552  1.0120
   78MOL   H21638870   4.982   0.644   3.674 -1.3080 -0.3470 -0.1314
   78MOL   H21738871   5.039   0.531   3.548  2.0529  0.6217  2.4633
   78MOL   H21838872   4.880   0.777   3.459  2.1352  0.3090 -0.5646
   78MOL   H21938873   4.935   0.644   3.381  1.9788 -1.6655  1.2255
   78MOL   H22038874   4.723   0.643   3.602  2.4788  0.2476  1.5265
   78MOL   H22138875   4.688   0.606   3.437 -0.6730 -0.0063 -0.5307
   78MOL   H22238876   4.864   0.408   3.476 -1.0322 -0.3462 -0.2548
   78MOL   H22338877   4.817   0.442   3.642 -0.9430  1.0071 -0.0460
   78MOL   H22438878   4.576   0.404   3.599 -0.3401  0.2091 -0.3011
   78MOL   H22538879   4.608   0.393   3.431 -2.3398  2.0559  2.2637
   78MOL   H22638880   4.653   0.261   3.542 -1.4336  0.0391 -0.6948
   78MOL   C22738881   5.477   0.642   3.612  0.6886  0.9835 -0.3522
   78MOL   C22838882   5.595   0.733   3.609  0.0576 -0.2136  0.2001
   78MOL   O22938883   5.636   0.732   3.745  0.1764  0.2283  0.0271
   78MOL   C23038884   5.636   0.855   3.814  0.4963 -0.0632 -0.1143
   78MOL   C23138885   5.712   0.843   3.944 -0.9367  0.1145  0.4246
   78MOL   C23238886   5.743   0.972   4.034 -0.5181 -0.3900 -0.3662
   78MOL   C23338887   5.801   0.942   4.175 -0.2090  0.5051 -0.6951
   78MOL   C23438888   5.871   1.060   4.244 -0.1750 -0.7108  0.5406
   78MOL   C23538889   5.916   1.025   4.391 -0.3439  0.3851 -0.3270
   78MOL   H23638890   5.508   0.539   3.632  0.7754  0.9751 -0.5352
   78MOL   H23738891   5.450   0.631   3.507  1.1044 -1.3755 -0.2585
   78MOL   H23838892   5.582   0.835   3.574  0.6339 -0.6683 -1.3689
   78MOL   H23938893   5.544   0.912   3.826  0.0936 -0.4255 -1.3700
   78MOL   H24038894   5.691   0.930   3.757 -2.2348  1.1903 -1.1892
   78MOL   H24138895   5.814   0.809   3.928 -0.1479  1.7339  1.8995
   78MOL   H24238896   5.653   0.777   4.007  1.1136  0.2084  2.5149
   78MOL   H24338897   5.803   1.046   3.980 -2.3476  1.7298  0.4221
   78MOL   H24438898   5.647   1.021   4.052  0.6326  1.5081  0.7965
   78MOL   H24538899   5.716   0.908   4.233  0.7134 -0.2865  0.2154
   78MOL   H24638900   5.873   0.861   4.166  0.3351  0.7984  0.8397
   78MOL   H24738901   5.952   1.099   4.183  1.2508 -4.0339  0.2106
   78MOL   H24838902   5.791   1.132   4.257  1.3039  1.0643  0.0130
   78MOL   H24938903   5.967   0.929   4.388 -0.6278  0.1972  0.5008
   78MOL   H25038904   5.988   1.095   4.433 -1.5301  0.3256  1.9032
   78MOL   H25138905   5.826   1.017   4.453  0.7269 -1.6847  0.9967
   78MOL   C25238906   5.709   0.670   3.523  0.6665  0.8621  0.5555
   78MOL   C25338907   5.816   0.771   3.478 -0.6152 -0.1199  0.6154
   78MOL   O25438908   5.770   0.829   3.360 -0.2857  0.1522 -0.3505
   78MOL   C25538909   5.824   0.955   3.320 -0.4260  0.0728  0.2472
   78MOL   C25638910   5.742   1.030   3.211 -0.0708 -0.4932  0.5631
   78MOL   C25738911   5.726   0.955   3.084  0.2053  0.0610 -0.2435
   78MOL   C25838912   5.649   1.034   2.978 -0.1431 -0.4030  0.3012
   78MOL   C25938913   5.654   0.970   2.841 -0.1038  0.6945 -0.5425
   78MOL   C26038914   5.523   0.886   2.832  0.1176 -0.0242 -0.1496
   78MOL   H26138915   5.741   0.583   3.580  0.1559  0.7695  0.7069
   78MOL   H26238916   5.666   0.625   3.433 -0.6109  1.4855  0.8441
   78MOL   H26338917   5.820   0.851   3.552  0.4670  0.0836  0.3421
   78MOL   H26438918   5.927   0.932   3.291 -0.1980 -0.6736  1.6339
   78MOL   H26538919   5.840   1.020   3.406  0.3656 -1.6994  1.4612
   78MOL   H26638920   5.786   1.129   3.199 -0.5458 -0.2634  0.6834
   78MOL   H26738921   5.641   1.045   3.251 -0.6069  2.9672 -1.8372
   78MOL   H26838922   5.823   0.952   3.034  1.1676 -2.3352  1.6524
   78MOL   H26938923   5.686   0.856   3.104 -1.6688  1.2024  1.9406
   78MOL   H27038924   5.549   1.071   3.000 -0.0410 -0.3033  0.6001
   78MOL   H27138925   5.703   1.129   2.974  2.5807 -1.9614 -0.7027
   78MOL   H27238926   5.650   1.049   2.766  1.8854 -1.4268 -2.9859
   78MOL   H27338927   5.752   0.927   2.819 -0.6174 -1.5528  1.4752
   78MOL   H27438928   5.434   0.939   2.866  0.2921  0.2685 -0.1463
   78MOL   H27538929   5.506   0.838   2.735 -0.3948  1.6515 -0.9184
   78MOL   H27638930   5.530   0.799   2.897 -0.2558  0.3272  0.3690
   78MOL   C27738931   5.961   0.707   3.453  0.4065  0.3075  0.8447
   78MOL   C27838932   6.021   0.632   3.576  0.2404  0.3724 -0.0656
   78MOL   O27938933   6.154   0.588   3.537 -0.1977  0.1045  0.2510
   78MOL   C28038934   6.195   0.469   3.615 -0.2878 -0.5454 -0.8217
   78MOL   C28138935   6.347   0.445   3.605  0.4930  0.6303 -0.0543
   78MOL   C28238936   6.383   0.402   3.460  0.4186 -0.6806  0.3387
   78MOL   C28338937   6.526   0.378   3.434 -0.0444  0.3971  0.1969
   78MOL   C28438938   6.536   0.296   3.306 -0.6179 -0.4854  0.4489
   78MOL   C28538939   6.680   0.243   3.278  0.1732 -0.0228 -0.2685
   78MOL   H28638940   5.954   0.624   3.383 -2.6960  0.1591  1.2972
   78MOL   H28738941   6.033   0.774   3.405 -2.2795  0.9330 -2.5275
   78MOL   H28838942   5.961   0.544   3.599  3.3719 -1.7363  0.3088
   78MOL   H28938943   6.127   0.386   3.598  0.5302 -1.3112 -0.4458
   78MOL   H29038944   6.191   0.492   3.722 -1.3120  0.0493 -0.9802
   78MOL   H29138945   6.375   0.365   3.674 -0.3170  1.1093  0.8377
   78MOL   H29238946   6.411   0.525   3.641  2.5863 -0.5881 -0.9440
   78MOL   H29338947   6.333   0.309   3.438  0.0979 -0.4915  0.2692
   78MOL   H29438948   6.347   0.482   3.396  0.0971  1.7394  3.4211
   78MOL   H29538949   6.577   0.474   3.441 -0.7267  0.7171  0.8841
   78MOL   H29638950   6.561   0.313   3.514 -0.7088 -0.2458 -0.0277
   78MOL   H29738951   6.475   0.206   3.318 -1.2723  0.0250  0.9387
   78MOL   H29838952   6.502   0.365   3.229  1.6704 -0.4702 -0.5948
   78MOL   H29938953   6.746   0.330   3.273 -1.3271  1.1545 -0.0410
   78MOL   H30038954   6.715   0.198   3.370 -1.0691 -1.8288 -0.6678
   78MOL   H30138955   6.696   0.180   3.191 -3.2720  1.4249 -2.0570
   78MOL   C30238956   6.043   0.726   3.705  0.9682  0.0330 -0.2260
   78MOL   C30338957   6.132   0.846   3.676 -0.4106  0.4684  0.2394
   78MOL   O30438958   6.189   0.866   3.800 -0.0673  0.0304 -0.0498
   78MOL   C30538959   6.313   0.803   3.826 -0.0414 -0.1877  0.0807
   78MOL   C30638960   6.380   0.849   3.958 -0.6218 -0.4796  0.3059
   78MOL   C30738961   6.300   0.805   4.086 -0.1198 -0.7804 -0.2058
   78MOL   C30838962   6.364   0.848   4.219  0.4363  0.3589  0.0149
   78MOL   C30938963   6.274   0.839   4.335  0.3617 -0.5474  0.5047
   78MOL   C31038964   6.339   0.844   4.471 -0.0362 -0.1771 -0.3879
   78MOL   H31138965   5.944   0.753   3.742  1.3158  0.0967  0.6682
   78MOL   H31238966   6.084   0.669   3.788  1.3370  0.0674 -0.3848
   78MOL   H31338967   6.205   0.828   3.597  1.2859 -2.1813  2.3132
   78MOL   H31438968   6.380   0.827   3.743 -0.4006  2.2132  0.4475
   78MOL   H31538969   6.307   0.694   3.821 -1.8150 -0.1353  0.7310
   78MOL   H31638970   6.401   0.956   3.959  2.7283 -1.0533  3.1445
   78MOL   H31738971   6.482   0.811   3.956 -0.0274  1.0944 -0.4547
   78MOL   H31838972   6.196   0.838   4.081 -0.4764 -1.9066 -0.2979
   78MOL   H31938973   6.297   0.697   4.083 -0.7175 -0.8563  2.0294
   78MOL   H32038974   6.450   0.781   4.220 -1.7208 -2.5392 -1.4324
   78MOL   H32138975   6.411   0.946   4.214 -0.4167  0.7413 -0.7852
   78MOL   H32238976   6.193   0.912   4.333  0.0475 -0.8483  1.8372
   78MOL   H32338977   6.216   0.747   4.327  0.1837 -0.2607 -1.9519
   78MOL   H32438978   6.399   0.755   4.490  0.6314 -0.2703 -2.7510
   78MOL   H32538979   6.388   0.939   4.492  0.4245 -1.0003  2.4447
   78MOL   H32638980   6.268   0.847   4.553  0.5969  1.9283  0.1070
   78MOL   C32738981   6.062   0.984   3.643 -0.3122  0.6483 -0.3837
   78MOL   C32838982   6.168   1.091   3.608  0.2211 -0.2048  0.2470
   78MOL   O32938983   6.132   1.166   3.491 -0.1414  0.1188 -0.2292
   78MOL   C33038984   6.147   1.105   3.362 -0.4076 -0.0231 -0.6450
   78MOL   C33138985   6.274   1.154   3.284 -0.0267  0.7903 -0.0709
   78MOL   C33238986   6.245   1.288   3.218 -0.4817  0.9342 -0.1342
   78MOL   C33338987   6.375   1.356   3.170 -0.1529  1.0491 -0.3654
   78MOL   C33438988   6.353   1.481   3.087  0.0241 -0.6296 -0.7544
   78MOL   C33538989   6.284   1.599   3.157  0.1636 -0.9055  0.1277
   78MOL   H33638990   5.986   1.025   3.709 -1.3240 -1.0287 -0.4779
   78MOL   H33738991   6.013   0.948   3.552  1.1730 -1.5208 -0.3612
   78MOL   H33838992   6.260   1.037   3.586  1.2364  0.7759  1.9592
   78MOL   H33938993   6.059   1.128   3.301  0.9386  0.5709 -2.4121
   78MOL   H34038994   6.160   0.998   3.375  2.2482  0.3704  0.1411
   78MOL   H34138995   6.297   1.084   3.203 -0.0019 -0.1079  0.7002
   78MOL   H34238996   6.370   1.159   3.336  0.8775 -0.2864 -1.5808
   78MOL   H34338997   6.175   1.276   3.135  0.1324  0.0175 -0.5232
   78MOL   H34438998   6.199   1.352   3.293  1.0396  0.0867  1.5555
   78MOL   H34538999   6.423   1.384   3.264 -1.7248  1.6090  0.2775
   78MOL   H34639000   6.438   1.281   3.121 -3.0720 -0.3148 -2.1614
   78MOL   H34739001   6.456   1.513   3.071 -0.1537  0.1377 -0.3936
   78MOL   H34839002   6.309   1.456   2.990  0.4016 -2.6313 -0.4221
   78MOL   H34939003   6.342   1.628   3.245 -2.0387  0.7792  1.0773
   78MOL   H35039004   6.280   1.686   3.091  1.4493 -0.5772  0.4692
   78MOL   H35139005   6.182   1.583   3.192 -0.1137  1.5312  0.5513
   78MOL   C35239006   6.189   1.178   3.731 -0.1461 -0.6084 -0.0934
   78MOL   C35339007   6.304   1.280   3.710  0.0757  0.5699  0.4998
   78MOL   O35439008   6.385   1.290   3.830 -0.2877  0.1566  0.1968
   78MOL   C35539009   6.507   1.223   3.820 -0.6146  0.2846  0.1098
   78MOL   C35639010   6.549   1.221   3.963  0.0938  0.4121  0.2977
   78MOL   C35739011   6.667   1.111   3.974  0.0572 -0.6597 -0.7654
   78MOL   C35839012   6.735   1.112   4.109 -0.2890  1.1316 -0.3688
   78MOL   C35939013   6.834   0.999   4.120  0.2340  0.5330 -0.4153
   78MOL   C36039014   6.774   0.855   4.114  0.2685  0.7724 -0.6462
   78MOL   H36139015   6.092   1.220   3.756 -0.7786 -2.6957  1.0295
   78MOL   H36239016   6.208   1.118   3.820 -1.9600 -0.7216  0.2310
   78MOL   H36339017   6.360   1.249   3.622 -1.2949 -0.2389 -0.1029
   78MOL   H36439018   6.587   1.275   3.768  1.0602 -0.9946  1.3658
   78MOL   H36539019   6.501   1.123   3.779 -0.0785  0.8743 -1.4718
   78MOL   H36639020   6.467   1.191   4.028  0.7561  0.0317  0.9760
   78MOL   H36739021   6.588   1.320   3.985  0.3754 -0.0962  2.2297
   78MOL   H36839022   6.623   1.016   3.944  0.2741 -1.2111  0.6023
   78MOL   H36939023   6.751   1.129   3.908  2.3472  1.3821  2.5634
   78MOL   H37039024   6.788   1.207   4.119  1.9279 -0.2446  1.2429
   78MOL   H37139025   6.660   1.108   4.187 -0.1930 -0.3141 -0.3354
   78MOL   H37239026   6.908   1.008   4.040  0.9485  0.5895  0.2496
   78MOL   H37339027   6.886   1.008   4.215  0.5056 -2.8638 -0.1878
   78MOL   H37439028   6.719   0.838   4.022 -1.0160  0.5212  0.1511
   78MOL   H37539029   6.848   0.776   4.117  0.1914  0.5531 -3.1672
   78MOL   H37639030   6.691   0.845   4.184  2.9153 -2.6661  2.1415
   78MOL   C37739031   6.247   1.410   3.670 -0.0624 -0.2220 -0.2531
   78MOL   C37839032   6.352   1.527   3.663  0.7041  0.7502 -0.3133
   78MOL   O37939033   6.280   1.647   3.629  0.0148  0.2579  0.0572
   78MOL   C38039034   6.223   1.717   3.740  0.4476 -0.2207  0.5701
   78MOL   C38139035   6.156   1.842   3.698 -0.0389  0.3903 -0.3396
   78MOL   C38239036   6.244   1.962   3.696  0.4842  0.8573 -0.1451
   78MOL   C38339037   6.164   2.093   3.695 -0.1125  0.0904 -0.0330
   78MOL   C38439038   6.256   2.208   3.728 -0.9998  0.6063 -0.2342
   78MOL   C38539039   6.188   2.342   3.738  0.3404 -0.4613  0.0294
   78MOL   H38639040   6.184   1.393   3.582 -2.7982 -0.3044  1.6883
   78MOL   H38739041   6.181   1.435   3.753  0.3968 -1.3437  0.4573
   78MOL   H38839042   6.397   1.534   3.762 -0.0638 -1.5847  0.2394
   78MOL   H38939043   6.299   1.720   3.817 -0.2193  1.6796  1.1969
   78MOL   H39039044   6.152   1.652   3.791 -0.8816  1.0926  0.4654
   78MOL   H39139045   6.077   1.853   3.771 -0.7684  1.3653 -1.2582
   78MOL   H39239046   6.098   1.845   3.606 -1.7351  0.1501  0.7127
   78MOL   H39339047   6.305   1.969   3.786  1.3549 -3.4421 -0.2636
   78MOL   H39439048   6.322   1.960   3.620  0.4960  1.4836 -0.1488
   78MOL   H39539049   6.114   2.102   3.598  1.1364  0.5432 -0.6506
   78MOL   H39639050   6.089   2.098   3.773  1.8395  0.1546  1.8901
   78MOL   H39739051   6.314   2.195   3.819 -1.1105  0.0579 -0.2410
   78MOL   H39839052   6.330   2.208   3.647  0.0159 -2.5423  0.6234
   78MOL   H39939053   6.148   2.364   3.639 -0.5283  0.0047  0.4772
   78MOL   H40039054   6.113   2.342   3.817  2.6213  0.5646  2.2501
   78MOL   H40139055   6.252   2.425   3.766 -1.5671 -0.2121  3.8994
   78MOL   C40239056   6.459   1.495   3.561  0.5470  0.2593 -0.3267
   78MOL   C40339057   6.563   1.611   3.537  1.0771 -0.0636  0.0245
   78MOL   O40439058   6.620   1.595   3.403  0.2025  0.1302 -0.1751
   78MOL   C40539059   6.665   1.715   3.336  0.0913  0.4386 -1.2115
   78MOL   C40639060   6.717   1.690   3.193 -0.5678  0.4961  0.3717
   78MOL   C40739061   6.792   1.809   3.133  0.2477  0.0354  0.2554
   78MOL   C40839062   6.849   1.792   2.990  0.3201  0.1194  0.1896
   78MOL   C40939063   6.977   1.714   2.979  0.4326  0.1489 -0.2589
   78MOL   C41039064   7.033   1.699   2.840 -0.4381 -0.5108 -0.4295
   78MOL   H41139065   6.401   1.480   3.470  0.9145 -0.9802 -0.3640
   78MOL   H41239066   6.500   1.394   3.567 -1.8542 -0.6306  1.8149
   78MOL   H41339067   6.508   1.704   3.543 -0.3147 -0.8131 -0.8290
   78MOL   H41439068   6.737   1.766   3.400 -0.2617  0.4890 -0.8500
   78MOL   H41539069   6.576   1.777   3.330 -0.5994 -0.5381 -1.0355
   78MOL   H41639070   6.646   1.653   3.120  0.3718  0.7226 -0.6696
   78MOL   H41739071   6.786   1.605   3.195 -0.8517  0.2459 -0.4592
   78MOL   H41839072   6.715   1.884   3.116  1.4455  1.0832 -0.6549
   78MOL   H41939073   6.875   1.846   3.193  1.6847 -0.0967 -1.6031
   78MOL   H42039074   6.772   1.746   2.928  1.0627 -0.3054 -0.4140
   78MOL   H42139075   6.872   1.892   2.953 -1.3010  0.5113  0.1889
   78MOL   H42239076   7.054   1.746   3.049  1.4332 -0.4607 -1.0782
   78MOL   H42339077   6.937   1.622   3.020 -0.3155  1.2429  1.5570
   78MOL   H42439078   7.064   1.596   2.825 -2.1446 -1.0279 -0.4814
   78MOL   H42539079   6.956   1.718   2.765  0.7650 -0.6441 -1.7236
   78MOL   H42639080   7.113   1.773   2.829 -1.1281  0.1476 -1.0819
   78MOL   C42739081   6.683   1.586   3.632 -0.2992  0.2607 -0.6167
   78MOL   C42839082   6.663   1.644   3.773 -0.3010 -0.7181 -0.6798
   78MOL   O42939083   6.793   1.636   3.826 -0.1419  0.1100 -0.1769
   78MOL   C43039084   6.801   1.528   3.921 -0.0336 -0.2570  0.4227
   78MOL   C43139085   6.951   1.483   3.942  0.1028  0.6473  0.2271
   78MOL   C43239086   6.992   1.391   3.828  0.2574  0.3082 -0.0249
   78MOL   C43339087   7.037   1.460   3.699 -0.3354 -0.6911  0.1174
   78MOL   C43439088   7.104   1.360   3.603  0.2028 -0.0013  0.0633
   78MOL   C43539089   7.152   1.422   3.475 -0.3135 -0.3480 -0.8683
   78MOL   H43639090   6.712   1.481   3.632  0.7254  0.5246  1.0216
   78MOL   H43739091   6.766   1.646   3.593 -1.3151  2.6438  0.7803
   78MOL   H43839092   6.588   1.587   3.827 -0.9188 -0.8699 -1.6979
   78MOL   H43939093   6.732   1.445   3.911  0.2213 -0.7871  2.8208
   78MOL   H44039094   6.771   1.564   4.019 -1.1061 -2.2136  0.8296
   78MOL   H44139095   6.949   1.425   4.035  0.8000 -1.6739 -1.1764
   78MOL   H44239096   7.022   1.566   3.937 -0.4542  1.2448  1.8171
   78MOL   H44339097   7.081   1.351   3.876 -0.2588  0.0046  0.7032
   78MOL   H44439098   6.918   1.312   3.811 -0.5082  0.9437  0.2852
   78MOL   H44539099   6.961   1.509   3.640  1.6894  2.0895 -0.2916
   78MOL   H44639100   7.108   1.542   3.716 -0.2020 -0.4565 -1.5635
   78MOL   H44739101   7.189   1.321   3.659  1.3578  1.0856 -0.8939
   78MOL   H44839102   7.036   1.276   3.594  0.1643  0.1185 -0.7902
   78MOL   H44939103   7.256   1.448   3.491 -0.4937 -0.6110  0.8138
   78MOL   H45039104   7.154   1.348   3.394  0.9505 -0.6927 -0.5344
   78MOL   H45139105   7.099   1.512   3.443 -0.3770  0.2170  0.8135
   78MOL   C45239106   6.639   1.794   3.760  0.8673 -0.7333  0.1421
   78MOL   C45339107   6.638   1.861   3.906 -0.0075  0.6002 -0.3449
   78MOL   O45439108   6.538   1.799   3.976  0.7539 -0.1094  0.3178
   78MOL   C45539109   6.558   1.785   4.116 -0.3755 -0.2453  0.6372
   78MOL   C45639110   6.454   1.684   4.170 -0.0239  0.1124  0.3550
   78MOL   C45739111   6.477   1.536   4.136 -0.2539 -0.0944  0.4598
   78MOL   C45839112   6.360   1.455   4.170  0.4710  0.0105  0.0511
   78MOL   C45939113   6.237   1.475   4.078  0.6210  0.5607 -0.6648
   78MOL   C46039114   6.150   1.355   4.056  0.3068  0.2010 -0.3248
   78MOL   H46139115   6.720   1.844   3.707 -1.3856 -1.0286 -3.7632
   78MOL   H46239116   6.546   1.827   3.714 -0.2168 -1.5030  1.7459
   78MOL   H46339117   6.731   1.841   3.959  0.3386  1.8581 -0.4727
   78MOL   H46439118   6.561   1.883   4.164 -1.1292  1.3009 -2.3069
   78MOL   H46539119   6.656   1.746   4.142 -1.6317 -3.1145  1.2433
   78MOL   H46639120   6.354   1.716   4.143  0.2393  2.4188  1.9688
   78MOL   H46739121   6.451   1.693   4.279  4.1992 -2.1824  0.7820
   78MOL   H46839122   6.478   1.535   4.027  1.1453 -1.6410  0.4625
   78MOL   H46939123   6.572   1.490   4.166  1.6610  2.4871 -1.4117
   78MOL   H47039124   6.385   1.349   4.173  1.1737  0.1698 -0.0757
   78MOL   H47139125   6.332   1.480   4.273  0.1777 -0.4275  0.0794
   78MOL   H47239126   6.171   1.547   4.125  1.0701 -0.5925  1.8577
   78MOL   H47339127   6.267   1.515   3.981 -0.0460 -0.5775 -1.3627
   78MOL   H47439128   6.119   1.328   4.157  0.3965  0.3803 -0.2494
   78MOL   H47539129   6.059   1.395   4.012 -0.5902 -1.4124  0.0126
   78MOL   H47639130   6.192   1.264   4.012  2.3571 -0.3464  2.5483
   78MOL   C47739131   6.604   2.006   3.904  0.1462  0.6248  0.7666
   78MOL   C47839132   6.656   2.092   3.795 -0.5572 -0.2361  0.1504
   78MOL   O47939133   6.590   2.077   3.676 -0.6160  0.2389  0.0773
   78MOL   C48039134   6.629   2.171   3.577 -0.5964  0.4126  0.0302
   78MOL   C48139135   6.580   2.133   3.439 -0.5059 -0.0556  0.4600
   78MOL   C48239136   6.633   2.226   3.332 -0.2312  0.5901  0.1647
   78MOL   C48339137   6.591   2.197   3.190 -1.0364 -0.2052  0.3475
   78MOL   C48439138   6.655   2.301   3.098  0.3785  0.3151 -0.9708
   78MOL   C48539139   6.651   2.257   2.945  0.2772 -0.5452  0.2709
   78MOL   H48639140   6.496   2.024   3.910  0.0181 -0.0872  0.6561
   78MOL   H48739141   6.647   2.043   3.997  2.0347  1.2133 -0.3241
   78MOL   H48839142   6.657   2.199   3.817 -0.4733  0.5957 -3.5689
   78MOL   H48939143   6.736   2.190   3.573 -0.6826  0.8708 -0.1494
   78MOL   H49039144   6.585   2.268   3.603 -3.0492 -1.5235  3.4797
   78MOL   H49139145   6.471   2.136   3.431 -0.4505  2.1326  0.0264
   78MOL   H49239146   6.615   2.032   3.422 -0.3066  0.1987 -0.6540
   78MOL   H49339147   6.613   2.331   3.352 -0.7099  0.5384 -0.0347
   78MOL   H49439148   6.741   2.215   3.320 -0.2979  0.6576 -0.5422
   78MOL   H49539149   6.617   2.095   3.162  3.0043  0.1418  2.3542
   78MOL   H49639150   6.483   2.207   3.192 -0.9500  0.6879  0.7330
   78MOL   H49739151   6.607   2.399   3.106  1.4555  0.8302 -0.7539
   78MOL   H49839152   6.757   2.326   3.129 -0.1080 -1.1316  1.9156
   78MOL   H49939153   6.669   2.334   2.869 -1.9651  1.5945  1.8419
   78MOL   H50039154   6.714   2.171   2.921  0.1268 -0.6190  0.1425
   78MOL   H50139155   6.555   2.213   2.920  0.0536  0.7638 -1.2837
   78MOL   H50239156   6.759   2.061   3.775 -0.5574 -0.1221 -0.0266
   79MOL     C139157   0.348   0.410   7.417  0.6602  0.5159  0.4231
   79MOL     C239158   0.329   0.564   7.394 -0.2475 -0.0334  0.3825
   79MOL     O339159   0.449   0.615   7.344 -0.6443 -0.7332  0.7902
   79MOL     C439160   0.445   0.615   7.204 -0.4716  0.2316  0.6306
   79MOL     C539161   0.583   0.674   7.158 -0.0079 -0.4939  0.1209
   79MOL     C639162   0.703   0.594   7.213  0.3073  0.2012 -0.4650
   79MOL     C739163   0.843   0.662   7.175  0.2837 -0.2123 -0.2769
   79MOL     C839164   0.961   0.579   7.214 -0.4439  0.2313  0.0523
   79MOL     C939165   0.988   0.564   7.369  0.0837  0.3279  0.6048
   79MOL    H1039166   0.430   0.384   7.484 -1.0255  2.6179  3.4426
   79MOL    H1139167   0.250   0.381   7.457  0.0747  1.0714 -0.5995
   79MOL    H1239168   0.249   0.596   7.328 -0.3683  2.1086  1.5190
   79MOL    H1339169   0.370   0.681   7.160 -0.9233 -0.5057  0.2875
   79MOL    H1439170   0.439   0.514   7.163 -0.5626  0.3708  0.2986
   79MOL    H1539171   0.584   0.775   7.199  0.7767 -0.7104  0.6404
   79MOL    H1639172   0.582   0.695   7.051 -0.8656  3.1546  0.7899
   79MOL    H1739173   0.695   0.575   7.320 -0.3762 -0.4258 -0.6236
   79MOL    H1839174   0.680   0.494   7.175 -1.7710  0.1120  0.9462
   79MOL    H1939175   0.844   0.678   7.067 -0.7645 -0.3723 -0.3141
   79MOL    H2039176   0.846   0.766   7.210 -3.1344  0.3276 -1.3731
   79MOL    H2139177   1.052   0.614   7.165 -0.6241 -1.1783 -1.3204
   79MOL    H2239178   0.944   0.479   7.173 -0.7985 -0.2559  1.3589
   79MOL    H2339179   1.064   0.493   7.400 -0.7457 -1.5468 -1.5337
   79MOL    H2439180   1.027   0.658   7.407  2.9861  0.5482 -2.6696
   79MOL    H2539181   0.896   0.533   7.420 -0.6678 -2.4299 -2.2278
   79MOL    H2639182   0.360   0.355   7.323  2.5454 -0.2619  1.1023
   79MOL    C2739183   0.317   0.638   7.531  0.0360  0.5817  0.1074
   79MOL    C2839184   0.264   0.784   7.524 -0.3369  1.4080  0.9316
   79MOL    O2939185   0.130   0.750   7.511  0.0840 -0.0985  0.1370
   79MOL    C3039186   0.069   0.816   7.401 -0.0047 -0.2711  0.5059
   79MOL    C3139187   7.699   0.778   7.383 -0.3786 -0.6684  0.2361
   79MOL    C3239188   7.599   0.862   7.467 -0.4056 -0.9390 -0.0059
   79MOL    C3339189   7.632   0.865   7.616  0.7483  0.5368 -0.0618
   79MOL    C3439190   7.505   0.857   7.710 -0.3563 -0.0700  0.0200
   79MOL    C3539191   7.535   0.821   0.073  0.4737  0.4446  0.2153
   79MOL    H3639192   0.264   0.574   7.602 -1.7001  1.5709 -0.2686
   79MOL    H3739193   0.415   0.653   7.576 -0.5497  0.1203  1.5985
   79MOL    H3839194   0.305   0.842   7.441 -3.0479  0.1183 -1.3703
   79MOL    H3939195   0.124   0.802   7.308 -0.2629 -3.9728  0.8602
   79MOL    H4039196   0.068   0.923   7.422  2.1096 -0.2548  0.5632
   79MOL    H4139197   7.692   0.671   7.402  2.7221 -1.0558 -0.4659
   79MOL    H4239198   7.673   0.793   7.278  1.2599 -0.8778 -0.2147
   79MOL    H4339199   7.596   0.959   7.418 -0.0821 -0.5935  0.6507
   79MOL    H4439200   7.500   0.820   7.447 -0.8256  0.2109 -0.3955
   79MOL    H4539201   7.702   0.786   7.645  0.6666  0.7626  0.7496
   79MOL    H4639202   7.686   0.956   7.642  1.5238  0.0976 -0.0895
   79MOL    H4739203   7.448   0.949   7.697 -1.0939 -0.3678  1.0172
   79MOL    H4839204   7.447   0.779   7.660  1.3509 -0.5654 -1.2418
   79MOL    H4939205   7.457   0.812   0.149 -1.1056 -0.4738 -1.4563
   79MOL    H5039206   7.579   0.722   0.058  0.6366  0.7334 -1.2149
   79MOL    H5139207   7.617   0.884   0.106  0.3041 -0.2121  1.9927
   79MOL    C5239208   0.264   0.860   7.654 -0.2956  0.7938 -0.6056
   79MOL    C5339209   0.401   0.912   7.707 -0.2003 -0.3119  0.0252
   79MOL    O5439210   0.456   0.998   7.608 -0.1190 -0.7120 -0.1355
   79MOL    C5539211   0.569   0.926   7.544 -0.0010  0.6239  0.1854
   79MOL    C5639212   0.627   1.011   7.430  0.2122 -0.2016  0.9638
   79MOL    C5739213   0.680   1.145   7.471 -0.3534 -0.4529 -0.2376
   79MOL    C5839214   0.801   1.134   7.562  0.7132  0.3697  0.4124
   79MOL    C5939215   0.832   1.265   7.634  0.2369 -0.2274 -0.5239
   79MOL    C6039216   0.961   1.254   7.718  0.1759  0.2984 -0.8230
   79MOL    H6139217   0.217   0.795   7.728 -0.6852  2.6433  0.7959
   79MOL    H6239218   0.197   0.945   7.641  0.1417  1.1077 -0.7980
   79MOL    H6339219   0.457   0.821   7.730 -2.3562 -2.4317 -2.6952
   79MOL    H6439220   0.535   0.831   7.501  1.7819 -0.4834  1.1791
   79MOL    H6539221   0.644   0.894   7.616 -1.3914  0.0927  1.4108
   79MOL    H6639222   0.538   1.014   7.368  1.8750 -0.5499 -1.5112
   79MOL    H6739223   0.704   0.963   7.369  2.4157  4.1739  0.0633
   79MOL    H6839224   0.695   1.199   7.378 -1.4967 -2.4586 -1.6141
   79MOL    H6939225   0.606   1.203   7.526  1.7825  1.0120  1.1964
   79MOL    H7039226   0.778   1.063   7.641 -0.9263 -1.0356 -1.2638
   79MOL    H7139227   0.883   1.094   7.503 -0.1388 -0.2353 -0.3892
   79MOL    H7239228   0.838   1.346   7.561  0.4939 -0.3337 -0.6241
   79MOL    H7339229   0.759   1.280   7.713  0.2298  0.6100 -0.6876
   79MOL    H7439230   0.974   1.356   7.755  0.2900  0.0837 -0.2705
   79MOL    H7539231   0.961   1.198   0.034  1.4894  1.6253  0.0074
   79MOL    H7639232   1.053   1.215   7.676 -0.6507 -1.0435 -1.3982
   79MOL    C7739233   0.374   0.976   0.065  0.2639  0.3231 -1.1663
   79MOL    C7839234   0.507   0.996   0.153 -0.7047  0.2906 -0.3815
   79MOL    O7939235   0.557   0.859   0.172  0.3793 -0.3553 -0.0282
   79MOL    C8039236   0.686   0.836   0.223 -0.5284 -0.1986  1.1638
   79MOL    C8139237   0.670   0.706   0.298 -0.8088 -0.3435 -0.1095
   79MOL    C8239238   0.577   0.711   0.416  0.0963 -0.7159  0.0647
   79MOL    C8339239   0.589   0.584   0.502 -0.2020 -0.2396  0.1119
   79MOL    C8439240   0.502   0.572   0.627 -0.1888 -0.4552 -0.3608
   79MOL    C8539241   0.354   0.546   0.589 -0.3711 -0.3104 -0.1146
   79MOL    H8639242   0.298   0.927   0.127  1.0913  1.1540  0.5550
   79MOL    H8739243   0.318   1.068   0.046 -0.2350 -0.0404 -1.4778
   79MOL    H8839244   0.582   1.037   0.085 -1.6107 -0.3329 -1.7972
   79MOL    H8939245   0.706   0.917   0.293 -0.9106 -0.3795  1.4837
   79MOL    H9039246   0.757   0.833   0.141  0.3084 -2.4653  1.9306
   79MOL    H9139247   0.772   0.677   0.322 -0.7317 -0.2243 -0.2896
   79MOL    H9239248   0.640   0.638   0.218  0.3863 -0.7238 -0.2388
   79MOL    H9339249   0.598   0.803   0.471 -0.9359 -0.5938  0.2673
   79MOL    H9439250   0.474   0.732   0.388  0.7599  0.6633 -1.3703
   79MOL    H9539251   0.547   0.508   0.436 -0.7958 -0.2385  0.4811
   79MOL    H9639252   0.693   0.560   0.521 -0.2488 -1.2210 -0.8328
   79MOL    H9739253   0.539   0.478   0.670  0.6897 -0.1345 -0.3958
   79MOL    H9839254   0.510   0.653   0.698 -2.7122 -0.2472 -0.2881
   79MOL    H9939255   0.295   0.487   0.659 -1.5127  2.7328  1.5793
   79MOL   H10039256   0.313   0.647   0.584 -2.8458 -1.1934  1.2755
   79MOL   H10139257   0.336   0.503   0.490 -0.3854 -0.5606 -0.0041
   79MOL   C10239258   0.481   1.071   0.284 -0.0198 -0.1076  1.2905
   79MOL   C10339259   0.598   1.164   0.331  0.1641 -0.2664 -0.2506
   79MOL   O10439260   0.570   1.302   0.310  0.1387  0.0077  0.2951
   79MOL   C10539261   0.613   1.343   0.179 -0.0190 -0.4162  0.2731
   79MOL   C10639262   0.650   1.491   0.192  0.4860 -0.1068 -0.2855
   79MOL   C10739263   0.681   1.564   0.061 -0.2491  0.5025 -0.2321
   79MOL   C10839264   0.702   1.712   0.077  1.1808 -0.3017 -0.5564
   79MOL   C10939265   0.726   1.782   7.723  0.2872 -0.3058 -0.0802
   79MOL   C11039266   0.618   1.762   7.610 -0.3767 -0.9354  0.4956
   79MOL   H11139267   0.390   1.130   0.273  0.3427  0.6945  2.4925
   79MOL   H11239268   0.457   0.996   0.359  4.5040 -1.1815  1.7918
   79MOL   H11339269   0.691   1.131   0.283  0.5895  1.3671 -0.5656
   79MOL   H11439270   0.530   1.336   0.109 -0.8607  2.5349  0.9150
   79MOL   H11539271   0.700   1.287   0.145 -0.5038 -1.0006 -0.0167
   79MOL   H11639272   0.736   1.499   0.258  0.4409 -1.6600 -0.0101
   79MOL   H11739273   0.574   1.546   0.248  1.0182  0.7823 -0.4370
   79MOL   H11839274   0.771   1.516   0.023 -0.6577 -0.3715 -0.1242
   79MOL   H11939275   0.600   1.544   7.768  0.2994  0.5839 -0.9009
   79MOL   H12039276   0.618   1.758   0.131 -0.0747 -0.5449 -2.2525
   79MOL   H12139277   0.788   1.735   0.140 -0.2821 -0.3040  1.4946
   79MOL   H12239278   0.743   1.889   7.735  0.8533 -0.4256  0.1770
   79MOL   H12339279   0.819   1.739   7.684  1.3061  3.1260 -1.5876
   79MOL   H12439280   0.633   1.670   7.553  0.2745 -1.1189  0.9575
   79MOL   H12539281   0.515   1.766   7.645 -0.4467 -1.8118  0.4046
   79MOL   H12639282   0.629   1.851   7.548  1.5863  0.5104  2.8477
   79MOL   C12739283   0.637   1.149   0.481 -0.1980  0.2456 -0.3298
   79MOL   C12839284   0.763   1.227   0.507  0.1068  0.1246 -0.3324
   79MOL   O12939285   0.865   1.148   0.446  0.0176  0.0354  0.3267
   79MOL   C13039286   0.967   1.219   0.383  0.5436  0.1884 -0.3868
   79MOL   C13139287   1.078   1.119   0.340  0.0686 -0.2832 -0.3079
   79MOL   C13239288   1.022   1.007   0.251 -0.3270  0.0189 -0.0981
   79MOL   C13339289   1.132   0.906   0.215  1.1970  0.0841  0.0552
   79MOL   C13439290   1.074   0.776   0.151 -0.0159  0.1477 -0.4921
   79MOL   C13539291   1.168   0.684   0.083 -1.0134  0.2802  0.2343
   79MOL   H13639292   0.567   1.200   0.548  1.3342  1.1135  0.6473
   79MOL   H13739293   0.640   1.048   0.521  1.9946  0.2222 -0.4824
   79MOL   H13839294   0.759   1.323   0.455  2.6149 -0.5962 -1.9532
   79MOL   H13939295   1.015   1.288   0.452 -0.1508 -0.8437  1.1831
   79MOL   H14039296   0.925   1.264   0.294 -2.2242 -0.0968  0.7222
   79MOL   H14139297   1.123   1.088   0.434 -0.3335 -2.3801 -0.7824
   79MOL   H14239298   1.167   1.163   0.297  1.3054 -1.8911  0.5388
   79MOL   H14339299   0.955   0.956   0.321 -0.5770  0.1630 -0.2317
   79MOL   H14439300   0.962   1.044   0.168 -1.1465 -1.2757 -0.1042
   79MOL   H14539301   1.201   0.942   0.139  0.7632 -2.7540 -1.7653
   79MOL   H14639302   1.186   0.873   0.304  0.4991 -3.8134 -0.8566
   79MOL   H14739303   1.035   0.725   0.238  1.2005  1.9606  1.1647
   79MOL   H14839304   0.991   0.794   0.083 -1.3508 -1.7686  0.5770
   79MOL   H14939305   1.214   0.738   7.776  1.8387 -0.4126  1.2849
   79MOL   H15039306   1.248   0.653   0.150 -0.1901 -0.4607 -1.0528
   79MOL   H15139307   1.121   0.593   0.047  1.3955 -0.4307 -1.2980
   79MOL   C15239308   0.805   1.249   0.654  0.1148  0.0861 -0.2374
   79MOL   C15339309   0.754   1.376   0.723  0.4519 -0.2716  0.6619
   79MOL   O15439310   0.777   1.374   0.867 -0.2313  0.7343  0.5606
   79MOL   C15539311   0.692   1.307   0.955 -0.4432  0.3368  0.4198
   79MOL   C15639312   0.759   1.175   0.997  0.2225 -0.2119  0.2551
   79MOL   C15739313   0.850   1.194   1.118 -0.8421  0.3534  0.0348
   79MOL   C15839314   0.963   1.084   1.139 -0.1207 -0.8080  0.4166
   79MOL   C15939315   1.090   1.092   1.055  0.5156 -0.0362 -0.1078
   79MOL   C16039316   1.173   0.960   1.057  0.0865 -0.1513 -0.5905
   79MOL   H16139317   0.754   1.164   0.700 -0.8479  1.0720  0.5530
   79MOL   H16239318   0.912   1.238   0.670  0.2578 -0.1205 -1.3106
   79MOL   H16339319   0.646   1.389   0.710  0.7566  1.2969 -0.4880
   79MOL   H16439320   0.606   1.275   0.895 -0.6580 -0.4607  1.1528
   79MOL   H16539321   0.654   1.371   1.035  1.2879  0.3148  1.2769
   79MOL   H16639322   0.812   1.140   0.908 -1.9915  1.4146 -1.7672
   79MOL   H16739323   0.683   1.102   1.024  1.0866 -1.9472 -1.8025
   79MOL   H16839324   0.893   1.294   1.111 -1.7319  0.6570 -1.2448
   79MOL   H16939325   0.790   1.201   1.208 -0.0508  1.1702  0.5019
   79MOL   H17039326   0.976   1.069   1.246 -1.9860  3.3307  1.3272
   79MOL   H17139327   0.912   0.990   1.121 -0.4614 -0.4930 -0.2648
   79MOL   H17239328   1.068   1.122   0.952 -0.1198  2.2781  0.6671
   79MOL   H17339329   1.154   1.163   1.107 -1.4654  0.8690  1.1597
   79MOL   H17439330   1.271   0.978   1.012  0.2245  2.6991  0.7335
   79MOL   H17539331   1.177   0.920   1.158 -1.7331 -0.8895 -0.7897
   79MOL   H17639332   1.125   0.881   1.000  1.9885 -1.5974 -0.2241
   79MOL   C17739333   0.831   1.502   0.676 -0.4019  0.3604 -0.1251
   79MOL   C17839334   0.761   1.638   0.688 -0.0571 -0.2582 -0.0955
   79MOL   O17939335   0.870   1.731   0.680 -0.0205 -0.2111  0.1989
   79MOL   C18039336   0.844   1.865   0.733  0.0366 -0.4044  0.6862
   79MOL   C18139337   0.962   1.954   0.681 -0.6059 -0.1717  0.0788
   79MOL   C18239338   0.937   2.100   0.694 -0.0114 -0.1150 -0.0350
   79MOL   C18339339   1.040   2.193   0.630 -0.4504 -0.0789 -0.3448
   79MOL   C18439340   1.002   2.336   0.681  0.5437 -0.6793  0.1138
   79MOL   C18539341   0.884   2.395   0.603  0.0695 -0.0564 -0.1330
   79MOL   H18639342   0.922   1.506   0.736  0.3814  1.6086 -1.3625
   79MOL   H18739343   0.859   1.477   0.574 -1.2356 -1.8926  0.1792
   79MOL   H18839344   0.711   1.637   0.785 -1.3734 -1.0739 -0.7628
   79MOL   H18939345   0.839   1.867   0.842 -1.7395  1.5216  0.5879
   79MOL   H19039346   0.745   1.893   0.699  0.4836  1.5423  0.9344
   79MOL   H19139347   0.990   1.921   0.581  0.9986 -2.7063  1.3060
   79MOL   H19239348   1.055   1.929   0.732 -0.0527  0.6503 -0.5263
   79MOL   H19339349   0.838   2.124   0.656 -0.0008 -0.7102 -0.4376
   79MOL   H19439350   0.935   2.100   0.803  1.0477 -1.1398  0.0000
   79MOL   H19539351   1.133   2.154   0.670 -1.6342 -0.6800  1.8776
   79MOL   H19639352   1.035   2.186   0.521 -4.6272 -1.3344 -0.1681
   79MOL   H19739353   0.984   2.330   0.789  1.7111 -1.2615  0.2734
   79MOL   H19839354   1.082   2.409   0.674 -0.0474 -0.1381 -1.1184
   79MOL   H19939355   0.802   2.323   0.593  0.4951 -0.4179 -1.0543
   79MOL   H20039356   0.857   2.484   0.661 -0.3864 -0.6548  0.5964
   79MOL   H20139357   0.908   2.428   0.503 -0.1740 -0.1786 -0.2331
   79MOL   C20239358   0.665   1.650   0.566 -0.5530 -0.0726 -0.5376
   79MOL   C20339359   0.522   1.725   0.595 -0.7885  0.5643  0.1190
   79MOL   O20439360   0.452   1.644   0.690 -0.0154  0.5190  0.6389
   79MOL   C20539361   0.358   1.714   0.781 -0.2574  0.2445  0.7030
   79MOL   C20639362   0.273   1.602   0.839  0.5320 -0.5452  0.3523
   79MOL   C20739363   0.360   1.501   0.914 -0.3998 -0.0662 -0.9182
   79MOL   C20839364   0.281   1.421   1.012 -0.5350  0.1481  0.7429
   79MOL   C20939365   0.369   1.322   1.097  0.1151  0.0465 -1.0373
   79MOL   C21039366   0.288   1.251   1.204  0.7174  0.6189  0.2375
   79MOL   H21139367   0.724   1.696   0.487  1.5989 -1.7556  0.0262
   79MOL   H21239368   0.646   1.546   0.537  1.0306 -0.3770 -0.5687
   79MOL   H21339369   0.535   1.826   0.633 -0.5453 -0.4052  2.7117
   79MOL   H21439370   0.297   1.779   0.718  1.0971 -0.4815 -1.3710
   79MOL   H21539371   0.401   1.774   0.862 -0.1449 -0.5750  1.2492
   79MOL   H21639372   0.221   1.549   0.759  0.2583 -1.6915  1.2815
   79MOL   H21739373   0.204   1.644   0.912  0.7743  1.4484 -0.5281
   79MOL   H21839374   0.403   1.439   0.835 -0.4002  0.3630 -1.2608
   79MOL   H21939375   0.435   1.549   0.976 -0.4989  1.1060 -1.6820
   79MOL   H22039376   0.221   1.495   1.065 -2.8064 -2.0543  1.3527
   79MOL   H22139377   0.207   1.356   0.965  1.4402  0.0089 -2.3366
   79MOL   H22239378   0.401   1.243   1.030 -0.7787 -1.7073  0.5343
   79MOL   H22339379   0.454   1.381   1.133 -1.3736  1.7676 -0.2425
   79MOL   H22439380   0.215   1.178   1.169  2.9919 -1.3472 -0.5047
   79MOL   H22539381   0.356   1.204   1.275 -2.1714 -0.1952  2.5901
   79MOL   H22639382   0.242   1.323   1.272  1.7570  0.4661  1.1011
   79MOL   C22739383   0.437   1.728   0.468 -0.0354  0.3097  0.4840
   79MOL   C22839384   0.422   1.868   0.405  0.3601 -0.0913  0.2766
   79MOL   O22939385   0.553   1.920   0.374  0.2772 -0.1672  0.5786
   79MOL   C23039386   0.573   2.059   0.372 -0.1590  0.1846  0.5707
   79MOL   C23139387   0.702   2.070   0.291 -0.5595  0.1769 -0.1592
   79MOL   C23239388   0.774   2.202   0.301  0.5948 -0.2365 -0.2965
   79MOL   C23339389   0.885   2.223   0.209  1.4066  0.2790 -0.4224
   79MOL   C23439390   0.961   2.356   0.226 -0.7404 -0.2348  0.1265
   79MOL   C23539391   1.073   2.383   0.129 -0.0461 -0.6541 -0.1191
   79MOL   H23639392   0.465   1.658   0.389 -0.8238  0.7463 -0.1910
   79MOL   H23739393   0.340   1.687   0.496 -0.8719  2.0591  0.2146
   79MOL   H23839394   0.378   1.933   0.480 -1.1062 -1.5156  0.6869
   79MOL   H23939395   0.581   2.089   0.477 -2.2497  1.7850  0.2953
   79MOL   H24039396   0.498   2.120   0.323  2.8170  3.8080  0.3073
   79MOL   H24139397   0.684   2.042   0.187  0.2320 -1.5132  0.1414
   79MOL   H24239398   0.770   1.990   0.322  0.5075  0.8532 -0.7464
   79MOL   H24339399   0.703   2.284   0.289 -0.5204 -1.4076 -1.7793
   79MOL   H24439400   0.806   2.224   0.403  0.3093 -0.6557 -0.1124
   79MOL   H24539401   0.957   2.145   0.232 -0.6379 -1.6843 -0.4843
   79MOL   H24639402   0.853   2.222   0.105  1.1860  0.6125 -0.3592
   79MOL   H24739403   0.897   2.444   0.218  1.1398  1.1888  0.4261
   79MOL   H24839404   1.020   2.350   0.317  2.6755 -1.4927 -2.0907
   79MOL   H24939405   1.145   2.303   0.116 -1.4504 -1.7040 -1.6514
   79MOL   H25039406   1.039   2.416   0.030  1.2929  1.8145  0.1792
   79MOL   H25139407   1.130   2.467   0.170 -0.0808 -0.7764  0.1754
   79MOL   C25239408   0.344   1.854   0.265  0.0852 -0.3791  0.5051
   79MOL   C25339409   0.199   1.823   0.278  0.3076  0.0380  0.2883
   79MOL   O25439410   0.152   1.738   0.174 -0.0268 -0.2895  0.3483
   79MOL   C25539411   0.194   1.608   0.201  0.7208 -0.2279  0.3984
   79MOL   C25639412   0.153   1.530   0.071 -0.2579  0.3107  0.0145
   79MOL   C25739413   0.252   1.536   7.730  0.5178 -0.5168  0.4189
   79MOL   C25839414   0.207   1.434   7.616 -0.1483  0.6807  0.0249
   79MOL   C25939415   0.315   1.436   7.503 -0.0479 -0.0298 -0.1830
   79MOL   C26039416   0.290   1.320   7.400 -0.6454  0.0461  0.1444
   79MOL   H26139417   0.335   1.950   0.213 -1.7645 -0.7559  0.0901
   79MOL   H26239418   0.410   1.787   0.210  1.4769  0.3258  1.2589
   79MOL   H26339419   0.169   1.779   0.373  0.9225 -2.1321 -0.5074
   79MOL   H26439420   0.146   1.565   0.289  0.8751 -2.7745 -0.7218
   79MOL   H26539421   0.302   1.608   0.214  0.7322  1.3242  0.4173
   79MOL   H26639422   0.062   1.582   0.041 -0.7300 -0.6153 -0.1918
   79MOL   H26739423   0.148   1.425   0.100 -0.3171  0.2279 -0.3003
   79MOL   H26839424   0.255   1.636   7.688 -0.8722 -0.1445  1.1589
   79MOL   H26939425   0.350   1.506   7.766  1.0632  2.5091  1.5723
   79MOL   H27039426   0.206   1.336   7.663  2.6784  1.1923  1.2785
   79MOL   H27139427   0.108   1.469   7.589 -0.7135  0.3815  1.6474
   79MOL   H27239428   0.303   1.533   7.455  3.2104  0.1479 -0.7582
   79MOL   H27339429   0.414   1.425   7.549 -0.7540  1.5870  1.7708
   79MOL   H27439430   0.186   1.289   7.391 -0.5356  0.0833 -1.3032
   79MOL   H27539431   0.339   1.339   7.304 -1.9944  0.0323 -0.5561
   79MOL   H27639432   0.347   1.235   7.438 -0.5191  0.3912  0.7307
   79MOL   C27739433   0.112   1.954   0.286  0.6659 -0.5181  0.0844
   79MOL   C27839434   7.753   1.927   0.360  0.6790 -0.3489  0.4647
   79MOL   O27939435   0.005   1.928   0.498 -0.4272  0.2192  0.2074
   79MOL   C28039436   7.698   1.847   0.576 -0.3245  0.4694  0.1187
   79MOL   C28139437   7.740   1.827   0.726  0.2153  0.5907  0.4268
   79MOL   C28239438   7.633   1.747   0.798  0.0332  0.5466 -0.1213
   79MOL   C28339439   7.662   1.705   0.942  0.0311 -0.0184 -0.2727
   79MOL   C28439440   7.651   1.818   1.033  0.0323 -0.2662 -0.4293
   79MOL   C28539441   7.710   1.789   1.169  0.5877 -0.4427  0.4477
   79MOL   H28639442   0.173   2.033   0.329  1.7565 -1.6918  0.7114
   79MOL   H28739443   0.092   1.981   0.182  0.4696 -1.8435 -0.2360
   79MOL   H28839444   7.718   1.832   0.318 -0.0975 -0.6109  1.6870
   79MOL   H28939445   7.691   1.749   0.530  1.0320  0.7117 -0.6168
   79MOL   H29039446   7.600   1.894   0.581 -0.6174 -0.1178 -0.0680
   79MOL   H29139447   7.744   1.924   0.777  0.7899  0.6684  0.2424
   79MOL   H29239448   0.064   1.787   0.730  0.0340  0.0124 -0.6663
   79MOL   H29339449   7.537   1.798   0.787 -1.1475 -0.9881  2.6119
   79MOL   H29439450   7.615   1.655   0.743 -4.0036  0.4988  1.0959
   79MOL   H29539451   7.586   1.633   0.973  0.3611 -0.7508 -1.1471
   79MOL   H29639452   7.754   1.649   0.956 -0.5310 -0.5215  1.7270
   79MOL   H29739453   7.705   1.908   1.004 -0.0014 -0.4632 -1.0991
   79MOL   H29839454   7.548   1.853   1.043  0.1864 -0.2207  1.2389
   79MOL   H29939455   7.714   1.889   1.213  2.1799  0.2112 -1.1028
   79MOL   H30039456   7.647   1.718   1.222  0.5787 -0.1479  0.8292
   79MOL   H30139457   0.034   1.749   1.156  0.4622 -0.2680 -1.2315
   79MOL   C30239458   7.655   2.047   0.342 -0.2622  0.1048 -0.2357
   79MOL   C30339459   7.597   2.073   0.199  0.6253  0.0612  0.6493
   79MOL   O30439460   7.508   2.184   0.195  0.1622  0.1855  0.4604
   79MOL   C30539461   7.562   2.309   0.172 -0.2784 -0.1748 -0.5951
   79MOL   C30639462   7.454   2.408   0.168  0.0969  0.3934  0.2332
   79MOL   C30739463   7.363   2.430   0.043 -0.2093  0.3184  0.1221
   79MOL   C30839464   7.278   2.557   0.060  0.5810  0.2020  0.4931
   79MOL   C30939465   7.179   2.596   7.718 -0.2364 -0.2967  0.9464
   79MOL   C31039466   7.087   2.480   7.680 -0.0877  0.2859 -0.8385
   79MOL   H31139467   7.573   2.036   0.414 -0.0258 -0.4742 -0.0573
   79MOL   H31239468   7.722   2.127   0.374  0.6731  0.1280 -2.1886
   79MOL   H31339469   7.687   2.089   0.138  1.1428 -2.4722  0.7091
   79MOL   H31439470   7.623   2.313   0.082  0.2842  1.3758 -0.1698
   79MOL   H31539471   7.623   2.339   0.258 -0.5886 -1.3777  0.0614
   79MOL   H31639472   7.494   2.507   0.188  1.4479 -0.5305  2.2118
   79MOL   H31739473   7.380   2.389   0.246 -0.1390 -0.0102 -0.0872
   79MOL   H31839474   7.413   2.441   7.724  0.2481 -0.3640  0.2836
   79MOL   H31939475   7.292   2.351   0.016 -2.2616  1.9877  0.4700
   79MOL   H32039476   7.233   2.540   0.158 -1.6281  0.9353 -0.3680
   79MOL   H32139477   7.342   2.645   0.071 -1.1462  1.5648 -0.0390
   79MOL   H32239478   7.115   2.681   7.742 -0.0265  0.0712  0.2227
   79MOL   H32339479   7.238   2.622   7.630 -0.2806 -1.2295  0.6404
   79MOL   H32439480   7.040   2.497   7.583  0.0649  0.5979 -0.8593
   79MOL   H32539481   7.129   2.379   7.678 -0.8460 -0.0201 -1.7402
   79MOL   H32639482   7.005   2.469   7.750  2.5952 -0.5779  2.3012
   79MOL   C32739483   7.529   1.950   0.133  0.6604 -0.7391  0.2824
   79MOL   C32839484   7.540   1.950   7.753 -0.4121 -0.4149 -0.0334
   79MOL   O32939485   7.671   1.924   7.720  0.1589 -0.6368 -0.0533
   79MOL   C33039486   7.709   1.966   7.588 -0.0321 -0.2211 -0.6569
   79MOL   C33139487   0.088   1.947   7.574  0.1251 -0.0368  0.0157
   79MOL   C33239488   0.169   2.051   7.655  0.0729 -0.1175  0.0455
   79MOL   C33339489   0.320   2.029   7.644  0.5417 -0.4625 -0.1990
   79MOL   C33439490   0.394   2.153   7.699  0.2746  0.5012 -0.0905
   79MOL   C33539491   0.547   2.158   7.685 -0.3449 -0.4659 -0.1515
   79MOL   H33639492   7.424   1.953   0.161  0.7529 -1.2573  0.6777
   79MOL   H33739493   7.573   1.862   0.180  0.7958 -1.1862 -0.6669
   79MOL   H33839494   7.524   2.053   7.721  0.3683 -0.6984 -1.3637
   79MOL   H33939495   7.680   2.071   7.581 -1.0417 -0.0457  4.3491
   79MOL   H34039496   7.659   1.916   7.505  0.5525 -1.6101 -0.1828
   79MOL   H34139497   0.114   1.969   7.471 -1.7047 -0.0518 -0.4809
   79MOL   H34239498   0.116   1.846   7.604  0.4556  0.1274  0.2603
   79MOL   H34339499   0.139   2.148   7.615  1.4373  0.6104  0.7544
   79MOL   H34439500   0.138   2.051   7.760 -2.1643 -0.2325 -0.6010
   79MOL   H34539501   0.354   1.947   7.708  0.6751  0.5713  1.0687
   79MOL   H34639502   0.356   2.011   7.543  3.3776 -2.3525  1.0787
   79MOL   H34739503   0.357   2.245   7.654 -0.4939  0.4615  0.4650
   79MOL   H34839504   0.373   2.154   0.028 -0.4755  1.4372 -0.2473
   79MOL   H34939505   0.588   2.259   7.695 -2.0207  0.1797  0.2212
   79MOL   H35039506   0.589   2.081   7.750  1.7140  0.4492 -0.3586
   79MOL   H35139507   0.578   2.127   7.585  1.3247 -0.2311  0.2712
   79MOL   C35239508   7.448   1.843   7.682 -0.0973 -0.6452 -0.8693
   79MOL   C35339509   7.312   1.893   7.630 -0.0486  0.8370 -0.4928
   79MOL   O35439510   7.225   1.905   7.748 -0.2403 -0.3462  0.4741
   79MOL   C35539511   7.188   2.034   0.000  0.3730  0.1356 -0.6386
   79MOL   C35639512   7.121   2.038   0.144  0.2956 -0.6452  0.0729
   79MOL   C35739513   7.117   2.185   0.199  0.1519 -0.3651 -0.1632
   79MOL   C35839514   7.051   2.202   0.341 -0.1461  0.4549 -0.0952
   79MOL   C35939515   6.893   2.207   0.339 -1.4003 -0.3240  0.4006
   79MOL   C36039516   6.821   2.200   0.470  0.2077  0.1796  0.5167
   79MOL   H36139517   7.500   1.795   7.600 -1.1194 -0.1885 -1.8029
   79MOL   H36239518   7.438   1.763   7.755 -0.6512  0.9041  0.8133
   79MOL   H36339519   7.335   1.987   7.580  2.1649 -0.1272 -1.3601
   79MOL   H36439520   7.130   2.079   7.697  0.7005 -2.3473 -2.3166
   79MOL   H36539521   7.278   2.095   0.009  1.3897 -1.1006 -2.2609
   79MOL   H36639522   7.185   1.979   0.210 -1.1135 -0.1996  1.8788
   79MOL   H36739523   7.023   1.991   0.148 -0.5728  0.7298 -3.0041
   79MOL   H36839524   7.216   2.230   0.196 -0.1880  0.4754  0.9349
   79MOL   H36939525   7.066   2.247   0.125  0.7657  1.5233  0.9626
   79MOL   H37039526   7.074   2.120   0.408  2.2836  0.3643 -0.9728
   79MOL   H37139527   7.090   2.296   0.381  1.6217 -0.4536  0.3724
   79MOL   H37239528   6.865   2.299   0.287 -0.6861  0.2719  1.0559
   79MOL   H37339529   6.854   2.123   0.281  1.5299 -0.5741 -1.3380
   79MOL   H37439530   6.842   2.107   0.523  1.7882  0.9748  1.3134
   79MOL   H37539531   6.837   2.288   0.532 -1.1026 -0.5700  1.9688
   79MOL   H37639532   6.714   2.203   0.451 -0.0088  1.6248  1.8738
   79MOL   C37739533   7.252   1.782   7.535 -0.1358 -0.1355 -0.2661
   79MOL   C37839534   7.137   1.825   7.439  0.3880 -0.6295  0.1617
   79MOL   O37939535   7.049   1.714   7.425 -0.6662 -0.1225 -0.1075
   79MOL   C38039536   6.927   1.745   7.364 -0.1849  0.6819 -0.0044
   79MOL   C38139537   6.869   1.617   7.305  0.9438  0.4454 -0.0483
   79MOL   C38239538   6.822   1.524   7.425  0.2984 -0.5084  0.0298
   79MOL   C38339539   6.725   1.407   7.385  0.2143 -0.3945 -0.0783
   79MOL   C38439540   6.688   1.305   7.495  0.2450  0.0152 -0.1733
   79MOL   C38539541   6.591   1.362   7.600 -0.1743  0.2138 -0.3269
   79MOL   H38639542   7.331   1.722   7.490  0.0548  0.0974 -0.2448
   79MOL   H38739543   7.196   1.716   7.600  1.0142 -0.1286  0.7560
   79MOL   H38839544   7.085   1.908   7.487  1.8420  2.5543 -3.5574
   79MOL   H38939545   6.938   1.809   7.276  0.4982  1.6995  0.8066
   79MOL   H39039546   6.865   1.806   7.430 -0.9148  0.6953 -0.6955
   79MOL   H39139547   6.941   1.573   7.237  0.3838  0.5439 -0.7192
   79MOL   H39239548   6.776   1.646   7.256 -0.6918 -2.0279  1.4644
   79MOL   H39339549   6.907   1.493   7.486  0.1925 -1.5495 -0.3517
   79MOL   H39439550   6.772   1.590   7.495  0.2273 -0.2320 -0.2792
   79MOL   H39539551   6.632   1.442   7.340  0.6965 -1.0045 -1.5817
   79MOL   H39639552   6.772   1.346   7.308 -0.1485  1.2215 -1.6097
   79MOL   H39739553   6.643   1.219   7.445 -0.5626  1.0630 -1.2754
   79MOL   H39839554   6.781   1.284   7.548 -0.1531 -0.1765  0.4545
   79MOL   H39939555   6.626   1.451   7.651  0.7792  0.0613 -0.7087
   79MOL   H40039556   6.496   1.387   7.553 -1.1048 -1.7557  0.4442
   79MOL   H40139557   6.581   1.281   7.672  1.3651 -1.0056 -1.4623
   79MOL   C40239558   7.199   1.859   7.303 -0.0411  0.8340 -0.1227
   79MOL   C40339559   7.316   1.957   7.298  0.3172  0.2982  0.5066
   79MOL   O40439560   7.275   2.079   7.354  0.1986  0.1785 -0.0437
   79MOL   C40539561   7.377   2.181   7.371 -0.2950  0.2455  0.3992
   79MOL   C40639562   7.315   2.325   7.383  0.5549  0.3749  0.1771
   79MOL   C40739563   7.240   2.360   7.255  0.2931 -0.4056 -0.2463
   79MOL   C40839564   7.136   2.476   7.267 -0.4050 -0.1757 -0.7547
   79MOL   C40939565   7.204   2.614   7.275  1.1355  0.2526 -0.3163
   79MOL   C41039566   7.111   2.731   7.322 -0.5302 -0.0538  0.0965
   79MOL   H41139567   7.119   1.883   7.233 -1.2713  0.1745  1.0406
   79MOL   H41239568   7.228   1.760   7.268 -0.1829  0.0976  1.7858
   79MOL   H41339569   7.398   1.918   7.357 -0.5813 -1.0767  0.8580
   79MOL   H41439570   7.457   2.194   7.298 -0.9302  0.1680 -0.3166
   79MOL   H41539571   7.427   2.152   7.464  3.9911  1.6462 -1.3532
   79MOL   H41639572   7.391   2.402   7.396 -0.4496  1.6200 -1.1097
   79MOL   H41739573   7.246   2.334   7.466  1.2064  0.2662  0.7363
   79MOL   H41839574   7.298   2.370   7.163  1.3080  0.8882  0.5156
   79MOL   H41939575   7.181   2.275   7.222 -1.4098  0.1706  1.2483
   79MOL   H42039576   7.069   2.460   7.182  2.4545 -1.3134 -2.8595
   79MOL   H42139577   7.074   2.449   7.353 -0.3412 -0.1459 -0.6994
   79MOL   H42239578   7.268   2.608   7.364  2.6757 -1.3435 -1.4988
   79MOL   H42339579   7.280   2.650   7.205  0.6773  2.2675  0.1966
   79MOL   H42439580   7.171   2.811   7.365  1.9669 -1.6237 -0.3938
   79MOL   H42539581   7.053   2.760   7.235 -3.2053 -1.6532  1.2763
   79MOL   H42639582   7.050   2.706   7.410 -0.7334  0.4127  0.0903
   79MOL   C42739583   7.361   1.977   7.152  0.2467  0.0767  0.8869
   79MOL   C42839584   7.514   1.988   7.127 -0.4869 -0.3188  0.3718
   79MOL   O42939585   7.574   1.862   7.088  0.3242 -0.1088  0.5095
   79MOL   C43039586   7.591   1.780   7.205  0.2023  0.3041  1.3939
   79MOL   C43139587   7.673   1.653   7.179  0.6826  0.3327  0.3725
   79MOL   C43239588   7.668   1.560   7.301  0.0729  0.0833  0.3395
   79MOL   C43339589   7.749   1.432   7.292 -0.8857 -0.2387  0.0244
   79MOL   C43439590   7.674   1.318   7.212  0.6762  0.0894 -0.4502
   79MOL   C43539591   7.738   1.180   7.216 -0.0212  0.5703  0.4705
   79MOL   H43639592   7.316   1.918   7.072 -1.3388  1.4422  0.7469
   79MOL   H43739593   7.323   2.074   7.118 -0.3597 -0.5996 -0.4179
   79MOL   H43839594   7.561   2.026   7.217  1.5425  2.6438 -1.8136
   79MOL   H43939595   7.497   1.747   7.250 -0.3418 -0.2096 -0.0838
   79MOL   H44039596   7.646   1.835   7.282 -0.7610  0.2687  2.1255
   79MOL   H44139597   0.003   1.671   7.166  0.4892 -0.1714 -2.1362
   79MOL   H44239598   7.648   1.607   7.084  0.7981  0.8124  0.1047
   79MOL   H44339599   7.716   1.623   7.377 -2.1445 -0.0224  1.8844
   79MOL   H44439600   7.566   1.532   7.327  0.1670  0.4623  1.1530
   79MOL   H44539601   0.072   1.470   7.275 -0.0070 -1.8518  1.4651
   79MOL   H44639602   7.754   1.387   7.391  3.9800 -1.0329 -0.4954
   79MOL   H44739603   7.570   1.312   7.245  1.2975  2.1828  2.1000
   79MOL   H44839604   7.674   1.346   7.107  1.7491 -1.3747 -0.8624
   79MOL   H44939605   7.689   1.110   7.148 -1.4415  1.1228  0.9186
   79MOL   H45039606   0.065   1.187   7.185  0.1639 -0.9650  0.7097
   79MOL   H45139607   7.742   1.133   7.314  1.6000  3.1745  1.7184
   79MOL   C45239608   7.553   2.097   7.022  0.3497 -0.1400 -0.2562
   79MOL   C45339609   7.708   2.119   6.994  0.4507 -0.0337  0.5111
   79MOL   O45439610   7.741   2.207   7.097  0.7976  0.2042  0.1766
   79MOL   C45539611   0.068   2.151   7.171 -0.3167  0.1249  0.1159
   79MOL   C45639612   0.138   2.250   7.262  0.0180  0.1801 -0.4074
   79MOL   C45739613   0.201   2.358   7.161  0.7366  0.5256 -0.0521
   79MOL   C45839614   0.248   2.496   7.214 -0.1948  0.6146 -0.9970
   79MOL   C45939615   0.275   2.496   7.366 -0.1853 -0.2360 -0.0231
   79MOL   C46039616   0.339   2.629   7.418  0.6424  1.0289 -0.2873
   79MOL   H46139617   7.491   2.076   6.934 -1.3654 -2.1047  1.3768
   79MOL   H46239618   7.506   2.185   7.066  1.1560  0.4201 -0.4926
   79MOL   H46339619   7.752   2.019   6.994 -0.9095 -0.6457  0.1556
   79MOL   H46439620   0.148   2.116   7.106 -1.3192  0.3381 -1.2545
   79MOL   H46539621   0.019   2.066   7.220 -2.1068  0.5236 -0.9289
   79MOL   H46639622   0.217   2.217   7.330  0.4895  1.6850 -0.2087
   79MOL   H46739623   0.056   2.296   7.316 -0.7737 -1.5506 -0.1193
   79MOL   H46839624   0.285   2.307   7.114 -0.1089 -0.8725 -0.0804
   79MOL   H46939625   0.136   2.372   7.075 -0.1573  0.1745  0.5570
   79MOL   H47039626   0.335   2.534   7.161  1.9247 -0.5930  1.5312
   79MOL   H47139627   0.168   2.569   7.200 -0.1050  0.9758  0.3365
   79MOL   H47239628   0.187   2.481   7.428 -1.2001  0.1098 -1.3634
   79MOL   H47339629   0.341   2.417   7.403 -2.6898 -1.5458  1.7898
   79MOL   H47439630   0.373   2.636   7.522  1.4393  1.8191 -0.5929
   79MOL   H47539631   0.433   2.628   7.363 -0.7481  1.1051 -2.6995
   79MOL   H47639632   0.272   2.711   7.394  0.8883  0.6828 -2.2505
   79MOL   C47739633   7.729   2.197   6.863  0.2861  0.3618  0.1484
   79MOL   C47839634   0.100   2.200   6.817  0.2742  0.1911  0.0529
   79MOL   O47939635   0.117   2.224   6.676 -0.4372  0.1252 -0.4338
   79MOL   C48039636   0.094   2.353   6.626 -0.4304  0.4295  0.2579
   79MOL   C48139637   0.130   2.349   6.481  0.0044 -0.6467 -0.4077
   79MOL   C48239638   0.274   2.341   6.449  0.8888 -0.2620  1.0635
   79MOL   C48339639   0.317   2.338   6.305  0.5040  0.1063 -0.2468
   79MOL   C48439640   0.467   2.299   6.304 -1.0913  0.9128 -0.1203
   79MOL   C48539641   0.515   2.293   6.164  0.6015 -0.0402 -0.3267
   79MOL   H48639642   7.670   2.151   6.783 -0.8347  1.9839 -0.0072
   79MOL   H48739643   7.703   2.303   6.866 -0.2157  0.3508 -2.3417
   79MOL   H48839644   0.162   2.267   6.877  0.1664 -0.1209  0.5137
   79MOL   H48939645   0.144   2.433   6.682 -2.2180  1.7763 -0.0336
   79MOL   H49039646   7.766   2.378   6.638 -1.4621 -3.0976 -1.0197
   79MOL   H49139647   0.087   2.441   6.440  1.0464 -0.4628 -1.1110
   79MOL   H49239648   0.078   2.272   6.425  1.0402 -0.8246 -1.1203
   79MOL   H49339649   0.323   2.414   6.514  1.9706 -0.3777  0.3982
   79MOL   H49439650   0.302   2.244   6.490 -2.2240 -1.8482 -0.3406
   79MOL   H49539651   0.248   2.263   6.268  2.2299 -0.3784 -2.6186
   79MOL   H49639652   0.292   2.429   6.249 -0.9863 -0.4463 -0.5004
   79MOL   H49739653   0.532   2.373   6.351  2.0710 -0.3899 -2.3091
   79MOL   H49839654   0.477   2.202   6.352 -0.7504  0.6929 -0.6439
   79MOL   H49939655   0.541   2.391   6.124 -0.4017 -0.2071 -1.4074
   79MOL   H50039656   0.595   2.223   6.144  1.0822  0.2846  0.4403
   79MOL   H50139657   0.431   2.246   6.113  0.2305  3.0520 -2.6988
   79MOL   H50239658   0.137   2.100   6.842  0.7470  0.8400  2.0605
   80MOL     C139659   7.043   2.813   4.770  0.1097  0.0640  0.2390
   80MOL     C239660   6.890   2.842   4.767  0.1066 -0.1606  0.3197
   80MOL     O339661   6.852   2.872   4.628  0.4106  0.4979  0.0178
   80MOL     C439662   6.824   2.756   4.551 -0.2477 -0.1012  0.4041
   80MOL     C539663   6.792   2.803   4.405 -0.3317 -0.6082  1.1731
   80MOL     C639664   6.917   2.810   4.310 -0.1082 -1.6871  0.0391
   80MOL     C739665   6.884   2.849   4.170 -0.9188  0.3995  0.5029
   80MOL     C839666   6.854   3.002   4.144  0.0150  0.1724 -0.6226
   80MOL     C939667   6.802   3.007   4.008  0.0963 -0.0134 -0.7625
   80MOL    H1039668   7.062   2.718   4.719  0.1181  0.2507 -0.1114
   80MOL    H1139669   7.102   2.891   4.721  0.1328 -0.8267 -1.1916
   80MOL    H1239670   6.837   2.753   4.801  0.4238 -1.9754 -3.6937
   80MOL    H1339671   6.738   2.700   4.588 -0.5490  0.4269  0.4989
   80MOL    H1439672   6.903   2.683   4.569 -2.8319 -3.0377  0.4413
   80MOL    H1539673   6.746   2.901   4.414  3.0800  1.1583  0.3183
   80MOL    H1639674   6.735   2.722   4.358  0.5119 -1.2444  1.2181
   80MOL    H1739675   6.979   2.888   4.354 -2.4464 -0.1253  0.6893
   80MOL    H1839676   6.973   2.717   4.301  2.9276  0.0634  0.4828
   80MOL    H1939677   6.948   2.816   4.089 -0.0953  0.9754  0.9126
   80MOL    H2039678   6.790   2.804   4.137  0.3441 -0.6219 -1.7523
   80MOL    H2139679   6.939   3.070   4.152 -0.3892  0.7762 -1.3709
   80MOL    H2239680   6.780   3.044   4.212  2.6037 -0.0651  2.4683
   80MOL    H2339681   6.719   2.939   3.989  0.4256 -0.3991 -0.8223
   80MOL    H2439682   6.775   3.110   3.985  0.7328  0.1166 -0.9380
   80MOL    H2539683   6.868   2.979   3.925 -1.1397  1.0549 -2.1315
   80MOL    H2639684   7.077   2.793   4.871 -2.1923 -0.9557  0.8415
   80MOL    C2739685   6.844   2.979   4.844 -0.4409  0.0850  0.3681
   80MOL    C2839686   6.693   2.983   4.874 -0.1479  0.0073 -0.1816
   80MOL    O2939687   6.671   2.874   4.965 -0.2657 -0.0050  0.2990
   80MOL    C3039688   6.534   2.851   4.997 -0.0664  0.2775  0.0126
   80MOL    C3139689   6.539   2.712   5.069 -0.0968  0.5416  0.4493
   80MOL    C3239690   6.400   2.685   5.126  0.2989 -0.2947 -0.8868
   80MOL    C3339691   6.397   2.547   5.198 -0.3737  0.3521  0.2860
   80MOL    C3439692   6.263   2.485   5.235  0.9942  0.4517  0.8216
   80MOL    C3539693   6.153   2.575   5.293 -0.1473  0.2124 -0.3511
   80MOL    H3639694   6.899   2.993   4.937  0.5162  0.3763 -0.2306
   80MOL    H3739695   6.864   3.058   4.772 -1.5726 -0.7784 -0.9136
   80MOL    H3839696   6.641   2.953   4.783 -0.0871 -1.5223  0.2718
   80MOL    H3939697   6.476   2.838   4.906 -3.1530  0.1325  1.9336
   80MOL    H4039698   6.485   2.932   5.051 -1.5435  0.1456 -1.0927
   80MOL    H4139699   6.607   2.703   5.154 -0.0572  0.6074  0.4239
   80MOL    H4239700   6.576   2.639   4.997 -2.3480  1.3585 -1.6101
   80MOL    H4339701   6.376   2.765   5.195  1.2646 -1.9398  1.4265
   80MOL    H4439702   6.329   2.687   5.043 -1.7365  0.9632  0.8334
   80MOL    H4539703   6.457   2.479   5.137 -0.6226 -1.1821  1.7030
   80MOL    H4639704   6.460   2.540   5.287 -1.3347 -0.8690  0.8846
   80MOL    H4739705   6.215   2.436   5.150 -0.8525 -1.6108  2.9793
   80MOL    H4839706   6.279   2.400   5.301 -0.3925 -0.2335  0.2990
   80MOL    H4939707   6.062   2.516   5.308  0.7339 -1.0139  0.2753
   80MOL    H5039708   6.191   2.616   5.387 -0.0389 -1.5550  0.3963
   80MOL    H5139709   6.127   2.656   5.224 -0.8161  1.0355  0.8446
   80MOL    C5239710   6.643   3.122   4.929 -0.5185 -0.3755 -0.4506
   80MOL    C5339711   6.617   3.236   4.834  0.2179  0.2615 -0.0565
   80MOL    O5439712   6.480   3.224   4.801  0.5438  0.1610 -0.7208
   80MOL    C5539713   6.456   3.188   4.669  0.2142  0.0596  0.3410
   80MOL    C5639714   6.310   3.182   4.647 -0.0719  0.2529 -0.2016
   80MOL    C5739715   6.244   3.094   4.754 -0.0223  0.6821 -0.6430
   80MOL    C5839716   6.093   3.068   4.744  0.4518  0.6151  0.3660
   80MOL    C5939717   6.042   2.980   4.862 -0.2532 -0.0726  0.3354
   80MOL    C6039718   5.894   2.936   4.852 -0.5065 -0.1411 -1.0119
   80MOL    H6139719   6.724   3.151   4.995  0.1958 -1.1999 -0.9589
   80MOL    H6239720   6.559   3.106   4.997  0.3875 -0.4998  0.6564
   80MOL    H6339721   6.683   3.223   4.748 -2.0189  1.3997 -2.0249
   80MOL    H6439722   6.491   3.085   4.663 -0.4195 -0.1449  0.1794
   80MOL    H6539723   6.503   3.253   4.595  0.7166 -0.0435  0.5658
   80MOL    H6639724   6.306   3.145   4.544 -0.6447  0.0508 -0.1077
   80MOL    H6739725   6.268   3.282   4.649  0.6369  0.5634 -0.6021
   80MOL    H6839726   6.301   3.002   4.754  0.2070  0.8185 -1.6758
   80MOL    H6939727   6.263   3.141   4.851  1.8645  0.0374 -0.6745
   80MOL    H7039728   6.035   3.159   4.734  1.4480  0.9200 -3.3784
   80MOL    H7139729   6.078   3.009   4.653  0.5157  0.6744  0.3170
   80MOL    H7239730   6.103   2.890   4.852  1.6714  1.1314  0.9610
   80MOL    H7339731   6.068   3.030   4.956 -0.2533 -0.7802  0.7096
   80MOL    H7439732   5.833   3.023   4.875 -0.3857 -0.7247  1.6174
   80MOL    H7539733   5.877   2.897   4.751 -0.5831  2.1180 -1.9008
   80MOL    H7639734   5.858   2.849   4.907 -0.8515  1.0905  0.7484
   80MOL    C7739735   6.638   3.377   4.897  0.0653 -0.2361 -0.4136
   80MOL    C7839736   6.649   3.488   4.792  0.2233 -0.9883  0.0168
   80MOL    O7939737   6.762   3.477   4.708 -0.4830 -0.1628 -0.3813
   80MOL    C8039738   6.734   3.493   4.568 -0.8234 -0.4264  1.0587
   80MOL    C8139739   6.856   3.427   4.491  0.1458 -0.1024  0.5254
   80MOL    C8239740   6.878   3.276   4.535 -0.3615 -0.3020  0.1604
   80MOL    C8339741   6.981   3.201   4.445  0.2542 -0.5499 -0.4112
   80MOL    C8439742   7.126   3.261   4.441  0.6065  0.0789  1.1969
   80MOL    C8539743   7.202   3.233   4.316 -0.2747  0.3721 -1.0094
   80MOL    H8639744   6.739   3.375   4.938 -0.1041  1.9069  0.1634
   80MOL    H8739745   6.567   3.398   4.977  0.5952 -1.5973  0.4289
   80MOL    H8839746   6.559   3.484   4.731 -2.4612  2.1164  3.5083
   80MOL    H8939747   6.718   3.598   4.547 -1.1064 -0.3452  1.6651
   80MOL    H9039748   6.640   3.439   4.551  0.5835 -2.5360 -0.2867
   80MOL    H9139749   6.944   3.485   4.514 -0.7464  1.2428  0.5785
   80MOL    H9239750   6.836   3.431   4.384 -0.1667  2.1321  0.6547
   80MOL    H9339751   6.897   3.268   4.642 -1.7281  4.1493  0.8475
   80MOL    H9439752   6.786   3.221   4.516 -0.8593  0.5824 -0.0567
   80MOL    H9539753   6.990   3.095   4.469 -1.3325 -0.5846  0.0756
   80MOL    H9639754   6.941   3.208   4.344 -0.9055 -0.7003  0.0391
   80MOL    H9739755   7.127   3.369   4.453 -0.4484  0.7505 -3.6531
   80MOL    H9839756   7.180   3.217   4.525 -1.2814 -2.1223  1.3009
   80MOL    H9939757   7.157   3.299   4.242 -1.2198  0.4558 -0.3743
   80MOL   H10039758   7.310   3.243   4.321 -0.0312 -2.0192 -1.0920
   80MOL   H10139759   7.172   3.130   4.296 -1.9778  0.6802 -0.1589
   80MOL   C10239760   6.641   3.628   4.862 -0.0549 -0.5015 -0.5391
   80MOL   C10339761   6.499   3.680   4.906 -0.5790  0.3837 -0.2710
   80MOL   O10439762   6.474   3.603   5.022  0.4578  0.3835 -0.5572
   80MOL   C10539763   6.337   3.601   5.071  0.1477 -0.6597 -0.1244
   80MOL   C10639764   6.252   3.523   4.971 -0.1841 -0.0977 -0.3278
   80MOL   C10739765   6.139   3.455   5.048 -0.2278  0.3177  0.5349
   80MOL   C10839766   6.038   3.392   4.950 -0.0721  0.3422  0.0326
   80MOL   C10939767   5.927   3.321   5.028 -0.5379 -0.3139  0.2297
   80MOL   C11039768   5.831   3.413   5.114  0.6421  0.1627  0.8420
   80MOL   H11139769   6.712   3.628   4.944  0.2370 -0.3722 -0.7948
   80MOL   H11239770   6.680   3.697   4.788  1.0365 -1.0167 -0.4579
   80MOL   H11339771   6.426   3.665   4.826 -1.4331 -1.6249  0.8309
   80MOL   H11439772   6.287   3.696   5.091 -0.6574 -0.4693 -2.8440
   80MOL   H11539773   6.329   3.545   5.164  2.6879  2.1881  1.9013
   80MOL   H11639774   6.307   3.440   4.926 -0.8603 -1.6248  1.5786
   80MOL   H11739775   6.221   3.589   4.890  0.9168  0.7892 -0.0418
   80MOL   H11839776   6.175   3.394   5.130 -3.0118  0.3484  1.8163
   80MOL   H11939777   6.085   3.536   5.098 -0.6426 -0.8158  1.9314
   80MOL   H12039778   5.998   3.476   4.893  0.4824  0.6334  0.0688
   80MOL   H12139779   6.070   3.314   4.881 -0.2745 -0.6441  1.0468
   80MOL   H12239780   5.857   3.272   4.960  0.0941 -0.3824 -0.3680
   80MOL   H12339781   5.966   3.246   5.097 -1.2901 -0.5500  0.4067
   80MOL   H12439782   5.886   3.453   5.199  3.9872  0.7597 -1.5268
   80MOL   H12539783   5.784   3.493   5.058  1.1979 -0.0482  0.0707
   80MOL   H12639784   5.749   3.351   5.150  0.2443  1.2129  1.7712
   80MOL   C12739785   6.490   3.836   4.935 -0.4064 -0.2023  0.2728
   80MOL   C12839786   6.471   3.933   4.817 -0.2254  0.0912  0.1279
   80MOL   O12939787   6.463   4.060   4.885  0.1616 -0.0336  0.2746
   80MOL   C13039788   6.499   4.174   4.805 -0.0964  0.0583 -0.3150
   80MOL   C13139789   6.462   4.303   4.884 -0.0368 -0.8696 -0.0635
   80MOL   C13239790   6.315   4.333   4.900 -0.4590 -0.2804 -0.1105
   80MOL   C13339791   6.288   4.454   4.990 -0.8934 -0.4862 -0.1190
   80MOL   C13439792   6.144   4.476   5.041  0.0029  0.7646  0.2589
   80MOL   C13539793   6.129   4.608   5.107  0.4124 -0.2717 -0.2985
   80MOL   H13639794   6.410   3.861   5.004  0.4174 -1.8029  1.8492
   80MOL   H13739795   6.573   3.856   5.004  0.2146 -0.8559 -0.2779
   80MOL   H13839796   6.560   3.940   4.755  1.3198 -0.2222  2.2690
   80MOL   H13939797   6.465   4.177   4.702 -0.8087 -0.2977 -0.0885
   80MOL   H14039798   6.608   4.175   4.798 -0.1382 -0.8828 -1.2493
   80MOL   H14139799   6.495   4.389   4.826  0.9063 -1.9724 -1.2049
   80MOL   H14239800   6.521   4.311   4.975  0.5916 -1.4599 -0.4133
   80MOL   H14339801   6.254   4.339   4.810 -1.4867 -1.7556  0.4618
   80MOL   H14439802   6.270   4.253   4.960  0.4673 -1.4966 -1.0330
   80MOL   H14539803   6.348   4.453   5.081 -3.1134 -2.0930  1.3753
   80MOL   H14639804   6.330   4.541   4.940 -1.1840 -0.8199 -0.9366
   80MOL   H14739805   6.081   4.484   4.952  1.3087 -0.6804 -0.8409
   80MOL   H14839806   6.109   4.395   5.104  1.3023 -0.0435 -0.0220
   80MOL   H14939807   6.189   4.685   5.058  2.1495 -1.0734  0.5392
   80MOL   H15039808   6.024   4.635   5.115  0.9229  2.0253 -0.9487
   80MOL   H15139809   6.158   4.599   5.212 -2.8443 -0.2670  0.6497
   80MOL   C15239810   6.347   3.911   4.722  0.7580  0.2015 -0.4554
   80MOL   C15339811   6.375   3.855   4.584 -0.4740 -0.3466 -0.1662
   80MOL   O15439812   6.259   3.785   4.531 -0.0772  0.2684  0.5475
   80MOL   C15539813   6.249   3.645   4.536  0.3096 -0.1455 -0.5434
   80MOL   C15639814   6.133   3.597   4.447 -0.7474 -0.5870 -0.8891
   80MOL   C15739815   6.119   3.449   4.471 -0.0597 -0.6474  0.2395
   80MOL   C15839816   6.020   3.387   4.380  0.0468 -0.4331  0.7202
   80MOL   C15939817   6.022   3.234   4.395 -0.4322 -0.0321 -0.1328
   80MOL   C16039818   5.945   3.159   4.286  0.1716 -0.3052 -0.1319
   80MOL   H16139819   6.282   3.843   4.778  0.2047  0.5560 -0.6710
   80MOL   H16239820   6.290   4.003   4.719 -2.4867 -1.6311  1.7268
   80MOL   H16339821   6.457   3.784   4.594  0.9149  1.1245 -0.9761
   80MOL   H16439822   6.230   3.617   4.640  2.5368 -2.3825 -0.6813
   80MOL   H16539823   6.340   3.593   4.505  2.0244  2.3749  0.0742
   80MOL   H16639824   6.155   3.621   4.343  0.0893  1.5690 -0.2438
   80MOL   H16739825   6.037   3.645   4.466 -0.2401 -0.0805  0.5047
   80MOL   H16839826   6.218   3.404   4.461 -0.5717 -1.2232 -3.0525
   80MOL   H16939827   6.096   3.430   4.575  0.5896  1.3973  0.7663
   80MOL   H17039828   5.921   3.424   4.409  0.6074 -1.1076  3.5849
   80MOL   H17139829   6.056   3.421   4.283 -1.4664  0.4688  0.4562
   80MOL   H17239830   6.125   3.198   4.399  0.6691  3.0865  1.5741
   80MOL   H17339831   5.983   3.213   4.495  2.0697 -0.4992  0.7937
   80MOL   H17439832   5.851   3.214   4.282  0.9279  1.1647  1.3432
   80MOL   H17539833   5.994   3.168   4.189 -1.5763 -1.7294 -1.1692
   80MOL   H17639834   5.935   3.055   4.316 -0.3533  0.2054  1.5037
   80MOL   C17739835   6.420   3.961   4.488  0.3737 -0.3093  0.2482
   80MOL   C17839836   6.468   3.895   4.356  0.3857 -0.4164  0.7924
   80MOL   O17939837   6.441   3.964   4.240  0.7229 -0.2853 -0.3380
   80MOL   C18039838   6.310   3.945   4.185 -0.0340  0.3199 -0.4216
   80MOL   C18139839   6.306   4.026   4.052  0.3525 -0.0188  0.2163
   80MOL   C18239840   6.280   4.173   4.077 -0.4410  0.3595 -0.4188
   80MOL   C18339841   6.275   4.251   3.942 -0.0339 -0.0526 -0.0291
   80MOL   C18439842   6.219   4.390   3.976  0.5666 -0.6568  0.0745
   80MOL   C18539843   6.242   4.490   3.860  0.4062  0.0122  0.0916
   80MOL   H18639844   6.328   4.011   4.460  0.3374  0.1599  1.1614
   80MOL   H18739845   6.497   4.017   4.543 -0.8292 -0.9751  2.6493
   80MOL   H18839846   6.409   3.805   4.339 -1.3987  1.1421 -1.6468
   80MOL   H18939847   6.235   3.968   4.260  0.2713  0.5424 -0.1873
   80MOL   H19039848   6.299   3.840   4.157 -0.1709  0.1135  0.3857
   80MOL   H19139849   6.240   3.979   3.979 -0.5395  0.4030  0.7342
   80MOL   H19239850   6.406   4.014   4.011  0.5222  0.2508  0.5474
   80MOL   H19339851   6.181   4.182   4.122  0.4920  0.0367  1.7485
   80MOL   H19439852   6.353   4.219   4.144 -1.8739  1.0169  0.7289
   80MOL   H19539853   6.380   4.250   3.911  0.2794  1.6981  0.9577
   80MOL   H19639854   6.206   4.203   3.873  1.8357 -2.4135 -0.3465
   80MOL   H19739855   6.113   4.378   3.994  0.9504 -0.5092  2.5188
   80MOL   H19839856   6.252   4.448   4.062  0.6279 -0.0981 -0.3278
   80MOL   H19939857   6.195   4.448   3.771 -1.8763  0.2767  1.1409
   80MOL   H20039858   6.210   4.591   3.886 -0.5886  0.1689 -1.6040
   80MOL   H20139859   6.348   4.492   3.835  0.3207  2.1376 -0.1610
   80MOL   C20239860   6.615   3.848   4.358  0.5582 -0.7412  0.4290
   80MOL   C20339861   6.655   3.762   4.239  0.6054 -0.3731 -0.0043
   80MOL   O20439862   6.601   3.628   4.261 -0.2337 -0.0213  0.3504
   80MOL   C20539863   6.510   3.592   4.159  0.0968  0.3157  0.1091
   80MOL   C20639864   6.444   3.457   4.200  0.0458  0.7838  0.4452
   80MOL   C20739865   6.556   3.350   4.233  0.2763  0.3898  0.1154
   80MOL   C20839866   6.507   3.217   4.298 -0.4242  0.5315  0.1030
   80MOL   C20939867   6.412   3.124   4.217  0.2705 -0.0936  1.0179
   80MOL   C21039868   6.400   2.982   4.281  0.4077 -0.3802  0.7508
   80MOL   H21139869   6.673   3.941   4.357  1.8821 -1.5616  0.0281
   80MOL   H21239870   6.651   3.798   4.449 -0.3212 -1.5603  0.3320
   80MOL   H21339871   6.631   3.816   4.147  0.1676  0.0707  0.3695
   80MOL   H21439872   6.566   3.572   4.068  0.8001  1.5223  0.2707
   80MOL   H21539873   6.425   3.660   4.151  1.0355  1.3307 -1.5476
   80MOL   H21639874   6.372   3.410   4.133  2.0810 -2.3938  0.3981
   80MOL   H21739875   6.384   3.484   4.287  2.9392 -1.6551  3.3276
   80MOL   H21839876   6.622   3.342   4.147  3.5720 -0.8244  2.6671
   80MOL   H21939877   6.620   3.396   4.308  0.4059 -1.9346  1.4702
   80MOL   H22039878   6.594   3.160   4.331  0.2160  0.8807 -0.9549
   80MOL   H22139879   6.459   3.239   4.393  1.8788  0.5277  1.2842
   80MOL   H22239880   6.309   3.160   4.222 -0.3902 -1.7302 -0.4645
   80MOL   H22339881   6.442   3.116   4.113  2.8593  0.1666  1.7023
   80MOL   H22439882   6.377   2.998   4.387  0.2293  4.0523  0.1387
   80MOL   H22539883   6.322   2.922   4.234  0.9013 -1.0431  0.7579
   80MOL   H22639884   6.500   2.939   4.286  1.0293  1.0794  1.1394
   80MOL   C22739885   6.807   3.751   4.241 -0.2187  0.0453  0.3838
   80MOL   C22839886   6.883   3.716   4.112  0.7224  0.2592  0.2616
   80MOL   O22939887   7.009   3.760   4.129 -0.4027  0.2483  0.3352
   80MOL   C23039888   7.052   3.874   4.058 -0.6057  0.4164 -0.3682
   80MOL   C23139889   7.166   3.945   4.131  0.2512 -0.2472 -0.0605
   80MOL   C23239890   7.118   4.005   4.272 -0.7149 -0.1146 -0.1733
   80MOL   C23339891   7.238   4.091   4.327  0.1343 -0.1812 -0.6650
   80MOL   C23439892   7.229   4.125   4.480  0.2021 -0.1619  0.5842
   80MOL   C23539893   7.344   4.209   4.517  0.1939  0.0505 -0.2209
   80MOL   H23639894   6.844   3.850   4.268 -0.1566  0.8150 -2.3159
   80MOL   H23739895   6.833   3.683   4.321 -0.6256  0.8374  1.2052
   80MOL   H23839896   6.842   3.750   4.017 -1.3937 -0.4806  0.8777
   80MOL   H23939897   6.967   3.942   4.058 -1.3178 -0.4643 -1.1626
   80MOL   H24039898   7.082   3.846   3.957  1.0194  0.6847  0.0311
   80MOL   H24139899   7.203   4.020   4.061 -0.2947 -0.4738 -0.5994
   80MOL   H24239900   7.247   3.872   4.137 -1.1372 -1.6953  1.5782
   80MOL   H24339901   7.029   4.067   4.267 -0.8789 -0.2318  1.2977
   80MOL   H24439902   7.093   3.921   4.337 -1.6995  0.9161  0.8007
   80MOL   H24539903   7.329   4.032   4.312  1.1227  1.0163  0.5015
   80MOL   H24639904   7.264   4.174   4.261 -1.6979 -0.3368 -1.6008
   80MOL   H24739905   7.134   4.174   4.499 -1.2150 -2.2634 -0.8344
   80MOL   H24839906   7.231   4.033   4.539 -2.0317  0.1397  1.1357
   80MOL   H24939907   7.319   4.263   4.609 -1.4495 -0.0609 -0.5893
   80MOL   H25039908   7.419   4.134   4.541 -0.3453 -0.8423 -1.3240
   80MOL   H25139909   7.380   4.279   4.442  1.2431 -1.0249 -0.7233
   80MOL   C25239910   6.902   3.564   4.100  0.5813  0.3235  0.3545
   80MOL   C25339911   6.963   3.514   3.969 -0.4217 -0.4759 -0.8052
   80MOL   O25439912   6.874   3.549   3.869 -0.4908 -0.2923 -0.9408
   80MOL   C25539913   6.922   3.618   3.762 -0.3594 -0.7075  0.4875
   80MOL   C25639914   6.809   3.647   3.661  0.4027 -0.1430  0.1218
   80MOL   C25739915   6.694   3.745   3.703 -0.2374  0.1044 -0.2853
   80MOL   C25839916   6.564   3.675   3.741  0.2755  0.2544  0.5288
   80MOL   C25939917   6.453   3.769   3.792  0.1191 -0.2966 -0.0422
   80MOL   C26039918   6.332   3.686   3.828  0.3609  0.0642 -0.3055
   80MOL   H26139919   6.961   3.523   4.182 -0.1632 -0.8718  0.3222
   80MOL   H26239920   6.802   3.520   4.099 -0.6519  3.0172  1.7172
   80MOL   H26339921   7.060   3.560   3.949 -0.2972 -0.8625 -1.0883
   80MOL   H26439922   7.006   3.570   3.712 -1.7043 -1.7390 -0.8152
   80MOL   H26539923   6.969   3.709   3.799  0.6476 -1.4188  0.9691
   80MOL   H26639924   6.761   3.550   3.654  0.8958 -0.4892  1.3040
   80MOL   H26739925   6.849   3.664   3.561  0.0088 -0.1767 -0.0402
   80MOL   H26839926   6.729   3.812   3.782 -0.7429  0.6282 -0.4995
   80MOL   H26939927   6.672   3.817   3.624  3.8307  0.3412 -1.3239
   80MOL   H27039928   6.520   3.624   3.656 -1.6063  1.1557  0.9495
   80MOL   H27139929   6.580   3.601   3.820 -0.7699 -2.6695 -1.9301
   80MOL   H27239930   6.484   3.821   3.883 -1.4787  0.1290  0.2733
   80MOL   H27339931   6.426   3.847   3.722  3.0045 -0.3759 -1.3368
   80MOL   H27439932   6.355   3.604   3.896 -3.0073  0.5469  1.5634
   80MOL   H27539933   6.253   3.749   3.871 -1.0724 -1.8075 -0.1179
   80MOL   H27639934   6.284   3.639   3.742 -0.9672 -1.9401  1.4775
   80MOL   C27739935   6.976   3.359   3.979  0.8536 -0.2051  0.8805
   80MOL   C27839936   7.026   3.286   3.849  0.5326 -0.3532 -0.2095
   80MOL   O27939937   7.068   3.155   3.898  0.1632  0.3387  0.0725
   80MOL   C28039938   7.209   3.136   3.902  0.1341 -0.2409  0.6039
   80MOL   C28139939   7.252   2.998   3.952  0.0293 -0.3397  0.0372
   80MOL   C28239940   7.200   2.884   3.864  0.5158  0.3315  0.2120
   80MOL   C28339941   7.266   2.748   3.893  0.1362  0.3452 -0.3639
   80MOL   C28439942   7.236   2.696   4.036 -0.7854  0.6068  0.1928
   80MOL   C28539943   7.329   2.572   4.064 -0.2132  0.1912 -0.2020
   80MOL   H28639944   7.060   3.344   4.046  0.4872 -0.9160  1.1788
   80MOL   H28739945   6.886   3.312   4.019 -0.7372 -0.5315 -2.8599
   80MOL   H28839946   7.113   3.343   3.817  0.1120 -0.5665 -1.7253
   80MOL   H28939947   7.259   3.213   3.960 -0.4681  1.4732 -1.0849
   80MOL   H29039948   7.231   3.154   3.797  0.8703  1.0957  0.9816
   80MOL   H29139949   7.222   2.988   4.056  1.2354 -0.2606  0.4082
   80MOL   H29239950   7.361   3.003   3.953  0.1329 -2.6641  2.2316
   80MOL   H29339951   7.092   2.874   3.868  0.6029 -0.7154 -0.0172
   80MOL   H29439952   7.212   2.908   3.758  2.5623 -0.2069  0.3023
   80MOL   H29539953   7.243   2.666   3.825 -1.4482  0.9692 -0.6044
   80MOL   H29639954   7.374   2.762   3.901 -0.0709  0.9164  1.8004
   80MOL   H29739955   7.261   2.773   4.109 -0.0313 -0.7498  1.3892
   80MOL   H29839956   7.131   2.674   4.054 -0.4871 -0.4122  0.7449
   80MOL   H29939957   7.323   2.500   3.983 -0.8188  2.1133 -1.9138
   80MOL   H30039958   7.431   2.608   4.080 -0.2420  0.1212  0.1420
   80MOL   H30139959   7.308   2.524   4.160 -2.2098  0.6210 -0.4004
   80MOL   C30239960   6.924   3.252   3.738  0.3010  0.0899  0.1023
   80MOL   C30339961   6.996   3.199   3.615 -0.1377 -0.6356  0.3209
   80MOL   O30439962   7.054   3.320   3.551 -0.3111 -0.6918 -0.4039
   80MOL   C30539963   7.195   3.318   3.536 -0.5081 -0.3644 -0.3387
   80MOL   C30639964   7.236   3.438   3.446  0.3929  0.4044 -0.4436
   80MOL   C30739965   7.190   3.574   3.503 -0.0949  0.2533 -0.2918
   80MOL   C30839966   7.250   3.687   3.420 -0.3886  0.1563 -0.0509
   80MOL   C30939967   7.152   3.715   3.303  0.0039 -0.0291  0.6620
   80MOL   C31039968   7.211   3.795   3.189  0.3164  0.0853 -0.0986
   80MOL   H31139969   6.850   3.182   3.776  0.6687 -1.6970 -2.3608
   80MOL   H31239970   6.865   3.341   3.716 -2.3995 -1.5221  0.6411
   80MOL   H31339971   7.078   3.130   3.635 -0.0674 -0.7578 -0.3533
   80MOL   H31439972   7.222   3.227   3.483  0.0626 -1.0597  1.1136
   80MOL   H31539973   7.244   3.327   3.633 -0.4210 -0.4345 -0.3760
   80MOL   H31639974   7.187   3.427   3.349 -1.4561 -0.2353  0.5369
   80MOL   H31739975   7.341   3.443   3.418  0.5670  2.9006  0.5195
   80MOL   H31839976   7.083   3.592   3.515 -0.0550  0.1396  0.2526
   80MOL   H31939977   7.236   3.588   3.601  0.3544 -1.6562 -0.2029
   80MOL   H32039978   7.254   3.777   3.480 -1.2829 -1.1373  2.0035
   80MOL   H32139979   7.353   3.665   3.390  0.0013 -0.5940  1.7679
   80MOL   H32239980   7.101   3.629   3.261 -2.1256  1.5183 -0.0167
   80MOL   H32339981   7.070   3.766   3.354  0.2626  1.2700 -0.1959
   80MOL   H32439982   7.264   3.736   3.114  0.3811 -0.6807  0.5404
   80MOL   H32539983   7.136   3.849   3.132 -0.7450 -1.1572  0.1047
   80MOL   H32639984   7.294   3.856   3.225  0.4192 -0.3393  0.3997
   80MOL   C32739985   6.889   3.135   3.517  0.4629 -0.3471  0.4422
   80MOL   C32839986   6.902   2.988   3.490 -0.2584  0.0010 -0.0229
   80MOL   O32939987   7.042   2.961   3.462 -0.1022  0.3266  0.1109
   80MOL   C33039988   7.089   2.974   3.326 -0.4960 -0.5565 -0.0369
   80MOL   C33139989   7.233   2.913   3.309  0.4478 -0.1093 -0.3402
   80MOL   C33239990   7.287   2.898   3.166 -0.1696  0.3101 -0.0406
   80MOL   C33339991   7.402   2.802   3.153  0.4492 -0.3408 -0.0298
   80MOL   C33439992   7.463   2.800   3.008 -0.3302  0.3323 -0.3573
   80MOL   C33539993   7.590   2.708   2.991 -0.3718 -0.2018 -0.3381
   80MOL   H33639994   6.909   3.199   3.432 -1.8184  0.4993  0.4971
   80MOL   H33739995   6.785   3.164   3.534  0.3951 -0.1706 -0.2958
   80MOL   H33839996   6.839   2.943   3.413 -1.3322  0.4310  0.5931
   80MOL   H33939997   7.095   3.080   3.304  0.7970 -0.0718  2.5287
   80MOL   H34039998   7.022   2.921   3.258  1.1041 -1.1291 -1.2099
   80MOL   H34139999   7.237   2.815   3.356  1.6972 -1.0453 -2.3591
   80MOL   H34240000   7.297   2.974   3.373 -2.4181  1.6820  0.9215
   80MOL   H34340001   7.210   2.861   3.098 -0.2030 -0.4087  0.3920
   80MOL   H34440002   7.322   2.996   3.132 -1.8618  0.2161 -2.1470
   80MOL   H34540003   7.471   2.831   3.232 -1.6862  0.5964  1.5347
   80MOL   H34640004   7.367   2.702   3.179 -0.4968  0.3791  1.5391
   80MOL   H34740005   7.386   2.762   2.940 -1.5234  0.5333  0.8462
   80MOL   H34840006   7.488   2.895   2.962  0.8149 -0.7951 -2.1119
   80MOL   H34940007   7.550   2.610   3.014 -3.4614  1.1177  0.2658
   80MOL   H35040008   7.627   2.725   2.889  1.2746 -3.0782 -0.2626
   80MOL   H35140009   7.673   2.732   3.057  0.2349 -0.0686 -1.1459
   80MOL   C35240010   6.865   2.894   3.613  0.3975  0.5702 -0.5436
   80MOL   C35340011   6.718   2.879   3.642  0.4624  0.5060  0.2261
   80MOL   O35440012   6.659   3.001   3.674  0.0049 -0.6697 -0.4388
   80MOL   C35540013   6.527   3.021   3.622 -0.2718  0.5829  1.1476
   80MOL   C35640014   6.457   3.141   3.683 -0.0198 -0.0739  0.4621
   80MOL   C35740015   6.318   3.167   3.617  0.4264 -0.0664  0.0820
   80MOL   C35840016   6.246   3.290   3.657 -0.1841  0.3180 -0.0561
   80MOL   C35940017   6.233   3.304   3.813  0.4837 -0.2599  0.2659
   80MOL   C36040018   6.177   3.187   3.893  0.1173  0.5880 -0.0001
   80MOL   H36140019   6.902   2.794   3.594 -0.5816  0.0877  0.0695
   80MOL   H36240020   6.908   2.942   3.701 -1.9513  1.9990 -0.1376
   80MOL   H36340021   6.679   2.841   3.547  0.0930  1.2999  0.0558
   80MOL   H36440022   6.473   2.931   3.653 -1.0247  1.6339  2.9663
   80MOL   H36540023   6.538   3.032   3.514  2.0125 -0.2986  1.2602
   80MOL   H36640024   6.520   3.229   3.674  0.2297 -0.4457 -1.5059
   80MOL   H36740025   6.437   3.126   3.789 -0.3062  1.1313  0.5836
   80MOL   H36840026   6.337   3.160   3.510  0.4408  1.8641 -0.0450
   80MOL   H36940027   6.252   3.083   3.640 -0.0011  0.0648 -0.6486
   80MOL   H37040028   6.292   3.375   3.607  0.5019  0.6383  1.1029
   80MOL   H37140029   6.148   3.281   3.610 -0.3153  0.3432  0.2142
   80MOL   H37240030   6.334   3.321   3.852 -0.3262  1.0233  1.8281
   80MOL   H37340031   6.173   3.392   3.836  0.5792 -0.8540  2.8649
   80MOL   H37440032   6.069   3.177   3.888 -0.0374 -1.1491  4.5322
   80MOL   H37540033   6.231   3.092   3.891 -1.6430 -0.4274  0.0992
   80MOL   H37640034   6.189   3.204   4.000 -1.6764 -1.1747  0.5125
   80MOL   C37740035   6.686   2.784   3.756 -0.5228  0.0514 -0.2463
   80MOL   C37840036   6.643   2.644   3.700  0.2551 -0.0402 -0.1496
   80MOL   O37940037   6.517   2.652   3.637 -0.2093 -1.0474 -0.7005
   80MOL   C38040038   6.518   2.605   3.501 -0.9305  0.4831 -0.4411
   80MOL   C38140039   6.374   2.631   3.454  0.1097  0.0062  0.0112
   80MOL   C38240040   6.336   2.779   3.449  0.5719  0.1803  0.4061
   80MOL   C38340041   6.198   2.794   3.382  0.4078  0.1863 -0.7748
   80MOL   C38440042   6.141   2.934   3.398 -0.2531 -0.3861  0.3013
   80MOL   C38540043   6.013   2.956   3.316 -0.9244  0.2152  0.2914
   80MOL   H38640044   6.764   2.775   3.832  0.1800  0.7681 -0.8816
   80MOL   H38740045   6.599   2.828   3.805 -0.3470 -1.8510  1.8683
   80MOL   H38840046   6.721   2.608   3.632  1.5227  0.3334  1.0918
   80MOL   H38940047   6.549   2.500   3.497  1.2369  1.0403  1.2935
   80MOL   H39040048   6.588   2.668   3.447  2.2493 -2.6928 -0.2380
   80MOL   H39140049   6.309   2.581   3.525  0.2839  2.0343  1.6408
   80MOL   H39240050   6.364   2.586   3.355 -2.6646 -1.6735  1.0225
   80MOL   H39340051   6.324   2.809   3.553 -0.4669 -1.5030  0.7960
   80MOL   H39440052   6.417   2.828   3.395 -1.3071  1.0566 -1.7221
   80MOL   H39540053   6.206   2.762   3.278 -1.2507  0.8903 -1.1436
   80MOL   H39640054   6.126   2.718   3.414  1.2365 -0.7346 -1.0820
   80MOL   H39740055   6.112   2.946   3.503 -1.2427  1.1630 -0.1338
   80MOL   H39840056   6.216   3.011   3.382 -1.2937  0.2367 -1.7192
   80MOL   H39940057   5.957   3.036   3.365  0.5570  0.0561  2.3397
   80MOL   H40040058   6.027   2.994   3.215  2.1777  2.3932  1.4422
   80MOL   H40140059   5.956   2.864   3.307  1.4958 -1.3620  0.7590
   80MOL   C40240060   6.606   2.560   3.821  0.5371 -0.5514 -0.0352
   80MOL   C40340061   6.720   2.520   3.910 -0.7788  0.2244  0.0219
   80MOL   O40440062   6.810   2.446   3.825  0.0976  0.1657 -0.4750
   80MOL   C40540063   6.940   2.497   3.815 -0.9072  0.8355 -0.1814
   80MOL   C40640064   7.026   2.403   3.735  0.6461  0.1706 -0.7446
   80MOL   C40740065   7.044   2.267   3.798 -0.1857  0.1653  1.0056
   80MOL   C40840066   7.126   2.262   3.925 -0.6814 -0.2255  0.2131
   80MOL   C40940067   7.108   2.127   3.988  0.0704  0.1172  0.1489
   80MOL   C41040068   7.209   2.098   4.096 -0.6554  0.7742 -0.7487
   80MOL   H41140069   6.546   2.472   3.802 -0.7798 -0.0577  1.7435
   80MOL   H41240070   6.532   2.610   3.883  0.0422  2.4526 -2.9089
   80MOL   H41340071   6.758   2.605   3.967 -0.3514  1.3304 -1.8700
   80MOL   H41440072   6.983   2.511   3.914  1.3500 -3.4609 -0.4380
   80MOL   H41540073   6.929   2.587   3.755  0.1129 -0.8122 -2.9354
   80MOL   H41640074   7.122   2.454   3.724  0.2915  1.5888  2.2957
   80MOL   H41740075   6.991   2.391   3.632  0.9586  3.2377 -1.2710
   80MOL   H41840076   6.947   2.223   3.820 -1.1326  1.6995 -0.0320
   80MOL   H41940077   7.090   2.198   3.727  0.2769  0.2850  1.1825
   80MOL   H42040078   7.230   2.286   3.904 -1.2487  1.0713 -1.2191
   80MOL   H42140079   7.095   2.330   4.005  2.2157 -0.5443  1.6707
   80MOL   H42240080   7.006   2.123   4.029 -0.7452 -1.0819 -1.9193
   80MOL   H42340081   7.108   2.039   3.923  1.0998 -0.1210  0.4599
   80MOL   H42440082   7.184   2.008   4.154 -0.6960  1.7863  0.8310
   80MOL   H42540083   7.305   2.075   4.050  0.5444  0.2689  1.9196
   80MOL   H42640084   7.229   2.188   4.154 -1.2745  0.5984 -0.2427
   80MOL   C42740085   6.681   2.406   4.003  0.0445 -0.0064  0.4967
   80MOL   C42840086   6.630   2.457   4.147 -0.4369 -0.2094  0.1918
   80MOL   O42940087   6.487   2.455   4.157  0.2261 -0.3525  0.0849
   80MOL   C43040088   6.438   2.564   4.234 -0.1071  0.4671  0.4047
   80MOL   C43140089   6.289   2.561   4.208  0.0584 -0.2252  0.1891
   80MOL   C43240090   6.255   2.618   4.065  0.6725  0.4797 -1.5665
   80MOL   C43340091   6.103   2.657   4.053 -0.2736 -0.4243  0.2349
   80MOL   C43440092   6.037   2.678   3.916  0.2904 -0.2790  0.2398
   80MOL   C43540093   6.115   2.773   3.822  0.3034  0.2912  0.3895
   80MOL   H43640094   6.591   2.365   3.956 -0.8363  0.9662  1.2919
   80MOL   H43740095   6.750   2.322   4.000  1.8736  1.5351 -1.0100
   80MOL   H43840096   6.677   2.549   4.181  0.5807 -0.2693 -1.0161
   80MOL   H43940097   6.481   2.658   4.201  0.0667 -0.2265 -1.4283
   80MOL   H44040098   6.445   2.539   4.340  1.7960 -2.7011 -0.3854
   80MOL   H44140099   6.249   2.624   4.288  0.7044  0.7526 -0.2415
   80MOL   H44240100   6.245   2.462   4.215  0.5248 -0.5802 -1.8536
   80MOL   H44340101   6.322   2.698   4.036  1.6352  0.4695  0.5420
   80MOL   H44440102   6.277   2.537   3.995 -0.4749 -0.7368 -0.5535
   80MOL   H44540103   6.050   2.579   4.108 -0.5787 -1.0306 -0.9105
   80MOL   H44640104   6.078   2.744   4.114 -0.3985 -0.0751 -0.3085
   80MOL   H44740105   6.032   2.580   3.869  4.5064 -0.4477 -0.1236
   80MOL   H44840106   5.932   2.706   3.909  0.2441 -0.1806  1.2592
   80MOL   H44940107   6.154   2.863   3.870 -0.4913  0.4849  0.6827
   80MOL   H45040108   6.206   2.730   3.780  0.2096 -0.3804  0.8802
   80MOL   H45140109   6.060   2.811   3.736  2.0566  1.6926 -0.1503
   80MOL   C45240110   6.653   2.337   4.246  0.0689 -0.1655  0.6619
   80MOL   C45340111   6.801   2.318   4.283 -0.0115 -0.4794 -0.1168
   80MOL   O45440112   6.833   2.197   4.353 -0.1867  0.4027 -0.1481
   80MOL   C45540113   6.780   2.084   4.284  0.6156  0.2866  0.0532
   80MOL   C45640114   6.878   1.958   4.313 -0.5971  0.4005 -0.2024
   80MOL   C45740115   6.898   1.912   4.460  0.3056 -0.6218  0.1865
   80MOL   C45840116   6.979   1.784   4.462 -0.2706  0.2023 -0.6687
   80MOL   C45940117   7.019   1.750   4.605  0.0447 -0.1576 -0.1293
   80MOL   C46040118   7.105   1.620   4.608  0.7234  0.0314  0.6911
   80MOL   H46140119   6.608   2.364   4.341  0.0586 -1.1836  0.9553
   80MOL   H46240120   6.605   2.247   4.209 -2.4376  0.8555  1.3718
   80MOL   H46340121   6.859   2.303   4.193  0.1789 -3.5254  0.4396
   80MOL   H46440122   6.774   2.098   4.176  1.2210 -0.7103 -0.1150
   80MOL   H46540123   6.679   2.067   4.321 -0.3824  0.7724 -2.3235
   80MOL   H46640124   6.975   1.978   4.266 -0.4009  0.8646  0.3969
   80MOL   H46740125   6.845   1.877   4.248  2.1383 -0.8379 -0.1294
   80MOL   H46840126   6.948   1.993   4.512 -0.6205 -0.4501  0.8229
   80MOL   H46940127   6.805   1.894   4.514 -0.9413  0.6475 -1.4709
   80MOL   H47040128   6.925   1.703   4.413  0.4714 -1.9084  1.8924
   80MOL   H47140129   7.081   1.799   4.426 -0.0639  1.2150  0.3321
   80MOL   H47240130   7.081   1.825   4.653 -0.7856  0.5079 -0.0818
   80MOL   H47340131   6.929   1.728   4.663  0.5549 -0.8384  0.4103
   80MOL   H47440132   7.200   1.645   4.560  0.5365 -1.4344 -0.4819
   80MOL   H47540133   7.110   1.609   4.716 -0.0119  1.7444  0.9171
   80MOL   H47640134   7.071   1.530   4.556  2.5865  0.0788 -0.6886
   80MOL   C47740135   6.879   2.433   4.352  0.1470  0.6683  0.2202
   80MOL   C47840136   7.027   2.400   4.386  0.8824  0.1267 -0.7473
   80MOL   O47940137   7.087   2.511   4.452 -0.0750  0.1227  0.2758
   80MOL   C48040138   7.224   2.487   4.478  0.1831  0.5557 -0.0787
   80MOL   C48140139   7.293   2.616   4.516  1.3594 -0.6935  0.4705
   80MOL   C48240140   7.326   2.715   4.412 -0.4588 -0.2093 -0.6129
   80MOL   C48340141   7.362   2.852   4.487  0.5498 -0.1004 -0.0409
   80MOL   C48440142   7.421   2.955   4.396 -0.3145  0.4677 -0.0330
   80MOL   C48540143   7.568   2.934   4.377  0.0324 -0.5001 -0.2594
   80MOL   H48640144   6.885   2.522   4.290  1.4505  0.9771  0.7762
   80MOL   H48740145   6.827   2.452   4.446  0.4232  2.0441  0.1018
   80MOL   H48840146   7.022   2.311   4.449  1.9747  0.2343 -0.4975
   80MOL   H48940147   7.268   2.457   4.383  1.7917  1.0624  0.5039
   80MOL   H49040148   7.250   2.411   4.552  0.5523 -0.0112 -0.7844
   80MOL   H49140149   7.389   2.582   4.555  1.1516  1.0739  2.6042
   80MOL   H49240150   7.237   2.655   4.601 -1.4415 -2.4031 -0.5052
   80MOL   H49340151   7.404   2.675   4.346  0.3156 -2.6430  1.6440
   80MOL   H49440152   7.242   2.737   4.347 -1.9624  0.0731  1.3764
   80MOL   H49540153   7.266   2.900   4.510  0.3792  0.7398 -2.3865
   80MOL   H49640154   7.417   2.840   4.580 -0.0532  2.9836  0.7674
   80MOL   H49740155   7.361   2.951   4.305 -1.1383  1.8716  0.4289
   80MOL   H49840156   7.395   3.059   4.418 -1.5678  0.4688 -1.4909
   80MOL   H49940157   7.606   2.834   4.361  0.8192  0.3205 -4.1011
   80MOL   H50040158   7.594   2.984   4.284 -3.5617 -1.5871 -1.9198
   80MOL   H50140159   7.621   2.985   4.458  0.4982  0.3960 -1.1029
   80MOL   H50240160   7.070   2.373   4.290  1.0234  0.1171 -0.6813
   81MOL     C140161   0.382   4.110   0.837  0.8005  0.4358 -0.0290
   81MOL     C240162   0.237   4.159   0.837 -0.0867 -0.1847 -0.3681
   81MOL     O340163   0.222   4.279   0.758 -0.4480  0.2029  0.1676
   81MOL     C440164   0.211   4.261   0.617  0.1437 -0.0678  0.6396
   81MOL     C540165   0.205   4.406   0.556  0.1029 -0.2672  0.2166
   81MOL     C640166   0.332   4.490   0.571  0.0014 -0.2764  0.1606
   81MOL     C740167   0.335   4.622   0.482  0.7875 -0.2655 -0.3210
   81MOL     C840168   0.244   4.731   0.544  0.1544  0.3916 -0.0087
   81MOL     C940169   0.241   4.855   0.464 -0.1601 -0.1947 -0.0210
   81MOL    H1040170   0.406   4.035   0.912  0.4259  0.9895  0.6504
   81MOL    H1140171   0.404   4.080   0.734 -1.1047  1.2848 -0.7211
   81MOL    H1240172   0.186   4.073   0.793  1.6441 -1.1672 -0.4919
   81MOL    H1340173   0.133   4.188   0.594  1.3190 -1.5345  1.2014
   81MOL    H1440174   0.305   4.219   0.582 -0.1967  0.5631 -1.0831
   81MOL    H1540175   0.124   4.451   0.613  0.8261  0.7463  0.4649
   81MOL    H1640176   0.175   4.400   0.452 -0.9297  1.5995  0.3916
   81MOL    H1740177   0.344   4.506   0.678  0.3947  2.1414 -0.2101
   81MOL    H1840178   0.416   4.425   0.548  1.4170  0.8464  2.0066
   81MOL    H1940179   0.440   4.650   0.477  0.3869  1.1541 -1.0920
   81MOL    H2040180   0.311   4.591   0.380 -0.4226 -0.6958  0.0821
   81MOL    H2140181   0.288   4.757   0.640 -0.5664  0.3492  0.3332
   81MOL    H2240182   0.142   4.696   0.560  0.8929 -1.6987  0.3754
   81MOL    H2340183   0.203   4.840   0.363 -1.4201  0.4850  0.3463
   81MOL    H2440184   0.193   4.938   0.514  0.1440  0.5953 -1.0284
   81MOL    H2540185   0.344   4.889   0.453  1.2558 -2.9055  3.6389
   81MOL    H2640186   0.441   4.199   0.856 -0.9035  1.3034  1.2758
   81MOL    C2740187   0.191   4.188   0.980  0.0553 -0.4087  0.2612
   81MOL    C2840188   0.041   4.177   1.000 -0.2125 -0.0475  0.5652
   81MOL    O2940189   0.010   4.041   0.981  0.1030  0.6945  0.2070
   81MOL    C3040190   7.656   4.011   0.930 -0.7308 -0.5649  0.1760
   81MOL    C3140191   7.624   3.864   0.947 -0.7669  0.1847 -0.2737
   81MOL    C3240192   7.493   3.827   0.875  0.4684  0.1280  0.0624
   81MOL    C3340193   7.446   3.680   0.864 -0.5253  0.2028  1.1591
   81MOL    C3440194   7.399   3.622   0.999  0.0504 -0.3428 -0.7658
   81MOL    C3540195   7.387   3.468   0.988  0.3591 -0.0460  0.7305
   81MOL    H3640196   0.238   4.129   1.058 -4.2516 -3.3093  0.8521
   81MOL    H3740197   0.229   4.287   1.005  0.2752  0.0557 -1.8078
   81MOL    H3840198   7.771   4.244   0.928  1.6979  1.5217  0.7278
   81MOL    H3940199   7.637   4.048   0.829  0.0985 -1.5303 -0.3356
   81MOL    H4040200   7.582   4.066   0.988 -1.1052  0.2846 -1.0672
   81MOL    H4140201   7.621   3.836   1.052 -1.4124 -1.0333 -0.6130
   81MOL    H4240202   7.688   3.784   0.909  1.3472  1.0934  1.2424
   81MOL    H4340203   7.414   3.892   0.912 -1.0300 -1.1794 -0.7668
   81MOL    H4440204   7.504   3.868   0.775 -2.4088  0.9856  0.0704
   81MOL    H4540205   7.368   3.668   0.789  1.2828  0.7353 -0.8504
   81MOL    H4640206   7.522   3.616   0.818  0.4837  1.4445  1.0851
   81MOL    H4740207   7.482   3.646   1.065 -0.6261  0.4628 -0.1956
   81MOL    H4840208   7.301   3.664   1.021 -0.2864 -1.6482  0.3077
   81MOL    H4940209   7.326   3.433   1.071  0.9982 -0.4321  1.0424
   81MOL    H5040210   7.357   3.430   0.890 -0.2624 -2.3453  1.7900
   81MOL    H5140211   7.488   3.431   1.008 -0.4450 -1.2389  2.6188
   81MOL    C5240212   7.761   4.219   1.141  0.2841 -0.0972 -0.6865
   81MOL    C5340213   0.063   4.326   1.217  0.0478  0.1812  0.7274
   81MOL    O5440214   0.040   4.453   1.151 -0.2507  0.2765 -0.3281
   81MOL    C5540215   0.090   4.572   1.202 -0.2655  0.1188  0.1561
   81MOL    C5640216   0.141   4.676   1.099 -0.0319  0.3310 -0.4236
   81MOL    C5740217   0.029   4.768   1.050  0.4551  0.4141  0.1964
   81MOL    C5840218   0.063   4.874   0.943  0.1392  0.7476  0.1202
   81MOL    C5940219   7.728   4.959   0.884 -0.5642  0.4807 -0.1643
   81MOL    C6040220   7.661   5.050   0.981  0.6901 -0.2481  0.1030
   81MOL    H6140221   7.745   4.129   1.200  1.7134 -0.0941 -0.2770
   81MOL    H6240222   7.658   4.255   1.132  0.1458 -0.6199 -1.1721
   81MOL    H6340223   0.171   4.315   1.212  0.2044  1.5533  0.8955
   81MOL    H6440224   0.176   4.545   1.262  0.8904 -1.8964 -2.3057
   81MOL    H6540225   0.008   4.609   1.264  1.1445  0.3875  1.8981
   81MOL    H6640226   0.211   4.634   1.026  0.0284 -0.8011  0.2734
   81MOL    H6740227   0.214   4.736   1.154 -0.0297  1.0109 -1.1722
   81MOL    H6840228   7.734   4.698   1.006  0.1565 -0.4937  2.0686
   81MOL    H6940229   7.752   4.815   1.132  0.2123 -1.3668  1.0884
   81MOL    H7040230   0.135   4.939   0.994  0.0372  0.4536  0.6334
   81MOL    H7140231   0.116   4.826   0.861  0.5853 -0.2236  0.9723
   81MOL    H7240232   7.749   5.014   0.793 -1.7145  2.0192  0.4786
   81MOL    H7340233   7.655   4.883   0.856  0.9515 -1.2932  0.5603
   81MOL    H7440234   7.615   5.141   0.942 -3.2913 -2.1016  0.2302
   81MOL    H7540235   7.584   4.997   1.037  0.7030 -1.1380 -0.7095
   81MOL    H7640236   7.729   5.092   1.054 -1.3874 -1.3318  2.7330
   81MOL    C7740237   0.036   4.336   1.374  0.9544 -0.8814  0.3393
   81MOL    C7840238   0.106   4.228   1.459  0.0762  0.6318  0.3955
   81MOL    O7940239   0.038   4.108   1.421  0.9337  0.3922  0.1757
   81MOL    C8040240   0.119   3.988   1.406 -0.0300 -0.7440 -0.2534
   81MOL    C8140241   0.046   3.878   1.329 -0.1077  0.1746  0.4098
   81MOL    C8240242   0.083   3.740   1.377  0.0604  0.1422 -0.2588
   81MOL    C8340243   0.211   3.699   1.319 -0.0856  0.1703  0.3581
   81MOL    C8440244   0.235   3.543   1.316 -0.3613  0.8543 -0.0870
   81MOL    C8540245   0.384   3.512   1.341  0.3499 -0.1707 -0.4459
   81MOL    H8640246   7.706   4.340   1.394  0.6082  1.0437 -1.7457
   81MOL    H8740247   0.070   4.430   1.415  0.4459 -0.7413  0.4456
   81MOL    H8840248   0.207   4.230   1.419 -0.0287 -0.2794  0.0655
   81MOL    H8940249   0.145   3.954   1.507  0.2475 -1.2351 -0.4884
   81MOL    H9040250   0.222   3.997   1.371  0.2642  2.0525  1.1221
   81MOL    H9140251   0.048   3.892   1.221 -0.8059 -1.9740  0.0936
   81MOL    H9240252   7.715   3.886   1.340  0.0342 -0.2084  2.2032
   81MOL    H9340253   0.080   3.739   1.486 -0.2797 -0.5465 -0.2677
   81MOL    H9440254   0.006   3.668   1.348 -0.0577  0.4603 -0.7380
   81MOL    H9540255   0.216   3.724   1.213 -1.9362  0.0021  0.2208
   81MOL    H9640256   0.292   3.757   1.363  0.3287  0.1635 -0.3991
   81MOL    H9740257   0.177   3.490   1.390 -0.6011  0.9024 -0.2402
   81MOL    H9840258   0.189   3.504   1.225  0.1941 -5.5371  2.1055
   81MOL    H9940259   0.423   3.427   1.285 -1.4114 -1.4006  0.1664
   81MOL   H10040260   0.449   3.593   1.307 -2.4617  1.4242 -2.2699
   81MOL   H10140261   0.395   3.500   1.448  0.9614 -0.2537 -0.5137
   81MOL   C10240262   0.098   4.252   1.610  0.1242  0.0888  0.1170
   81MOL   C10340263   0.228   4.301   1.671  0.8270 -0.2276  0.4633
   81MOL   O10440264   0.270   4.422   1.603  0.0435  0.1010 -0.4025
   81MOL   C10540265   0.403   4.469   1.605 -0.9014 -0.7022 -0.6190
   81MOL   C10640266   0.436   4.531   1.469  0.2832 -0.0622 -0.6745
   81MOL   C10740267   0.466   4.422   1.368  0.2140 -0.1381 -0.3200
   81MOL   C10840268   0.491   4.464   1.230 -0.2531  0.0601  0.4268
   81MOL   C10940269   0.519   4.351   1.129  0.0806 -0.4046  0.2285
   81MOL   C11040270   0.655   4.276   1.138  0.1440  0.2001  0.1730
   81MOL   H11140271   0.005   4.303   1.633  0.7088  1.5846 -0.7900
   81MOL   H11240272   0.075   4.156   1.657  0.1866 -0.2208 -0.4793
   81MOL   H11340273   0.303   4.223   1.664  0.1705 -0.8568  0.3094
   81MOL   H11440274   0.477   4.394   1.632 -1.4299 -0.4039  1.7823
   81MOL   H11540275   0.413   4.540   1.688 -2.0492  2.3087 -2.9592
   81MOL   H11640276   0.520   4.598   1.485  0.8420 -0.7840 -0.5771
   81MOL   H11740277   0.352   4.593   1.435  1.7566  1.2479 -2.0292
   81MOL   H11840278   0.549   4.360   1.402  1.8189  2.3570  0.4188
   81MOL   H11940279   0.386   4.348   1.362  0.6364 -0.7833  1.5976
   81MOL   H12040280   0.408   4.528   1.200  1.2724  2.0158  0.2652
   81MOL   H12140281   0.587   4.515   1.240  1.0882 -1.8167 -2.0172
   81MOL   H12240282   0.444   4.272   1.143 -0.9536  0.3370 -1.0312
   81MOL   H12340283   0.518   4.384   1.025 -1.9912 -3.1927 -0.7025
   81MOL   H12440284   0.668   4.207   1.055  1.8603 -1.2176  1.5577
   81MOL   H12540285   0.741   4.343   1.135 -1.0010  1.7328  0.9390
   81MOL   H12640286   0.655   4.217   1.230 -2.2986 -0.0506  0.0479
   81MOL   C12740287   0.211   4.340   1.821  0.4359  0.6194 -0.8634
   81MOL   C12840288   0.240   4.232   1.925  0.3647 -0.1266 -0.0757
   81MOL   O12940289   0.158   4.116   1.923  0.6530 -0.5319 -0.3169
   81MOL   C13040290   0.215   3.997   1.891  0.2173  0.3013 -0.1319
   81MOL   C13140291   0.115   3.881   1.892 -0.0379 -0.1643  0.0153
   81MOL   C13240292   7.764   3.916   1.804 -0.1989  0.6577 -0.3537
   81MOL   C13340293   7.654   3.811   1.799 -0.1268  0.8800 -0.5212
   81MOL   C13440294   7.653   3.713   1.672  0.1023 -0.7058 -0.2123
   81MOL   C13540295   7.538   3.615   1.690  0.1219 -0.1702  0.0759
   81MOL   H13640296   0.285   4.419   1.837 -1.8727  2.6172  0.2692
   81MOL   H13740297   0.111   4.381   1.832  0.8301  1.1841  0.7619
   81MOL   H13840298   0.342   4.196   1.911 -0.0011 -0.0552 -3.4696
   81MOL   H13940299   0.293   3.982   1.965 -0.1308 -0.8151  0.0067
   81MOL   H14040300   0.252   3.998   1.789  0.3230 -2.7730 -0.1590
   81MOL   H14140301   0.084   3.866   1.996  1.1412  0.5189  0.4751
   81MOL   H14240302   0.164   3.790   1.855 -0.6051 -1.0671  1.4374
   81MOL   H14340303   7.720   4.012   1.830  4.0647  2.6975 -0.2499
   81MOL   H14440304   0.027   3.930   1.704  2.2576 -3.7408 -0.1651
   81MOL   H14540305   7.662   3.750   1.889  0.2679  0.6425 -0.7147
   81MOL   H14640306   7.558   3.861   1.797 -0.8627 -0.4538  0.5702
   81MOL   H14740307   7.635   3.776   1.584  0.5650 -2.1089 -1.3201
   81MOL   H14840308   7.737   3.647   1.654 -0.3720 -1.6759  1.0535
   81MOL   H14940309   7.548   3.562   1.785 -1.1314  0.2989  0.4887
   81MOL   H15040310   7.441   3.665   1.697  0.5878  1.2292 -2.8544
   81MOL   H15140311   7.538   3.539   1.612  0.2684  0.6939 -0.7758
   81MOL   C15240312   0.230   4.296   2.061  0.0446 -0.4840 -0.4448
   81MOL   C15340313   0.293   4.213   2.170  0.1424 -0.0593  0.0820
   81MOL   O15440314   0.432   4.184   2.148  0.4258 -0.1214 -0.4555
   81MOL   C15540315   0.478   4.054   2.192 -0.1138  0.1870 -0.2769
   81MOL   C15640316   0.627   4.037   2.166  0.3696  0.2407  0.5321
   81MOL   C15740317   0.663   4.022   2.023 -0.4828 -0.1290  0.6428
   81MOL   C15840318   0.810   3.994   2.004  0.4555  0.1312  0.0584
   81MOL   C15940319   0.833   3.944   1.862  0.5251  0.0260 -0.5829
   81MOL   C16040320   0.792   3.792   1.848 -0.2322 -0.1022 -0.6473
   81MOL   H16140321   0.283   4.392   2.055 -2.0688  0.9690  2.6266
   81MOL   H16240322   0.129   4.325   2.089 -0.2881 -2.0354 -0.0248
   81MOL   H16340323   0.239   4.119   2.169 -0.6743  0.4131  0.0234
   81MOL   H16440324   0.421   3.972   2.148 -0.3139 -0.9397  1.9832
   81MOL   H16540325   0.465   4.045   2.300 -0.8892  0.3324 -0.3544
   81MOL   H16640326   0.665   3.954   2.226 -2.2599 -1.7019 -0.3881
   81MOL   H16740327   0.677   4.131   2.190 -0.6985  0.4164  2.0926
   81MOL   H16840328   0.607   3.939   1.983  2.0640 -2.6568  2.1316
   81MOL   H16940329   0.641   4.117   1.974 -3.0784  0.4388  2.7596
   81MOL   H17040330   0.853   4.092   2.024  1.7650 -0.5617  0.6767
   81MOL   H17140331   0.847   3.919   2.073 -0.4369 -0.2258  0.1637
   81MOL   H17240332   0.781   4.008   1.791 -0.2050 -0.3797 -0.4161
   81MOL   H17340333   0.939   3.956   1.839  0.8533 -0.5868  0.5507
   81MOL   H17440334   0.827   3.748   1.942 -0.0663  0.8089 -0.2686
   81MOL   H17540335   0.684   3.780   1.842 -0.1807 -0.4801 -0.7952
   81MOL   H17640336   0.850   3.745   1.769 -0.3943 -0.8659 -0.3154
   81MOL   C17740337   0.284   4.264   2.310 -0.7295 -0.8574 -0.7394
   81MOL   C17840338   0.141   4.290   2.366  0.6146 -0.0686 -0.2658
   81MOL   O17940339   0.061   4.179   2.372  0.2315 -0.3545 -0.0165
   81MOL   C18040340   7.758   4.152   2.258  0.3629 -0.2150  0.5681
   81MOL   C18140341   7.635   4.073   2.310  0.3528 -0.1876 -0.7925
   81MOL   C18240342   7.549   4.164   2.399  0.0364  0.5511  0.0324
   81MOL   C18340343   7.420   4.234   2.343  0.2309  0.1112 -0.4446
   81MOL   C18440344   7.305   4.140   2.325 -0.5783 -1.7430 -0.5544
   81MOL   C18540345   7.174   4.230   2.322 -0.4989  0.2251 -0.4814
   81MOL   H18640346   0.335   4.193   2.373 -0.7875 -2.9221 -2.9443
   81MOL   H18740347   0.343   4.355   2.322 -0.9215 -0.5066 -2.2329
   81MOL   H18840348   0.093   4.368   2.306  0.7445 -1.2039 -1.8616
   81MOL   H18940349   0.025   4.089   2.181  3.2891  3.5910 -1.0344
   81MOL   H19040350   7.713   4.244   2.221 -0.3980 -0.6732  0.3519
   81MOL   H19140351   7.668   3.987   2.369  0.2183 -0.1202 -0.6203
   81MOL   H19240352   7.574   4.031   2.230  0.5045  0.1781 -1.0982
   81MOL   H19340353   7.511   4.107   2.483 -3.7048 -0.4882 -2.2492
   81MOL   H19440354   7.613   4.246   2.432  1.4101 -0.0409 -1.1200
   81MOL   H19540355   7.393   4.318   2.407 -0.3364  0.0927 -0.6599
   81MOL   H19640356   7.450   4.285   2.252 -0.0092 -1.6971 -1.5653
   81MOL   H19740357   7.318   4.084   2.232  1.3958 -0.6952 -0.9445
   81MOL   H19840358   7.295   4.065   2.404  1.8099  0.4451  1.9289
   81MOL   H19940359   7.189   4.311   2.250 -0.5103  0.6193 -0.0407
   81MOL   H20040360   7.103   4.162   2.277  0.4318 -0.7897 -0.4421
   81MOL   H20140361   7.140   4.260   2.421  0.7283 -2.5177  0.8396
   81MOL   C20240362   0.155   4.350   2.514 -0.5612  0.0249  0.1921
   81MOL   C20340363   0.033   4.429   2.575 -1.1760  0.2093 -0.3754
   81MOL   O20440364   0.009   4.545   2.486  0.1919  0.3416  0.1480
   81MOL   C20540365   7.644   4.570   2.474  0.2173 -0.3341 -0.1671
   81MOL   C20640366   7.631   4.626   2.334  0.1140 -0.4836 -0.1024
   81MOL   C20740367   7.494   4.669   2.294 -0.0806 -0.1739 -0.0359
   81MOL   C20840368   7.480   4.719   2.151  0.1754 -0.1069  0.7686
   81MOL   C20940369   7.339   4.680   2.089  0.3037 -0.0111  0.4716
   81MOL   C21040370   7.334   4.692   1.937 -0.1191  0.0100  0.5116
   81MOL   H21140371   0.172   4.264   2.579  1.1889  0.5329  0.4268
   81MOL   H21240372   0.240   4.418   2.511 -0.0676 -0.5381  1.1030
   81MOL   H21340373   7.728   4.357   2.573  0.4171 -1.7139  0.7888
   81MOL   H21440374   7.610   4.639   2.552  1.2151 -0.9203  0.7965
   81MOL   H21540375   7.595   4.474   2.483 -0.6588 -0.0926 -2.2082
   81MOL   H21640376   7.671   4.566   2.253  0.1907 -0.6214  0.0394
   81MOL   H21740377   7.685   4.721   2.325 -1.1478  0.1464 -1.3165
   81MOL   H21840378   7.425   4.586   2.311 -1.9656  1.0631 -1.4303
   81MOL   H21940379   7.455   4.744   2.362 -0.1131 -0.3708  0.1644
   81MOL   H22040380   7.497   4.827   2.148  0.8289 -0.1766  1.6231
   81MOL   H22140381   7.556   4.679   2.083  0.4425 -1.0394  1.6012
   81MOL   H22240382   7.326   4.578   2.124  2.1440 -0.2072  0.5976
   81MOL   H22340383   7.259   4.742   2.131  0.5997  0.8718 -0.2575
   81MOL   H22440384   7.338   4.793   1.898  0.9093 -0.4142 -0.5313
   81MOL   H22540385   7.412   4.633   1.888  2.1364  2.6745  0.7712
   81MOL   H22640386   7.242   4.659   1.890  0.6754  0.8691 -1.7274
   81MOL   C22740387   0.066   4.478   2.715  0.1149  0.0778  0.0124
   81MOL   C22840388   0.096   4.366   2.817 -0.5177 -0.1713 -0.1800
   81MOL   O22940389   0.180   4.420   2.919 -0.4786 -0.0603 -0.4921
   81MOL   C23040390   0.323   4.416   2.904 -0.4553 -0.0682  0.4849
   81MOL   C23140391   0.375   4.456   3.041  0.2853 -0.4389 -0.1817
   81MOL   C23240392   0.524   4.484   3.033  0.3756 -0.4658 -0.3145
   81MOL   C23340393   0.580   4.530   3.167  0.1317 -0.6066  0.2509
   81MOL   C23440394   0.732   4.526   3.156  0.3212 -0.0644 -0.2784
   81MOL   C23540395   0.803   4.579   3.279  0.1863  0.3398  0.3154
   81MOL   H23640396   0.148   4.550   2.719 -0.1492  0.3035  2.1139
   81MOL   H23740397   7.760   4.536   2.756 -1.0588 -1.6185  0.0452
   81MOL   H23840398   0.150   4.276   2.787 -2.8683 -1.3032 -1.1027
   81MOL   H23940399   0.363   4.484   2.828  1.5012 -2.5354 -0.7895
   81MOL   H24040400   0.357   4.315   2.883  1.5907  0.6934  0.0403
   81MOL   H24140401   0.347   4.376   3.110 -0.4977 -1.4990 -1.6968
   81MOL   H24240402   0.317   4.541   3.075  0.8641 -0.1527  0.1004
   81MOL   H24340403   0.573   4.395   2.995  1.2521 -0.2367  0.2677
   81MOL   H24440404   0.545   4.563   2.962  1.2560 -1.4320 -1.1347
   81MOL   H24540405   0.552   4.634   3.184  2.0134  0.3213 -1.9416
   81MOL   H24640406   0.538   4.475   3.251 -4.3955 -0.2284 -1.6164
   81MOL   H24740407   0.752   4.420   3.141 -3.8595 -1.0265  0.0834
   81MOL   H24840408   0.758   4.580   3.065 -2.1816  0.1185 -0.9204
   81MOL   H24940409   0.769   4.681   3.298 -0.1580  0.0221  1.3993
   81MOL   H25040410   0.776   4.530   3.372 -1.7403 -0.0779 -0.4272
   81MOL   H25140411   0.908   4.591   3.253 -0.0845  2.0263 -0.0965
   81MOL   C25240412   7.750   4.319   2.893 -0.3226 -0.0347 -0.1907
   81MOL   C25340413   7.768   4.179   2.956  0.8403  0.4288 -0.4678
   81MOL   O25440414   7.718   4.068   2.874 -0.1169 -0.2996 -0.3436
   81MOL   C25540415   0.018   4.038   2.756 -0.5181 -0.3743 -0.2698
   81MOL   C25640416   7.727   3.924   2.674  0.6755  0.3809 -0.0926
   81MOL   C25740417   7.732   3.790   2.736  0.0586 -0.1267  0.2688
   81MOL   C25840418   7.718   3.682   2.626 -0.6822  0.6915  0.0675
   81MOL   C25940419   7.741   3.545   2.689  0.6026  1.0557  0.0297
   81MOL   C26040420   7.742   3.442   2.579  0.3990  0.4803  0.2993
   81MOL   H26140421   7.713   4.395   2.962  0.2621 -0.4544  0.5829
   81MOL   H26240422   7.660   4.320   2.830 -1.6633  1.5871  1.6916
   81MOL   H26340423   0.094   4.157   2.983  0.4354 -0.3163  0.5292
   81MOL   H26440424   0.122   4.010   2.773 -0.9084 -1.6711  0.0607
   81MOL   H26540425   0.012   4.129   2.698 -1.0544 -0.5071 -0.4266
   81MOL   H26640426   7.770   3.921   2.574 -0.9347 -3.3526 -0.7236
   81MOL   H26740427   7.625   3.958   2.656  0.0081 -1.4102  0.2616
   81MOL   H26840428   0.049   3.779   2.790  1.0214  1.2507 -1.0812
   81MOL   H26940429   7.654   3.784   2.812 -0.5147 -0.6694 -0.3640
   81MOL   H27040430   7.628   3.684   2.564 -0.5622  1.0153 -0.1001
   81MOL   H27140431   0.028   3.699   2.564 -0.1088 -1.1129  0.3523
   81MOL   H27240432   0.049   3.542   2.757  1.1098  0.1369 -0.6260
   81MOL   H27340433   7.658   3.527   2.758  2.8264 -2.4570  1.9264
   81MOL   H27440434   7.747   3.340   2.616  0.6165 -0.2597 -1.7186
   81MOL   H27540435   7.644   3.455   2.532  0.6331  0.9344 -0.0721
   81MOL   H27640436   0.043   3.452   2.504 -1.6546  2.1711 -1.6753
   81MOL   C27740437   7.682   4.174   3.083  0.9247  0.6127 -0.1429
   81MOL   C27840438   7.692   4.041   3.159 -0.0505  0.6837  0.3973
   81MOL   O27940439   0.046   4.032   3.226 -0.2680  0.6335  0.4171
   81MOL   C28040440   0.111   4.147   3.282 -0.3068  1.0989  0.2152
   81MOL   C28140441   0.233   4.082   3.361  0.4385 -0.4831  0.1048
   81MOL   C28240442   0.304   4.207   3.427  0.1019 -0.0890  1.1193
   81MOL   C28340443   0.401   4.165   3.540  0.5003  0.1162  0.1197
   81MOL   C28440444   0.457   4.294   3.603  0.6388  0.4082  0.4763
   81MOL   C28540445   0.560   4.293   3.716 -0.3577  0.0994  0.1037
   81MOL   H28640446   7.692   4.258   3.152 -0.0297 -0.9292  1.9286
   81MOL   H28740447   7.580   4.183   3.044  0.4070 -2.5965  0.3138
   81MOL   H28840448   7.683   3.965   3.082  1.0626 -0.0543  0.9838
   81MOL   H28940449   0.040   4.205   3.341 -1.0281  1.1249 -0.6656
   81MOL   H29040450   0.154   4.210   3.204  1.1281  0.7632  0.7270
   81MOL   H29140451   0.290   4.029   3.284 -0.0158 -0.8431  0.0133
   81MOL   H29240452   0.196   4.001   3.424 -1.0007  0.3966  0.4252
   81MOL   H29340453   0.367   4.248   3.347 -1.1456  1.9565  1.1634
   81MOL   H29440454   0.235   4.290   3.439  0.0835  0.0314  0.2361
   81MOL   H29540455   0.339   4.123   3.619 -0.5385  2.2382  0.4854
   81MOL   H29640456   0.483   4.100   3.511  0.0217 -1.3914  2.0753
   81MOL   H29740457   0.498   4.356   3.522  0.7697 -0.8763 -0.4486
   81MOL   H29840458   0.362   4.339   3.630 -0.3739 -2.4605  1.8782
   81MOL   H29940459   0.649   4.234   3.698  0.9623  1.7542  1.0733
   81MOL   H30040460   0.594   4.393   3.743  1.8528 -0.3479 -0.9877
   81MOL   H30140461   0.521   4.248   3.808  0.1049  2.3903  1.4772
   81MOL   C30240462   7.587   4.009   3.276 -0.0572 -0.4768  1.0654
   81MOL   C30340463   7.595   3.870   3.343  0.2039  0.4315  0.0710
   81MOL   O30440464   7.523   3.774   3.262 -0.3506  0.1213  0.5564
   81MOL   C30540465   7.606   3.671   3.221 -0.3347 -0.3371  0.7367
   81MOL   C30640466   7.532   3.557   3.147  0.4215  0.7836 -0.3315
   81MOL   C30740467   7.637   3.455   3.098  0.0657 -0.0124 -0.1597
   81MOL   C30840468   7.681   3.363   3.201  0.9095  0.2737 -0.5068
   81MOL   C30940469   0.011   3.265   3.158  0.1392  0.4270  0.3085
   81MOL   C31040470   0.060   3.177   3.270  0.2068  0.4911  0.0840
   81MOL   H31140471   7.599   4.091   3.347  0.2564  0.2966  0.1349
   81MOL   H31240472   7.487   4.031   3.239  0.7459 -1.1191 -1.6504
   81MOL   H31340473   7.702   3.849   3.340 -0.3116 -2.2786 -0.3236
   81MOL   H31440474   7.644   3.623   3.311  3.6620 -0.2653 -0.8328
   81MOL   H31540475   7.687   3.710   3.160 -0.8758  0.2601  0.3948
   81MOL   H31640476   7.477   3.592   3.060  1.1681 -1.0903 -1.5753
   81MOL   H31740477   7.463   3.507   3.215 -0.5331 -0.0512 -1.8804
   81MOL   H31840478   7.593   3.392   3.021  0.7447 -0.6811 -0.0046
   81MOL   H31940479   7.725   3.503   3.055 -0.6850  1.5700  0.0289
   81MOL   H32040480   7.720   3.409   3.292  2.0695  1.8586 -1.7808
   81MOL   H32140481   7.596   3.307   3.241 -0.5729  2.6741 -0.1919
   81MOL   H32240482   7.764   3.195   3.077  0.3419  0.6522  0.0513
   81MOL   H32340483   0.092   3.315   3.105  0.4958 -1.2143 -0.7655
   81MOL   H32440484   7.754   3.133   3.324 -0.7067 -0.2515 -1.8548
   81MOL   H32540485   0.125   3.097   3.235 -1.5291 -1.0796  0.4014
   81MOL   H32640486   0.115   3.241   3.339 -0.6761 -0.5493  1.7660
   81MOL   C32740487   7.539   3.862   3.488  0.8104 -0.1913 -0.6917
   81MOL   C32840488   7.618   3.939   3.594  0.2916  0.1644 -0.0454
   81MOL   O32940489   7.544   3.931   3.719  0.8023 -0.2987  0.7366
   81MOL   C33040490   7.517   4.056   3.774 -0.6428  0.4694  0.3861
   81MOL   C33140491   7.394   4.113   3.696  0.7171  0.0066  0.2716
   81MOL   C33240492   7.273   4.020   3.710 -0.3108 -0.0411  0.5110
   81MOL   C33340493   7.157   4.047   3.614  0.0017 -0.4670 -0.5754
   81MOL   C33440494   7.036   3.952   3.631 -0.2247  1.0999 -0.3490
   81MOL   C33540495   6.933   3.971   3.520  0.2601 -0.1950  0.4494
   81MOL   H33640496   7.524   3.760   3.522 -0.6373  1.1276  2.8779
   81MOL   H33740497   7.432   3.886   3.492  0.3712 -2.2297  0.1359
   81MOL   H33840498   7.628   4.040   3.554 -2.5772  0.3222 -0.4874
   81MOL   H33940499   7.605   4.120   3.766 -0.0063 -0.5088 -0.5816
   81MOL   H34040500   7.487   4.033   3.876  1.2098 -2.2402  0.3810
   81MOL   H34140501   7.404   4.113   3.587  0.4806  1.3858  0.2308
   81MOL   H34240502   7.388   4.217   3.727  3.8657  0.2192  0.3214
   81MOL   H34340503   7.296   3.914   3.698  1.1251  0.2506  0.6234
   81MOL   H34440504   7.244   4.038   3.814 -0.4409 -0.5724  0.5727
   81MOL   H34540505   7.120   4.150   3.617  1.3309 -0.0017  3.3477
   81MOL   H34640506   7.204   4.027   3.518  1.7392  0.6600  0.0064
   81MOL   H34740507   7.062   3.847   3.622  1.0501  1.5356 -2.0259
   81MOL   H34840508   6.997   3.961   3.732 -1.7584  1.2646 -0.9464
   81MOL   H34940509   6.867   3.885   3.511  1.8833 -1.5837  1.4543
   81MOL   H35040510   6.869   4.057   3.538  0.5219  0.3055 -0.9808
   81MOL   H35140511   6.976   3.970   3.420 -1.8910 -0.1550 -0.4855
   81MOL   C35240512   7.751   3.873   3.620  0.3972 -0.1389  0.2018
   81MOL   C35340513   0.054   3.931   3.744  0.3263  0.2937  0.4197
   81MOL   O35440514   0.058   4.069   3.723 -0.7465 -0.2491  0.9401
   81MOL   C35540515   0.080   4.152   3.838 -0.8081 -0.6029  0.1560
   81MOL   C35640516   0.077   4.308   3.793 -0.6300  0.5197  0.5481
   81MOL   C35740517   0.135   4.397   3.908  0.4706 -0.2056  0.5872
   81MOL   C35840518   0.142   4.551   3.876 -0.2099 -0.2093 -0.7363
   81MOL   C35940519   0.187   4.640   3.993 -0.1267 -0.3435  0.6310
   81MOL   C36040520   0.109   4.611   4.127 -0.3473 -0.0403  0.7361
   81MOL   H36140521   7.731   3.767   3.630 -1.1526  0.1031 -0.2436
   81MOL   H36240522   0.037   3.890   3.532 -0.2996 -2.8831 -0.8670
   81MOL   H36340523   7.775   3.909   3.835 -0.8369 -0.5949 -0.4926
   81MOL   H36440524   0.177   4.129   3.880 -1.0998  0.6816  1.5674
   81MOL   H36540525   0.000   4.129   3.909  0.7124  1.7280  2.6841
   81MOL   H36640526   7.758   4.332   3.748 -0.7030  0.0848  0.4683
   81MOL   H36740527   0.141   4.333   3.708  0.9820  1.2204  1.9262
   81MOL   H36840528   0.077   4.384   3.999  0.5558  0.2814  0.7102
   81MOL   H36940529   0.234   4.354   3.925  0.3902 -0.1624  1.1730
   81MOL   H37040530   0.212   4.573   3.795 -1.1321  1.9637 -0.9919
   81MOL   H37140531   0.041   4.579   3.844 -0.8670  0.0515  1.4605
   81MOL   H37240532   0.290   4.613   4.014 -1.2522 -3.4094  2.5554
   81MOL   H37340533   0.182   4.744   3.961  0.2821 -0.7593 -0.8066
   81MOL   H37440534   0.003   4.590   4.114 -0.7401  1.9525  0.4789
   81MOL   H37540535   0.137   4.514   4.168 -1.2085 -1.4295 -1.8531
   81MOL   H37640536   0.114   4.695   4.197  2.2664  1.7898 -1.4918
   81MOL   C37740537   0.190   3.866   3.768  0.4631 -0.0405 -0.2767
   81MOL   C37840538   0.181   3.752   3.868  0.1231 -0.3184  0.1212
   81MOL   O37940539   0.160   3.807   4.000 -0.2691  0.7346  0.3622
   81MOL   C38040540   0.108   3.714   4.092 -0.2098 -0.3081 -0.1114
   81MOL   C38140541   0.048   3.811   4.197 -0.4531 -0.3824 -0.4105
   81MOL   C38240542   7.775   3.746   4.326  0.7040  0.0398  0.4070
   81MOL   C38340543   7.668   3.836   4.395 -0.5839  0.6494 -0.0220
   81MOL   C38440544   7.606   3.777   4.523  0.6058  0.3883  0.0311
   81MOL   C38540545   7.514   3.875   4.603 -0.4285 -0.0226  0.4765
   81MOL   H38640546   0.215   3.820   3.672 -0.4749 -0.3028 -0.3995
   81MOL   H38740547   0.274   3.930   3.792  0.0656  0.0567  0.8768
   81MOL   H38840548   0.096   3.687   3.853  0.3812 -0.0660 -2.5542
   81MOL   H38940549   0.186   3.656   4.141 -0.6926  2.1464  3.8597
   81MOL   H39040550   0.038   3.640   4.055  0.1626 -1.4238  1.3807
   81MOL   H39140551   7.742   3.854   4.142 -1.1197  0.3253  1.1152
   81MOL   H39240552   0.127   3.882   4.223 -0.2860 -0.6289 -0.2421
   81MOL   H39340553   7.734   3.649   4.296 -0.0845  0.4425  0.1771
   81MOL   H39440554   0.082   3.732   4.393  1.1728  0.0626 -0.1684
   81MOL   H39540555   7.699   3.940   4.410 -3.4289  1.5958 -0.3260
   81MOL   H39640556   7.593   3.841   4.316 -1.1919 -2.3022  0.3208
   81MOL   H39740557   7.555   3.684   4.497  2.3347 -0.6447  0.3248
   81MOL   H39840558   7.695   3.737   4.570 -0.3417 -0.8660  0.7733
   81MOL   H39940559   7.569   3.968   4.619  0.6920 -0.6927  0.5702
   81MOL   H40040560   7.429   3.911   4.545  0.2238 -0.1590 -0.5877
   81MOL   H40140561   7.477   3.827   4.694 -1.6464 -1.5034 -0.7651
   81MOL   C40240562   0.320   3.668   3.873  0.8539  0.0445  0.2152
   81MOL   C40340563   0.315   3.510   3.854 -0.7435  0.1142  0.2230
   81MOL   O40440564   0.418   3.453   3.934  0.1687 -0.3578  0.3872
   81MOL   C40540565   0.382   3.370   4.040  0.1202  0.0557  0.3014
   81MOL   C40640566   0.509   3.325   4.098 -0.2606  0.7037 -0.3761
   81MOL   C40740567   0.495   3.260   4.238 -0.4670 -0.5203 -0.6999
   81MOL   C40840568   0.613   3.183   4.301  0.1199  0.1522  0.4103
   81MOL   C40940569   0.586   3.109   4.425  0.5716 -0.3291  0.1503
   81MOL   C41040570   0.716   3.040   4.469  0.9683 -0.0343 -0.4709
   81MOL   H41140571   0.363   3.689   3.971 -0.4712  0.2876  0.7646
   81MOL   H41240572   0.390   3.711   3.802 -1.0619  1.2921 -0.9669
   81MOL   H41340573   0.226   3.471   3.902 -0.3749 -1.2836 -0.1924
   81MOL   H41440574   0.319   3.290   4.000  0.8575 -1.2930  1.7727
   81MOL   H41540575   0.332   3.425   4.120  2.2668  0.4994  1.3856
   81MOL   H41640576   0.570   3.414   4.117 -0.1717  0.5393  0.1039
   81MOL   H41740577   0.563   3.263   4.026 -0.5829 -0.2452  0.1866
   81MOL   H41840578   0.466   3.339   4.307 -0.7688 -1.1579 -0.0967
   81MOL   H41940579   0.412   3.190   4.230  1.0400 -2.3280 -0.6457
   81MOL   H42040580   0.648   3.111   4.227  1.6125  0.1374  1.1201
   81MOL   H42140581   0.698   3.249   4.315 -1.0934  2.1321 -1.2018
   81MOL   H42240582   0.532   3.176   4.492 -1.7501 -0.0100 -1.9785
   81MOL   H42340583   0.513   3.032   4.401  1.1599 -1.3928  1.6670
   81MOL   H42440584   0.800   3.109   4.475  0.1869  1.1489 -2.6685
   81MOL   H42540585   0.693   3.003   4.569 -0.3687 -0.6992 -1.0169
   81MOL   H42640586   0.740   2.952   4.408  1.7656 -0.5331  0.5379
   81MOL   C42740587   0.327   3.476   3.701  0.5656  0.0133 -1.0905
   81MOL   C42840588   0.185   3.459   3.638  0.2853  0.4805  0.4113
   81MOL   O42940589   0.195   3.467   3.494  0.2031 -0.4086  0.0572
   81MOL   C43040590   0.221   3.602   3.441  0.8507  0.4964 -0.5112
   81MOL   C43140591   0.248   3.596   3.291 -0.0729  0.2986  0.0388
   81MOL   C43240592   0.244   3.734   3.213  0.4311  1.3827 -0.5603
   81MOL   C43340593   0.276   3.709   3.061  0.3188 -0.0137  0.0716
   81MOL   C43440594   0.260   3.840   2.979 -0.7632 -0.3004 -0.1544
   81MOL   C43540595   0.365   3.943   2.986  0.2163 -0.2760 -0.3110
   81MOL   H43640596   0.398   3.539   3.648  1.2807 -0.9048 -1.2298
   81MOL   H43740597   0.382   3.382   3.705  0.6123  0.0758  0.0684
   81MOL   H43840598   0.118   3.538   3.673 -0.9866 -0.6949  0.6877
   81MOL   H43940599   0.295   3.661   3.497 -0.9421  2.2585  0.0514
   81MOL   H44040600   0.130   3.660   3.457  0.9976  0.1289  1.9012
   81MOL   H44140601   0.187   3.518   3.246 -2.4468  3.4303 -2.3908
   81MOL   H44240602   0.348   3.555   3.281  0.1609  1.1165 -1.1760
   81MOL   H44340603   0.142   3.767   3.234  0.9357  2.3314  0.4502
   81MOL   H44440604   0.313   3.810   3.250  2.3938  0.0628 -1.4422
   81MOL   H44540605   0.365   3.650   3.038  0.5153 -0.8182  2.8038
   81MOL   H44640606   0.194   3.646   3.024  1.2839 -0.7550 -0.8515
   81MOL   H44740607   0.241   3.816   2.875 -0.2115  2.4337 -0.9197
   81MOL   H44840608   0.176   3.896   3.021  0.2014  0.6422  0.5447
   81MOL   H44940609   0.463   3.904   2.958 -0.8323 -4.3852  1.3101
   81MOL   H45040610   0.340   4.029   2.925  3.3678 -0.3650 -1.8231
   81MOL   H45140611   0.372   3.978   3.089 -0.6473 -0.8946 -0.0314
   81MOL   C45240612   0.120   3.323   3.662 -0.4968  0.6029 -0.3800
   81MOL   C45340613   7.749   3.342   3.638  0.0285 -0.7442 -0.5741
   81MOL   O45440614   7.690   3.422   3.744  0.0566  0.2890 -0.1993
   81MOL   C45540615   7.584   3.505   3.701  0.2814  0.6475  0.2431
   81MOL   C45640616   7.526   3.593   3.816 -0.2041  0.1725 -0.0879
   81MOL   C45740617   7.425   3.524   3.908 -0.5501  0.0084  0.8399
   81MOL   C45840618   7.384   3.613   4.023  0.6326 -0.2878  0.4890
   81MOL   C45940619   7.317   3.541   4.137  0.2202 -0.0741 -0.4958
   81MOL   C46040620   7.347   3.610   4.269 -0.2177 -0.7976  0.4140
   81MOL   H46140621   0.150   3.241   3.597  0.4155 -0.3300  1.1779
   81MOL   H46240622   0.131   3.299   3.768 -3.0636  3.6117  0.6468
   81MOL   H46340623   7.735   3.389   3.541  1.2665  2.3164  0.6602
   81MOL   H46440624   7.512   3.443   3.647 -0.4990  1.8932 -0.1615
   81MOL   H46540625   7.611   3.564   3.614  2.1215  2.1523  1.7838
   81MOL   H46640626   7.495   3.686   3.767  1.0748 -0.4690 -2.2009
   81MOL   H46740627   7.617   3.635   3.859 -1.0728 -0.1398  2.0914
   81MOL   H46840628   7.340   3.487   3.849  0.7351 -1.7258  0.0263
   81MOL   H46940629   7.468   3.433   3.950  1.3157  0.4984  0.0140
   81MOL   H47040630   7.474   3.659   4.064  1.1261 -0.2116 -0.6614
   81MOL   H47140631   7.320   3.691   3.981  0.1388 -1.2322 -0.5354
   81MOL   H47240632   7.209   3.547   4.123 -0.1238 -0.2710  1.7625
   81MOL   H47340633   7.336   3.434   4.139  1.4899  0.1508 -0.0507
   81MOL   H47440634   7.322   3.716   4.277 -0.2315 -0.8473  1.0065
   81MOL   H47540635   7.280   3.559   4.338 -3.1832  0.3419 -1.5380
   81MOL   H47640636   7.448   3.595   4.307 -1.7204 -1.0569  4.4931
   81MOL   C47740637   7.683   3.201   3.627 -0.9704 -0.1465  0.3954
   81MOL   C47840638   7.537   3.199   3.575  0.5522  0.2119  0.3976
   81MOL   O47940639   7.512   3.065   3.516  0.0028 -0.2265 -0.2293
   81MOL   C48040640   7.491   2.962   3.613 -0.2907 -0.3879 -0.6344
   81MOL   C48140641   7.540   2.830   3.549 -0.4659 -1.1466 -0.4527
   81MOL   C48240642   7.525   2.710   3.641  0.4255  0.5197 -0.2887
   81MOL   C48340643   7.564   2.581   3.571 -0.2124  0.0155  0.0813
   81MOL   C48440644   7.555   2.459   3.662  0.2088 -1.0852 -0.4943
   81MOL   C48540645   7.412   2.414   3.697  0.3022 -0.8949  0.2007
   81MOL   H48640646   7.749   3.134   3.573  0.2521  0.8793  0.5801
   81MOL   H48740647   7.675   3.159   3.727  3.5202  3.9805  2.7206
   81MOL   H48840648   7.470   3.217   3.658  1.0192  1.9854  0.4220
   81MOL   H48940649   7.385   2.947   3.633  0.4139 -2.8389  1.4564
   81MOL   H49040650   7.547   2.980   3.704 -3.9935 -2.0212  2.0812
   81MOL   H49140651   7.648   2.837   3.532  0.0544 -2.9904  1.8578
   81MOL   H49240652   7.484   2.819   3.456 -1.6624  0.6137  0.0250
   81MOL   H49340653   7.590   2.710   3.728  0.2446 -1.2777 -0.1329
   81MOL   H49440654   7.421   2.712   3.673  1.6672  1.2668  3.9421
   81MOL   H49540655   7.506   2.568   3.479 -1.3412 -0.0261  0.7882
   81MOL   H49640656   7.669   2.587   3.543 -0.4868 -1.2558 -1.3020
   81MOL   H49740657   7.602   2.372   3.616  1.6901 -1.1626  1.1114
   81MOL   H49840658   7.606   2.472   3.758 -1.3730  1.3653  0.0461
   81MOL   H49940659   7.346   2.396   3.612  0.1862 -0.0660  0.1118
   81MOL   H50040660   7.411   2.318   3.749 -0.7484 -0.9005  0.1848
   81MOL   H50140661   7.365   2.489   3.761 -0.3562 -1.3976  0.3161
   81MOL   H50240662   7.538   3.269   3.491  1.0420  0.9250  0.9906
   82MOL     C140663   7.482   4.077   1.547 -0.3130  0.2950  0.2024
   82MOL     C240664   7.362   4.009   1.474 -0.9538 -0.0233 -0.3594
   82MOL     O340665   7.324   4.101   1.375  0.8546 -0.1188 -0.4121
   82MOL     C440666   7.349   4.055   1.246  0.9654  0.1413 -1.1497
   82MOL     C540667   7.296   4.143   1.139  0.2712 -0.2341 -0.0231
   82MOL     C640668   7.145   4.175   1.149 -0.2753  0.3114  0.2247
   82MOL     C740669   7.084   4.257   1.040  0.3252 -0.1502 -0.3509
   82MOL     C840670   7.063   4.177   0.913 -0.0314  0.2931  0.2340
   82MOL     C940671   6.980   4.240   0.795  1.5582  0.4766 -0.2505
   82MOL    H1040672   7.570   4.083   1.484 -0.1873 -1.0755  0.2347
   82MOL    H1140673   7.458   4.179   1.576 -1.0271 -0.0134  0.7092
   82MOL    H1240674   7.396   3.915   1.432  1.7291  0.4684  0.5984
   82MOL    H1340675   7.312   3.954   1.228  0.5527 -0.4785  2.8350
   82MOL    H1440676   7.457   4.048   1.230  1.8524  1.0821  3.6279
   82MOL    H1540677   7.315   4.083   1.050 -2.7132 -2.5585  0.8234
   82MOL    H1640678   7.337   4.244   1.138  0.5923 -0.3455  0.8490
   82MOL    H1740679   7.081   4.089   1.169  1.5097 -0.6455  1.9634
   82MOL    H1840680   7.130   4.223   1.246 -0.2855 -1.6169  1.2003
   82MOL    H1940681   6.984   4.283   1.074 -0.4650 -0.4623 -2.3902
   82MOL    H2040682   7.147   4.345   1.020 -1.1489  0.7773 -0.9752
   82MOL    H2140683   7.017   4.081   0.934  0.2610  0.5091  1.9324
   82MOL    H2240684   7.167   4.161   0.884 -0.6816 -0.7721 -1.6276
   82MOL    H2340685   7.030   4.304   0.722  0.0223 -0.7142 -2.4301
   82MOL    H2440686   6.936   4.158   0.738  2.1030 -0.6788  0.9786
   82MOL    H2540687   6.889   4.292   0.826  0.3442 -0.9528 -1.3340
   82MOL    H2640688   7.520   4.032   1.638 -2.2868  0.9947  1.4132
   82MOL    C2740689   7.241   3.985   1.567  0.1805 -0.3962  0.5903
   82MOL    C2840690   7.134   3.888   1.517  0.3309  0.0380  0.6106
   82MOL    O2940691   7.187   3.756   1.540  0.0452  0.3984  0.5027
   82MOL    C3040692   7.140   3.645   1.465  0.0986 -0.2090  0.0510
   82MOL    C3140693   7.191   3.509   1.523 -0.6784  0.3917 -0.7187
   82MOL    C3240694   7.190   3.394   1.430 -0.0293  0.0380  0.4983
   82MOL    C3340695   7.268   3.275   1.484 -0.7034 -0.8387 -0.3956
   82MOL    C3440696   7.243   3.151   1.388 -0.1034  0.1629 -0.3194
   82MOL    C3540697   7.304   3.014   1.427 -0.2977 -0.5241  0.0228
   82MOL    H3640698   7.278   3.945   1.661  1.4207 -0.8438 -0.0899
   82MOL    H3740699   7.208   4.086   1.592 -0.4530 -0.4757  0.0827
   82MOL    H3840700   7.136   3.908   1.410 -1.7577  0.3823  0.6227
   82MOL    H3940701   7.179   3.659   1.365  0.1517 -1.0988 -0.0511
   82MOL    H4040702   7.032   3.656   1.460  0.3177  0.8200 -3.6613
   82MOL    H4140703   7.138   3.486   1.616 -0.1685 -0.7038 -0.6933
   82MOL    H4240704   7.294   3.537   1.549 -0.0747 -1.8478 -0.5743
   82MOL    H4340705   7.086   3.362   1.419 -0.8384  2.8144 -0.4701
   82MOL    H4440706   7.232   3.425   1.334  1.2304 -0.2241  0.9497
   82MOL    H4540707   7.373   3.305   1.492 -1.2343  1.8038 -2.7292
   82MOL    H4640708   7.225   3.260   1.583  0.8866 -3.0284 -0.0018
   82MOL    H4740709   7.134   3.144   1.390 -0.3566  3.4719  1.3402
   82MOL    H4840710   7.266   3.181   1.285  3.2727  2.7551  1.0871
   82MOL    H4940711   7.411   3.023   1.447 -0.2169 -2.2374  0.4364
   82MOL    H5040712   7.270   2.970   1.520  1.1825  1.7160  1.6695
   82MOL    H5140713   7.290   2.949   1.341  1.1993 -0.0798 -0.5740
   82MOL    C5240714   6.998   3.907   1.594  0.8482 -1.4862 -0.5933
   82MOL    C5340715   6.902   4.009   1.531 -0.0177  0.0066  0.3798
   82MOL    O5440716   6.798   4.006   1.631  0.2215  0.1445 -0.0038
   82MOL    C5540717   6.666   3.973   1.572  0.4197  0.3039  0.0465
   82MOL    C5640718   6.553   3.994   1.673  0.4317  0.0716  0.7496
   82MOL    C5740719   6.510   4.142   1.680  0.1480  0.3201  0.6420
   82MOL    C5840720   6.393   4.160   1.777 -0.0317  0.0701  0.2896
   82MOL    C5940721   6.262   4.139   1.711 -0.6154 -0.0948  0.3736
   82MOL    C6040722   6.147   4.170   1.805  0.6099  0.3050 -0.0354
   82MOL    H6140723   7.009   3.928   1.701 -0.6431 -0.7685 -0.5642
   82MOL    H6240724   6.938   3.816   1.585 -0.1943 -1.1868  2.5954
   82MOL    H6340725   6.870   3.976   1.432  0.0315  3.3209 -0.8041
   82MOL    H6440726   6.671   3.866   1.553  0.7501  0.5989 -1.6178
   82MOL    H6540727   6.660   4.026   1.477  1.4522 -0.5632 -0.5120
   82MOL    H6640728   6.571   3.946   1.769 -1.4970 -1.4693  0.3714
   82MOL    H6740729   6.473   3.927   1.642  2.6709 -2.9439  1.3177
   82MOL    H6840730   6.586   4.204   1.727  0.0509  1.9685 -1.3211
   82MOL    H6940731   6.478   4.179   1.583  0.6303 -0.6243  0.1120
   82MOL    H7040732   6.407   4.082   1.852 -3.7333 -0.1557  0.8251
   82MOL    H7140733   6.406   4.259   1.820 -0.8129  0.7494 -0.9986
   82MOL    H7240734   6.239   4.186   1.615  2.0964 -0.1132 -0.3334
   82MOL    H7340735   6.251   4.031   1.700  0.7368 -0.1707 -0.3811
   82MOL    H7440736   6.169   4.128   1.903 -0.1923 -0.0352  0.0009
   82MOL    H7540737   6.137   4.277   1.826 -1.3752 -0.1845  1.6876
   82MOL    H7640738   6.059   4.120   1.767  0.8823 -2.2221  2.4741
   82MOL    C7740739   6.947   4.148   1.507  0.1767  0.1142  0.7221
   82MOL    C7840740   6.840   4.245   1.443 -0.4564  0.3950  0.0347
   82MOL    O7940741   6.824   4.205   1.307 -0.4839  0.4765  0.2476
   82MOL    C8040742   6.710   4.241   1.239  0.2457  0.5587  0.4258
   82MOL    C8140743   6.703   4.181   1.097  0.5001  0.0867  0.4828
   82MOL    C8240744   6.657   4.036   1.090 -0.0772  0.7838 -0.6757
   82MOL    C8340745   6.498   4.020   1.079 -0.1421  0.4657  0.5247
   82MOL    C8440746   6.445   3.877   1.101  0.0840 -0.7192 -0.2100
   82MOL    C8540747   6.476   3.770   0.999  0.3386  0.1011  0.5834
   82MOL    H8640748   7.043   4.144   1.454 -0.1186  0.5032  0.1548
   82MOL    H8740749   6.968   4.186   1.607 -1.1033  2.5538  0.1066
   82MOL    H8840750   6.747   4.241   1.499 -0.6945  2.2179 -0.1834
   82MOL    H8940751   6.718   4.348   1.220  0.7420  0.5377  0.5276
   82MOL    H9040752   6.618   4.215   1.292  1.1052  0.9422  2.1444
   82MOL    H9140753   6.801   4.170   1.051 -0.0329  0.9465 -0.9052
   82MOL    H9240754   6.632   4.232   1.032 -0.5757 -1.8767  0.0801
   82MOL    H9340755   6.703   3.986   1.006  1.2831  0.2242  0.3900
   82MOL    H9440756   6.682   3.983   1.182 -0.9180  1.9798  0.2636
   82MOL    H9540757   6.449   4.077   1.158 -1.1622 -1.5478  1.3681
   82MOL    H9640758   6.461   4.062   0.985 -1.1035 -0.2284  0.5903
   82MOL    H9740759   6.488   3.836   1.193 -3.0699 -2.1007  0.7223
   82MOL    H9840760   6.336   3.878   1.104  0.0701 -0.7396 -0.6581
   82MOL    H9940761   6.582   3.749   1.013  0.5244  1.2045  0.8435
   82MOL   H10040762   6.417   3.681   1.022  0.0715  0.0804 -0.1873
   82MOL   H10140763   6.465   3.800   0.895  1.4607  1.1963  0.7687
   82MOL   C10240764   6.881   4.397   1.451 -0.1900  1.0257  0.5213
   82MOL   C10340765   6.874   4.466   1.584  0.0848 -0.1285 -0.2332
   82MOL   O10440766   6.950   4.581   1.574 -0.3288 -0.0982  0.6880
   82MOL   C10540767   7.077   4.581   1.629  0.8896 -0.0181 -0.9686
   82MOL   C10640768   7.125   4.726   1.642 -0.5759 -0.3012  0.5854
   82MOL   C10740769   7.052   4.825   1.745 -0.2954  0.1039  0.6519
   82MOL   C10840770   7.097   4.971   1.716  0.0280 -0.3681  0.2413
   82MOL   C10940771   7.020   5.079   1.790  0.1354 -0.3608 -0.2469
   82MOL   C11040772   7.070   5.212   1.744  0.0755 -0.2680 -0.7727
   82MOL   H11140773   6.982   4.411   1.411 -0.7537  1.4770 -0.7725
   82MOL   H11240774   6.826   4.468   1.388 -0.2100  0.1173 -0.5036
   82MOL   H11340775   6.904   4.408   1.671  0.2329  0.4162  0.0823
   82MOL   H11440776   7.145   4.506   1.587  0.5831 -1.8987  1.7696
   82MOL   H11540777   7.065   4.554   1.734 -2.5513 -0.1716 -1.3366
   82MOL   H11640778   7.106   4.764   1.541 -2.5657  2.9303  2.0981
   82MOL   H11740779   7.232   4.720   1.661 -0.4909  0.2498  0.2902
   82MOL   H11840780   6.945   4.806   1.734 -0.2674 -0.2771  1.0002
   82MOL   H11940781   7.069   4.804   1.850  0.7403  0.0083  0.4753
   82MOL   H12040782   7.203   4.982   1.741  1.2721  0.6379 -4.8242
   82MOL   H12140783   7.077   4.983   1.609  0.4973 -2.6883 -0.1356
   82MOL   H12240784   6.911   5.085   1.789  0.0912 -0.5195 -4.0003
   82MOL   H12340785   7.044   5.067   1.896 -1.1175  2.3853  0.3946
   82MOL   H12440786   7.028   5.298   1.796  0.8758 -1.2298  1.5237
   82MOL   H12540787   7.178   5.219   1.754 -0.1593  1.3723  0.9082
   82MOL   H12640788   7.036   5.225   1.641 -1.4012  0.8829 -0.1683
   82MOL   C12740789   6.728   4.507   1.626  0.2843 -0.6326  0.2206
   82MOL   C12840790   6.688   4.591   1.751 -0.0304  0.2589 -0.7345
   82MOL   O12940791   6.682   4.503   1.863 -0.1884 -0.4253  0.0943
   82MOL   C13040792   6.806   4.480   1.930 -0.6565  0.2077  0.3525
   82MOL   C13140793   6.814   4.587   2.046  1.2876  0.0898  0.9186
   82MOL   C13240794   6.918   4.548   2.147 -0.1724  0.2274 -0.2807
   82MOL   C13340795   6.907   4.641   2.269 -0.0757  0.1456  0.3340
   82MOL   C13440796   6.983   4.600   2.395  0.3285 -0.2504 -0.0320
   82MOL   C13540797   6.922   4.484   2.474 -1.2460  0.3931  0.1875
   82MOL   H13640798   6.697   4.580   1.552  1.4991 -0.8445 -0.5083
   82MOL   H13740799   6.656   4.426   1.617 -0.7343  0.3356 -0.4320
   82MOL   H13840800   6.757   4.675   1.758 -0.6740  0.6855  0.6957
   82MOL   H13940801   6.899   4.489   1.876 -1.4937  1.3182 -0.9258
   82MOL   H14040802   6.796   4.377   1.964  0.0789 -0.0834 -0.3145
   82MOL   H14140803   6.712   4.582   2.083  1.2897 -1.1778  0.7766
   82MOL   H14240804   6.836   4.687   2.008 -1.4456  0.7105  0.8835
   82MOL   H14340805   6.887   4.449   2.181  0.9768  0.5061  1.6269
   82MOL   H14440806   7.014   4.527   2.101 -1.0474 -1.8440 -1.2171
   82MOL   H14540807   6.927   4.742   2.235  1.1641 -0.3173 -0.3355
   82MOL   H14640808   6.803   4.655   2.299  0.6163  1.0606  2.3793
   82MOL   H14740809   7.082   4.570   2.360  0.1697  0.0046 -0.7226
   82MOL   H14840810   6.996   4.689   2.457  1.0377  0.8514 -1.6980
   82MOL   H14940811   6.821   4.508   2.508 -1.2947 -0.4877  0.6777
   82MOL   H15040812   6.927   4.393   2.413 -1.9413 -1.1445  2.3695
   82MOL   H15140813   6.975   4.475   2.568  2.7645 -1.2320 -2.1199
   82MOL   C15240814   6.543   4.639   1.746  0.2641  0.1115 -0.2905
   82MOL   C15340815   6.487   4.719   1.866 -0.1242 -0.2616  0.7210
   82MOL   O15440816   6.561   4.840   1.864 -0.2963  0.0741 -0.0151
   82MOL   C15540817   6.552   4.918   1.981 -0.2619  0.0371 -0.5537
   82MOL   C15640818   6.651   5.037   1.977 -0.5998 -0.2884 -0.1961
   82MOL   C15740819   6.666   5.103   2.114  0.0366  0.3075  0.1975
   82MOL   C15840820   6.770   5.221   2.100 -0.1659  0.3726  0.3344
   82MOL   C15940821   6.774   5.308   2.231 -0.5281 -0.0486  0.0721
   82MOL   C16040822   6.882   5.415   2.219 -0.7214 -0.5620  0.0010
   82MOL   H16140823   6.541   4.709   1.662 -0.2039 -0.2404 -0.5727
   82MOL   H16240824   6.475   4.555   1.733  1.5005 -1.1065  1.0409
   82MOL   H16340825   6.510   4.664   1.957  2.5737  0.4003  0.4882
   82MOL   H16440826   6.573   4.854   2.067 -2.5955 -0.0968 -0.0328
   82MOL   H16540827   6.451   4.959   1.989 -0.5738 -0.8666  0.2616
   82MOL   H16640828   6.612   5.109   1.904 -1.4791 -1.1335 -0.5751
   82MOL   H16740829   6.753   5.011   1.949  0.9047  1.8410  3.0458
   82MOL   H16840830   6.571   5.149   2.143  1.1486  2.4233  0.5499
   82MOL   H16940831   6.696   5.028   2.187  1.1105  0.2528 -0.2982
   82MOL   H17040832   6.867   5.176   2.083 -0.8057 -1.9811  2.6871
   82MOL   H17140833   6.736   5.281   2.016 -1.8503  0.3027  0.9435
   82MOL   H17240834   6.680   5.361   2.247 -1.4852 -2.4438  2.7646
   82MOL   H17340835   6.785   5.255   2.326  2.0220  1.1260  0.4642
   82MOL   H17440836   6.860   5.495   2.290 -1.3023 -0.8938  0.1984
   82MOL   H17540837   6.977   5.367   2.244 -1.6260 -3.7469 -2.4423
   82MOL   H17640838   6.885   5.459   2.120  2.3891  1.9566  1.0979
   82MOL   C17740839   6.335   4.747   1.849  0.6045  0.5385 -0.7974
   82MOL   C17840840   6.257   4.613   1.880  0.3103  0.1879  0.3027
   82MOL   O17940841   6.287   4.592   2.018  0.2855 -0.2258  0.2239
   82MOL   C18040842   6.274   4.454   2.061  0.0556 -0.0800 -0.1880
   82MOL   C18140843   6.323   4.429   2.197  0.4870 -0.2000 -0.0208
   82MOL   C18240844   6.473   4.443   2.199  0.1127 -0.0911  0.1934
   82MOL   C18340845   6.525   4.418   2.340 -0.1351 -0.7806  0.0755
   82MOL   C18440846   6.458   4.504   2.452 -0.3902 -0.4225  0.7124
   82MOL   C18540847   6.455   4.659   2.435  0.6050  0.7760  0.2327
   82MOL   H18640848   6.297   4.827   1.912  0.1710 -0.5169  0.2802
   82MOL   H18740849   6.314   4.766   1.743  1.3254  1.0348 -0.8524
   82MOL   H18840850   6.284   4.529   1.815 -2.1764 -0.3811 -0.0670
   82MOL   H18940851   6.331   4.387   1.996  0.7090 -1.9701  2.2752
   82MOL   H19040852   6.170   4.424   2.046 -0.1787  0.4436  0.3930
   82MOL   H19140853   6.292   4.333   2.239 -1.0913  1.0050  1.6624
   82MOL   H19240854   6.279   4.507   2.258 -0.5590  0.2428 -1.3179
   82MOL   H19340855   6.517   4.372   2.129 -0.3673  1.3319 -1.6148
   82MOL   H19440856   6.507   4.537   2.156  0.1432  0.2151  0.8865
   82MOL   H19540857   6.502   4.316   2.370  0.3420 -0.1961  2.4699
   82MOL   H19640858   6.634   4.426   2.330 -0.1726 -1.1277 -0.7018
   82MOL   H19740859   6.355   4.471   2.460  1.1936 -5.6422  1.3465
   82MOL   H19840860   6.509   4.473   2.543  0.0382 -0.2796  0.5263
   82MOL   H19940861   6.551   4.711   2.441  0.1467  1.8122 -0.9893
   82MOL   H20040862   6.416   4.692   2.338  0.6554 -3.0717 -1.1924
   82MOL   H20140863   6.394   4.709   2.510  0.2915  1.1305 -0.2513
   82MOL   C20240864   6.102   4.638   1.853 -0.0187 -0.3684  0.1155
   82MOL   C20340865   6.049   4.620   1.711 -0.4440  0.2234  0.7332
   82MOL   O20440866   6.072   4.733   1.618 -0.2356  0.2170  0.8343
   82MOL   C20540867   6.164   4.719   1.514 -0.8531 -0.2547  0.4404
   82MOL   C20640868   6.178   4.839   1.423  0.2753  0.6698  0.6139
   82MOL   C20740869   6.272   4.819   1.302  0.1279 -0.5800  0.4596
   82MOL   C20840870   6.297   4.944   1.215  0.0156 -0.6540  0.1400
   82MOL   C20940871   6.163   4.987   1.147  0.0520 -0.2346  0.2249
   82MOL   C21040872   6.179   5.099   1.046  0.6883  0.3218 -0.4805
   82MOL   H21140873   6.054   4.575   1.928 -0.6475  1.5088  1.3449
   82MOL   H21240874   6.081   4.742   1.880  1.7424  0.4063 -1.4451
   82MOL   H21340875   6.097   4.532   1.668 -0.2340  0.8068 -0.2370
   82MOL   H21440876   6.132   4.644   1.441  1.0669 -1.8704  1.1959
   82MOL   H21540877   6.257   4.682   1.557 -0.3129 -1.3845 -1.5990
   82MOL   H21640878   6.205   4.924   1.487 -0.8737  1.1091  0.5324
   82MOL   H21740879   6.076   4.857   1.389 -0.0136  1.1184  1.6945
   82MOL   H21840880   6.369   4.778   1.330  0.7031 -0.2559 -0.9765
   82MOL   H21940881   6.222   4.751   1.233  1.7044 -1.3210  0.0171
   82MOL   H22040882   6.339   5.022   1.278 -0.0540  0.6118 -1.3515
   82MOL   H22140883   6.371   4.921   1.138 -0.8364 -1.6846 -0.3902
   82MOL   H22240884   6.127   4.903   1.088 -1.9522 -0.8636  2.2673
   82MOL   H22340885   6.083   5.023   1.212  1.1775  2.8827 -0.0384
   82MOL   H22440886   6.279   5.100   1.002  0.5606 -0.6517 -0.8027
   82MOL   H22540887   6.122   5.096   0.953 -1.4862  2.1357  0.7272
   82MOL   H22640888   6.163   5.198   1.088  0.5355  0.4249 -0.7783
   82MOL   C22740889   5.899   4.600   1.706  0.4204 -0.1981  0.0836
   82MOL   C22840890   5.845   4.471   1.767 -0.2268 -0.7704 -0.5172
   82MOL   O22940891   5.837   4.498   1.913  0.3107  0.4981 -0.3636
   82MOL   C23040892   5.873   4.391   1.999  0.0431  0.5706 -0.3272
   82MOL   C23140893   5.872   4.450   2.140 -0.1591 -0.4165 -0.6752
   82MOL   C23240894   5.919   4.351   2.251 -0.2999 -0.4134  0.6472
   82MOL   C23340895   5.903   4.404   2.392  0.0677  0.1228  0.1055
   82MOL   C23440896   5.958   4.317   2.503  0.1949  0.1696  0.2736
   82MOL   C23540897   6.108   4.328   2.519 -0.0255 -0.2087  0.2846
   82MOL   H23640898   5.852   4.688   1.751  1.0722  0.9184 -1.3678
   82MOL   H23740899   5.874   4.598   1.600 -4.1067 -2.1938  1.0632
   82MOL   H23840900   5.910   4.387   1.740 -0.6470 -1.1461 -0.3724
   82MOL   H23940901   5.973   4.350   1.987 -0.6938 -0.7621 -2.0611
   82MOL   H24040902   5.805   4.306   2.006  0.2650  0.5832  2.1350
   82MOL   H24140903   5.777   4.497   2.168  0.3432  0.4277 -0.3919
   82MOL   H24240904   5.946   4.529   2.134 -0.7144  0.2101  0.4881
   82MOL   H24340905   5.874   4.252   2.242  0.0530 -0.4482 -0.8054
   82MOL   H24440906   6.026   4.344   2.237 -0.1178  1.0064  1.2191
   82MOL   H24540907   5.938   4.506   2.408  0.1292  0.2573 -0.8817
   82MOL   H24640908   5.797   4.414   2.416  0.4624  1.4393  1.3562
   82MOL   H24740909   5.903   4.335   2.596  2.7875  1.6042  1.5618
   82MOL   H24840910   5.941   4.214   2.470 -0.7440  0.4830 -0.2513
   82MOL   H24940911   6.161   4.359   2.429  2.2045 -1.0515  1.2697
   82MOL   H25040912   6.138   4.400   2.595 -1.7274  3.1178 -2.0609
   82MOL   H25140913   6.147   4.230   2.547 -2.4451 -0.8841  1.4426
   82MOL   C25240914   5.706   4.451   1.718 -0.5439 -0.7197  0.3339
   82MOL   C25340915   5.692   4.375   1.583  0.1797  0.2438  0.5238
   82MOL   O25440916   5.596   4.443   1.499 -0.4683 -0.0601 -0.4387
   82MOL   C25540917   5.460   4.440   1.543 -0.5603  0.1913  0.4609
   82MOL   C25640918   5.387   4.471   1.416  0.0923 -0.4079  0.5535
   82MOL   C25740919   5.402   4.627   1.383  0.2079 -0.0394  0.4396
   82MOL   C25840920   5.334   4.674   1.244  0.3660 -0.8324 -0.1808
   82MOL   C25940921   5.184   4.639   1.215  0.3384 -0.6331  0.2714
   82MOL   C26040922   5.071   4.698   1.301  0.9403  0.2271 -0.5773
   82MOL   H26140923   5.650   4.397   1.796 -0.7897  2.2052  2.2753
   82MOL   H26240924   5.660   4.549   1.725  1.6064  0.1862  2.1435
   82MOL   H26340925   5.784   4.373   1.524  0.4089 -1.8252  0.9223
   82MOL   H26440926   5.451   4.515   1.622 -1.0727  0.0798  0.5100
   82MOL   H26540927   5.432   4.338   1.569 -1.5953  0.1423 -0.8095
   82MOL   H26640928   5.286   4.439   1.442  0.1545 -0.3757  0.8461
   82MOL   H26740929   5.410   4.408   1.331  0.0345  0.7789 -0.3513
   82MOL   H26840930   5.353   4.676   1.468 -0.7473  0.1197 -0.1917
   82MOL   H26940931   5.507   4.655   1.377 -0.2461  1.3770 -1.1863
   82MOL   H27040932   5.336   4.782   1.238 -1.4591 -0.9088 -3.5051
   82MOL   H27140933   5.384   4.631   1.156  1.1778  1.5894 -0.9305
   82MOL   H27240934   5.157   4.666   1.113 -0.8723 -0.9136  0.5096
   82MOL   H27340935   5.178   4.531   1.224 -2.7224 -0.4172  1.4299
   82MOL   H27440936   5.082   4.805   1.318  1.8475  0.2718 -1.4288
   82MOL   H27540937   4.975   4.688   1.250 -0.7359  2.8574  1.8860
   82MOL   H27640938   5.057   4.663   1.404 -1.4777 -0.3898 -1.0703
   82MOL   C27740939   5.652   4.225   1.603  0.5336 -0.0767 -0.9334
   82MOL   C27840940   5.623   4.143   1.479 -0.5378  0.1326 -0.0329
   82MOL   O27940941   5.749   4.123   1.415 -0.0640  0.0709  0.1199
   82MOL   C28040942   5.752   4.200   1.293  0.2344  0.1570 -0.9389
   82MOL   C28140943   5.895   4.207   1.248 -0.7771 -0.3908 -0.2324
   82MOL   C28240944   5.975   4.293   1.354 -0.1228  0.3207  0.4760
   82MOL   C28340945   6.123   4.317   1.306 -0.4040  0.2247 -0.1008
   82MOL   C28440946   6.142   4.414   1.188  0.0234  0.1530  0.2417
   82MOL   C28540947   6.289   4.416   1.134  0.3231 -0.1215  0.2967
   82MOL   H28640948   5.731   4.184   1.666 -0.0398 -1.2073 -0.9513
   82MOL   H28740949   5.566   4.220   1.670  1.0418  0.7876 -0.2052
   82MOL   H28840950   5.547   4.189   1.417  2.5951  0.1020 -4.0827
   82MOL   H28940951   5.719   4.301   1.317  1.0270  0.3415 -0.5846
   82MOL   H29040952   5.677   4.164   1.223  0.8958 -0.0917 -1.5288
   82MOL   H29140953   5.903   4.238   1.144  0.2157 -1.1715 -0.3988
   82MOL   H29240954   5.934   4.105   1.245 -0.1837 -0.1639 -0.2911
   82MOL   H29340955   5.922   4.388   1.361  0.3181  0.4843  1.6644
   82MOL   H29440956   5.975   4.247   1.453  2.6667 -1.0794 -0.1267
   82MOL   H29540957   6.179   4.348   1.394 -0.4487 -2.6108  0.9781
   82MOL   H29640958   6.176   4.229   1.273  1.9409  1.2726  0.7812
   82MOL   H29740959   6.079   4.376   1.108  2.1831 -1.0581 -0.9465
   82MOL   H29840960   6.119   4.516   1.219 -2.4800 -0.2871 -0.0927
   82MOL   H29940961   6.337   4.325   1.098  2.1024  0.8336  0.2150
   82MOL   H30040962   6.295   4.484   1.049  0.6209 -0.0788  0.3535
   82MOL   H30140963   6.360   4.445   1.211  0.7842 -1.4365  0.3661
   82MOL   C30240964   5.590   3.995   1.518  0.3647  0.5128  0.2833
   82MOL   C30340965   5.452   3.986   1.579  0.0863  0.0312  0.0672
   82MOL   O30440966   5.421   3.847   1.597 -0.3062  0.6593 -0.0143
   82MOL   C30540967   5.405   3.812   1.732 -0.4097  0.1851 -0.4261
   82MOL   C30640968   5.536   3.806   1.802 -0.0395  0.1030  0.4460
   82MOL   C30740969   5.627   3.688   1.768 -0.8948  0.1728  0.4991
   82MOL   C30840970   5.762   3.679   1.843 -0.2491 -0.2013  0.1304
   82MOL   C30940971   5.860   3.788   1.806  0.8116 -0.6580 -0.6732
   82MOL   C31040972   5.838   3.923   1.883  0.0883 -0.1338 -0.2201
   82MOL   H31140973   5.601   3.919   1.441 -1.7221  0.8845 -0.4110
   82MOL   H31240974   5.664   3.966   1.593  0.2573  0.6361  0.4358
   82MOL   H31340975   5.444   4.037   1.675 -1.8879  1.9859 -1.0802
   82MOL   H31440976   5.363   3.711   1.735  0.4897 -0.2140 -0.9141
   82MOL   H31540977   5.337   3.880   1.784 -0.5989  0.6074 -1.2170
   82MOL   H31640978   5.493   3.768   1.895 -2.0433  2.4703  0.5603
   82MOL   H31740979   5.591   3.899   1.816  1.9251 -1.0935  0.7618
   82MOL   H31840980   5.578   3.596   1.800  0.0467 -0.1381  1.0455
   82MOL   H31940981   5.648   3.678   1.661  0.2788  2.9802  0.4316
   82MOL   H32040982   5.741   3.677   1.951 -0.7300  2.1235  0.0987
   82MOL   H32140983   5.808   3.587   1.807  1.4829  1.2258 -1.3649
   82MOL   H32240984   5.961   3.753   1.828  0.4084 -1.5255 -0.1921
   82MOL   H32340985   5.849   3.806   1.699 -1.3385  1.3439 -0.1594
   82MOL   H32440986   5.930   3.960   1.928 -0.7807 -0.0289  1.4999
   82MOL   H32540987   5.802   3.996   1.811  0.5297 -0.8103 -1.1418
   82MOL   H32640988   5.767   3.916   1.965 -0.1575  1.3747 -0.2886
   82MOL   C32740989   5.335   4.053   1.500 -0.3397 -0.2236 -0.2086
   82MOL   C32840990   5.192   4.023   1.564 -0.0134 -0.8582 -0.2630
   82MOL   O32940991   5.188   4.100   1.680  0.0251 -0.2528  0.5273
   82MOL   C33040992   5.089   4.077   1.779 -0.1346 -0.2673 -0.5638
   82MOL   C33140993   5.127   4.164   1.901 -0.3976 -0.3244  0.0600
   82MOL   C33240994   5.134   4.316   1.876 -0.4538 -0.6853 -0.3926
   82MOL   C33340995   5.192   4.399   1.992  0.6000 -0.0370  0.1091
   82MOL   C33440996   5.185   4.554   1.966  0.2461  0.0964  0.2588
   82MOL   C33540997   5.232   4.633   2.087  0.4180 -0.2942 -0.2282
   82MOL   H33640998   5.330   4.012   1.399  1.8933 -0.8707 -0.0828
   82MOL   H33740999   5.343   4.162   1.492 -0.7887  0.0558  2.5047
   82MOL   H33841000   5.175   3.918   1.587 -2.8883 -0.1465  1.1424
   82MOL   H33941001   5.108   3.973   1.803  0.1331 -0.5140 -1.7851
   82MOL   H34041002   4.986   4.095   1.747 -0.4133 -1.0668 -0.1244
   82MOL   H34141003   5.227   4.129   1.926  0.0453 -0.1366 -1.3786
   82MOL   H34241004   5.065   4.152   1.990  0.7703  0.9640  1.0711
   82MOL   H34341005   5.192   4.332   1.785 -0.2938  0.1737 -0.1496
   82MOL   H34441006   5.039   4.357   1.841 -1.3071 -1.3320  1.1217
   82MOL   H34541007   5.135   4.382   2.083 -0.6087 -1.6131 -0.9079
   82MOL   H34641008   5.294   4.373   2.019  0.7540  0.0061 -0.4240
   82MOL   H34741009   5.239   4.574   1.873 -0.9016 -2.8429 -1.0818
   82MOL   H34841010   5.081   4.569   1.938  1.3295  1.9513 -3.2502
   82MOL   H34941011   5.168   4.624   2.175 -0.0670  1.3600 -0.3920
   82MOL   H35041012   5.331   4.595   2.111  0.3853 -0.2174  0.0257
   82MOL   H35141013   5.237   4.740   2.068 -1.2242  0.0807  1.2929
   82MOL   C35241014   5.072   4.062   1.479  0.1750  0.2644  0.1687
   82MOL   C35341015   5.064   3.987   1.347 -0.1914  0.7571  0.0665
   82MOL   O35441016   5.142   4.058   1.251  0.2046  0.1086  0.5095
   82MOL   C35541017   5.209   3.974   1.156  0.2785 -0.3179  0.6089
   82MOL   C35641018   5.243   4.072   1.033  0.5208  0.0494 -0.1658
   82MOL   C35741019   5.331   4.192   1.068 -0.3889 -0.4220 -0.0052
   82MOL   C35841020   5.402   4.251   0.946  0.5285  0.4765 -0.3596
   82MOL   C35941021   5.436   4.403   0.946 -0.3720  0.4447  0.2032
   82MOL   C36041022   5.584   4.427   0.969  0.1412  0.2045 -0.0585
   82MOL   H36141023   4.986   4.041   1.543 -1.9345  2.3352 -1.9031
   82MOL   H36241024   5.071   4.169   1.459  1.3738  0.3584  0.5789
   82MOL   H36341025   5.111   3.889   1.362  0.6514  0.8326 -1.8974
   82MOL   H36441026   5.144   3.893   1.122  1.6203 -1.0003 -0.3340
   82MOL   H36541027   5.302   3.929   1.190  0.3988 -0.9728 -0.5662
   82MOL   H36641028   5.146   4.116   1.014 -0.9639 -2.1456  1.9445
   82MOL   H36741029   5.280   4.007   0.953  1.8123  1.6504 -0.8908
   82MOL   H36841030   5.258   4.263   1.106 -0.1197  0.1590 -0.5874
   82MOL   H36941031   5.408   4.175   1.144  3.2103 -2.2820 -3.8810
   82MOL   H37041032   5.486   4.186   0.921 -0.0838 -0.3500 -0.2989
   82MOL   H37141033   5.325   4.237   0.870  0.1392  0.7594 -0.0206
   82MOL   H37241034   5.394   4.438   0.852  0.2877  0.1403 -0.2048
   82MOL   H37341035   5.384   4.460   1.024 -1.3620  1.4300 -1.1467
   82MOL   H37441036   5.601   4.443   1.076 -3.6857 -1.0273  0.7992
   82MOL   H37541037   5.649   4.344   0.941  0.3981  0.5582 -0.5150
   82MOL   H37641038   5.614   4.515   0.913 -3.2754  0.3385 -1.7984
   82MOL   C37741039   4.923   3.976   1.287 -0.1683 -0.0248  0.5993
   82MOL   C37841040   4.818   3.900   1.372  0.4608 -0.4202  0.1172
   82MOL   O37941041   4.866   3.763   1.374  0.1723 -0.1427  0.4066
   82MOL   C38041042   4.896   3.717   1.509  0.1933  0.6813  0.3288
   82MOL   C38141043   4.973   3.587   1.507 -0.1954 -0.1482 -1.3612
   82MOL   C38241044   4.985   3.539   1.652 -0.0227  0.0222 -0.1745
   82MOL   C38341045   5.076   3.419   1.646  0.7520 -0.2636 -0.0909
   82MOL   C38441046   5.098   3.359   1.792  0.1323 -0.1950 -0.8765
   82MOL   C38541047   5.186   3.446   1.886  0.6129  0.0064  0.4540
   82MOL   H38641048   4.882   4.075   1.271 -0.5316 -0.3804 -0.7300
   82MOL   H38741049   4.925   3.936   1.185  0.0927 -0.2767  0.7004
   82MOL   H38841050   4.794   3.940   1.471  0.7877 -0.1301  0.0799
   82MOL   H38941051   4.804   3.711   1.567  0.0381  1.7026  0.1936
   82MOL   H39041052   4.962   3.793   1.551 -0.3926  0.7560  1.1298
   82MOL   H39141053   5.069   3.597   1.455 -0.2158  1.7266 -1.0839
   82MOL   H39241054   4.911   3.518   1.450 -2.6155  0.1619  0.8139
   82MOL   H39341055   5.030   3.612   1.719  1.8433 -0.1494 -1.2158
   82MOL   H39441056   4.887   3.507   1.688 -0.4135  0.1291 -1.1261
   82MOL   H39541057   5.040   3.344   1.574 -0.1750  1.9005 -1.9325
   82MOL   H39641058   5.167   3.465   1.607  1.0489  2.6050  3.7794
   82MOL   H39741059   5.008   3.326   1.844  1.0192 -0.3229  0.6059
   82MOL   H39841060   5.152   3.265   1.777 -0.3923 -0.9289  1.5076
   82MOL   H39941061   5.231   3.379   1.958  0.5712  0.1218  0.5879
   82MOL   H40041062   5.264   3.503   1.836 -0.8513  2.3627  0.7900
   82MOL   H40141063   5.128   3.519   1.942  2.6255  0.9881  1.2793
   82MOL   C40241064   4.691   3.884   1.292  0.1321 -0.5383  0.3376
   82MOL   C40341065   4.567   3.822   1.360 -0.2919 -0.3455  0.2876
   82MOL   O40441066   4.450   3.827   1.278  0.4884  0.0856  0.1102
   82MOL   C40541067   4.436   3.724   1.190  0.1684 -0.7764 -0.1220
   82MOL   C40641068   4.309   3.738   1.109  0.2069  0.4160 -0.5898
   82MOL   C40741069   4.174   3.676   1.171 -0.8614  0.1849 -0.4618
   82MOL   C40841070   4.051   3.706   1.087 -0.1289  0.0686 -0.9325
   82MOL   C40941071   3.929   3.628   1.131 -0.1376 -0.3913  0.0407
   82MOL   C41041072   3.926   3.482   1.086 -0.3466  0.0012 -0.4152
   82MOL   H41141073   4.720   3.821   1.209 -1.6437 -0.1608 -0.5793
   82MOL   H41241074   4.660   3.984   1.260 -0.6221 -1.2337 -1.1424
   82MOL   H41341075   4.593   3.718   1.384 -0.0572 -0.3832 -0.1321
   82MOL   H41441076   4.434   3.632   1.248 -0.4142  0.1759  1.3912
   82MOL   H41541077   4.524   3.727   1.125  1.1733  1.3351  1.2695
   82MOL   H41641078   4.323   3.682   1.017  0.6388 -2.5700  1.2158
   82MOL   H41741079   4.304   3.843   1.082  1.1194  0.9271  1.1418
   82MOL   H41841080   4.192   3.569   1.175  0.0977  0.3730  0.4066
   82MOL   H41941081   4.159   3.714   1.272  1.1489  0.9413 -0.4240
   82MOL   H42041082   4.038   3.813   1.099 -2.0428 -0.1684 -0.7592
   82MOL   H42141083   4.066   3.695   0.980 -1.9362 -0.7883 -1.1210
   82MOL   H42241084   3.923   3.638   1.240  3.3642  0.4461  0.2156
   82MOL   H42341085   3.853   3.688   1.082 -1.5023  0.0278  2.5945
   82MOL   H42441086   4.026   3.442   1.068  0.1285  1.7535 -1.7229
   82MOL   H42541087   3.878   3.403   1.145  1.4954 -0.4781  0.4886
   82MOL   H42641088   3.891   3.482   0.982  1.2863  0.9824 -0.9723
   82MOL   C42741089   4.533   3.906   1.485 -0.2497 -0.0002 -0.1495
   82MOL   C42841090   4.418   3.843   1.563 -0.1653 -0.9669  0.5112
   82MOL   O42941091   4.477   3.737   1.636  0.0897  0.6916  0.4057
   82MOL   C43041092   4.396   3.619   1.641  0.2044  0.3026  0.3153
   82MOL   C43141093   4.465   3.523   1.730 -0.1420  0.0573  0.0037
   82MOL   C43241094   4.549   3.428   1.648 -0.6615 -0.0978  0.1437
   82MOL   C43341095   4.641   3.342   1.738 -0.2462  0.2837 -0.0125
   82MOL   C43441096   4.739   3.261   1.646 -0.0429 -0.4557  0.3091
   82MOL   C43541097   4.666   3.143   1.597  0.1799 -0.1969  0.3705
   82MOL   H43641098   4.618   3.901   1.553  1.3721  0.6160 -2.0725
   82MOL   H43741099   4.516   4.010   1.459 -0.8197  0.0804  0.5419
   82MOL   H43841100   4.341   3.805   1.496  0.1609  1.7295 -1.4579
   82MOL   H43941101   4.381   3.571   1.544  1.2836  0.8919 -0.1562
   82MOL   H44041102   4.303   3.649   1.688 -0.2690 -1.6364  0.6492
   82MOL   H44141103   4.389   3.471   1.789 -2.7802  2.6332 -0.9922
   82MOL   H44241104   4.517   3.586   1.802  0.0503  1.1034 -1.0256
   82MOL   H44341105   4.489   3.359   1.589  0.1173 -2.1563  1.6929
   82MOL   H44441106   4.618   3.476   1.579  1.0726 -1.7418  0.7063
   82MOL   H44541107   4.701   3.414   1.795 -1.4212 -0.7193  2.5640
   82MOL   H44641108   4.594   3.281   1.814  0.3394 -0.8027 -0.5127
   82MOL   H44741109   4.773   3.328   1.567 -1.0711 -1.8821 -1.3603
   82MOL   H44841110   4.821   3.234   1.712 -0.6741  1.6505  2.0350
   82MOL   H44941111   4.617   3.084   1.674  0.8237 -0.4625  0.5737
   82MOL   H45041112   4.590   3.177   1.526  0.4279 -1.9706 -0.7781
   82MOL   H45141113   4.725   3.065   1.548  0.3183  0.8915 -1.2596
   82MOL   C45241114   4.348   3.939   1.667 -0.2079 -0.4218  0.4998
   82MOL   C45341115   4.279   4.066   1.605  0.4419 -0.7353 -0.1975
   82MOL   O45441116   4.235   4.148   1.713 -0.4347 -0.5834 -0.3284
   82MOL   C45541117   4.269   4.285   1.709 -0.1882 -0.7858  0.4831
   82MOL   C45641118   4.291   4.331   1.849  0.3774 -0.6619  0.0734
   82MOL   C45741119   4.351   4.465   1.866 -0.1406 -0.0319  0.1836
   82MOL   C45841120   4.404   4.505   2.007 -0.2502  0.2672 -0.8207
   82MOL   C45941121   4.309   4.489   2.125  0.4365 -0.5110  0.0342
   82MOL   C46041122   4.185   4.578   2.118 -0.3047 -0.4976 -0.4899
   82MOL   H46141123   4.276   3.878   1.723 -1.2656  1.8715  1.7288
   82MOL   H46241124   4.423   3.973   1.738 -0.5912  0.7830  0.3319
   82MOL   H46341125   4.343   4.116   1.533  1.3748 -0.3117  0.9210
   82MOL   H46441126   4.182   4.339   1.671 -0.3432 -2.0452 -0.9561
   82MOL   H46541127   4.353   4.315   1.648  1.0839  2.5491  3.6783
   82MOL   H46641128   4.358   4.260   1.896 -0.8083 -2.8184 -1.4253
   82MOL   H46741129   4.194   4.343   1.896  1.0442 -1.2748  1.6482
   82MOL   H46841130   4.439   4.484   1.805 -0.8820 -2.0960 -1.5853
   82MOL   H46941131   4.273   4.530   1.827 -1.9691 -1.7326  0.9075
   82MOL   H47041132   4.498   4.455   2.027  0.3641  1.8446  0.3652
   82MOL   H47141133   4.422   4.611   1.989 -0.3625  0.7079  1.4727
   82MOL   H47241134   4.299   4.382   2.146 -0.9537 -1.0389 -2.9740
   82MOL   H47341135   4.356   4.521   2.217  0.1956 -0.5494  0.1724
   82MOL   H47441136   4.206   4.684   2.129  1.0081 -0.8885  0.9340
   82MOL   H47541137   4.129   4.558   2.026 -1.5029  1.0787 -0.1225
   82MOL   H47641138   4.129   4.563   2.210 -0.0920  0.9112 -0.1339
   82MOL   C47741139   4.146   4.019   1.531 -0.0728 -0.2362  0.7703
   82MOL   C47841140   4.088   4.131   1.439  0.1913 -0.4773 -0.1451
   82MOL   O47941141   3.977   4.080   1.370 -0.6365 -0.7505  0.8156
   82MOL   C48041142   3.918   4.161   1.275  0.7379 -0.1285 -0.1960
   82MOL   C48141143   3.775   4.111   1.259  0.0173 -0.4675 -0.4587
   82MOL   C48241144   3.752   4.003   1.154  0.7784  0.3981  0.4948
   82MOL   C48341145   3.607   3.967   1.116  0.0429  0.0021  0.0189
   82MOL   C48441146   3.535   4.082   1.036 -0.6674  0.5105  0.1700
   82MOL   C48541147   3.392   4.039   0.990 -0.4039  0.3394 -0.0533
   82MOL   H48641148   4.157   3.934   1.463 -1.6712 -0.2418  0.5034
   82MOL   H48741149   4.061   3.991   1.592 -0.8186 -0.3560 -0.3175
   82MOL   H48841150   4.064   4.218   1.498 -0.7988 -1.5513  1.0585
   82MOL   H48941151   3.969   4.176   1.180 -0.5668 -0.7626 -1.0151
   82MOL   H49041152   3.903   4.263   1.309 -0.7918  0.1934 -1.7272
   82MOL   H49141153   3.704   4.192   1.240 -0.3625 -0.9230 -1.0037
   82MOL   H49241154   3.743   4.066   1.353  2.4258  1.9097  1.5479
   82MOL   H49341155   3.814   4.012   1.065  1.1789 -1.2749  0.5816
   82MOL   H49441156   3.788   3.908   1.194 -0.5033 -0.4002 -0.2076
   82MOL   H49541157   3.616   3.876   1.057 -0.0227  0.0660 -0.0883
   82MOL   H49641158   3.554   3.932   1.205 -2.9943  1.9014 -0.9964
   82MOL   H49741159   3.537   4.175   1.092  1.0469  1.5974 -1.6294
   82MOL   H49841160   3.591   4.110   0.947 -0.3883 -0.7203 -0.0548
   82MOL   H49941161   3.322   4.054   1.072  1.1105 -0.1930  1.3826
   82MOL   H50041162   3.359   4.078   0.894  3.8143  1.4135 -1.2076
   82MOL   H50141163   3.394   3.935   0.956 -1.3909  0.6117 -0.9699
   82MOL   H50241164   4.171   4.163   1.375  0.2021  1.3460  0.7563
   83MOL     C141165   3.399   3.153   3.391  0.7687  0.5150 -0.3849
   83MOL     C241166   3.467   3.023   3.343 -0.1272  0.8735 -0.5825
   83MOL     O341167   3.370   2.916   3.334  0.2575 -0.6730 -0.0121
   83MOL     C441168   3.297   2.912   3.212  0.2494  0.6203  0.0878
   83MOL     C541169   3.217   2.777   3.215  0.1032  0.1317 -0.6237
   83MOL     C641170   3.298   2.647   3.245  0.3384 -0.1494  0.0469
   83MOL     C741171   3.243   2.516   3.188 -0.1031  0.5823  0.5419
   83MOL     C841172   3.315   2.390   3.234  0.0868  0.5255 -0.4474
   83MOL     C941173   3.277   2.360   3.379 -0.3088  0.6210  0.5674
   83MOL    H1041174   3.334   3.205   3.321 -0.5465  0.7208  0.9677
   83MOL    H1141175   3.334   3.131   3.476  1.8450 -0.7814  0.1271
   83MOL    H1241176   3.513   3.037   3.245 -0.9074  1.0049 -0.9412
   83MOL    H1341177   3.361   2.911   3.123  1.1030  0.8942  0.6900
   83MOL    H1441178   3.224   2.992   3.201 -3.3635 -2.5408  0.0183
   83MOL    H1541179   3.160   2.768   3.123 -0.5853  1.2789 -0.3351
   83MOL    H1641180   3.140   2.776   3.292  0.8071  0.1601  0.0901
   83MOL    H1741181   3.392   2.682   3.200 -0.2970  0.2898 -0.9480
   83MOL    H1841182   3.311   2.625   3.351 -0.0248 -1.7019 -0.2234
   83MOL    H1941183   3.138   2.518   3.218 -0.1750  2.0856  0.2019
   83MOL    H2041184   3.246   2.523   3.079  0.3466  0.4764  0.5498
   83MOL    H2141185   3.422   2.402   3.217  0.1664  0.8988  0.3017
   83MOL    H2241186   3.287   2.311   3.164 -1.5370  1.7548 -1.2346
   83MOL    H2341187   3.298   2.255   3.398  0.6482  0.3366 -1.9120
   83MOL    H2441188   3.317   2.421   3.460  0.1345 -0.0050  0.8216
   83MOL    H2541189   3.170   2.356   3.400 -0.1270 -0.5865  1.3134
   83MOL    H2641190   3.472   3.224   3.431 -1.0061  2.0038  0.2903
   83MOL    C2741191   3.573   2.977   3.450  0.2972 -0.2768 -0.3374
   83MOL    C2841192   3.708   3.058   3.451  0.3426  0.3205  0.4059
   83MOL    O2941193   3.783   3.019   3.565  0.4286 -0.0485 -0.6109
   83MOL    C3041194   3.738   3.080   3.688 -0.7075 -0.2424 -0.3839
   83MOL    C3141195   3.789   2.998   3.807  0.4303  0.3335  0.0935
   83MOL    C3241196   3.936   3.019   3.845  0.8727 -0.0502  0.4041
   83MOL    C3341197   4.003   2.911   3.927 -0.8203 -0.0905  0.3509
   83MOL    C3441198   4.138   2.942   3.997 -0.2141  0.0191 -0.3100
   83MOL    C3541199   4.171   2.851   4.111 -0.3425  0.3316  0.0997
   83MOL    H3641200   3.526   2.993   3.547  1.5621  2.8541 -0.1682
   83MOL    H3741201   3.585   2.870   3.435  0.0485 -0.4560  0.7326
   83MOL    H3841202   3.682   3.164   3.455 -3.2682 -0.3690 -2.4045
   83MOL    H3941203   3.629   3.080   3.691 -0.7159 -3.5023  0.6208
   83MOL    H4041204   3.760   3.187   3.692  0.4484 -0.3767 -2.4175
   83MOL    H4141205   3.776   2.895   3.773  1.4703  0.7509 -1.6534
   83MOL    H4241206   3.718   3.022   3.886  0.0111  0.3358 -0.2829
   83MOL    H4341207   3.997   3.026   3.755 -2.1264  2.6117 -1.5301
   83MOL    H4441208   3.934   3.114   3.899  1.3722  1.0761 -1.5361
   83MOL    H4541209   3.930   2.872   3.998 -0.5576  0.8636  1.1616
   83MOL    H4641210   4.017   2.826   3.860  0.0694  1.5559 -1.6359
   83MOL    H4741211   4.219   2.943   3.925 -0.9270  1.4911 -1.1209
   83MOL    H4841212   4.131   3.042   4.042 -0.2947 -1.5332  3.2625
   83MOL    H4941213   4.265   2.872   4.163  0.3365  2.5940 -1.9774
   83MOL    H5041214   4.095   2.844   4.189 -0.6530 -1.1615 -0.3185
   83MOL    H5141215   4.182   2.747   4.078  0.7322  0.0933  1.1634
   83MOL    C5241216   3.790   3.037   3.321  0.1619 -0.0826  0.6411
   83MOL    C5341217   3.873   3.164   3.296  0.4267 -0.5882 -0.3273
   83MOL    O5441218   3.973   3.137   3.203 -0.2935 -0.0713 -0.4488
   83MOL    C5541219   4.102   3.101   3.251  0.5136 -0.3564  0.3283
   83MOL    C5641220   4.204   3.099   3.137 -0.6765  0.1885 -0.3382
   83MOL    C5741221   4.155   2.990   3.027  0.3601  0.6704 -0.5206
   83MOL    C5841222   4.258   2.957   2.918  0.5418  0.0375  0.2554
   83MOL    C5941223   4.356   2.857   2.960  0.0344 -0.3619  0.2858
   83MOL    C6041224   4.463   2.841   2.851  0.1920  0.1395 -0.5918
   83MOL    H6141225   3.723   3.013   3.239 -0.6085  2.3336  0.5381
   83MOL    H6241226   3.855   2.949   3.327 -0.7414 -0.6873  1.8706
   83MOL    H6341227   3.926   3.191   3.387  1.7887 -1.9350 -0.6888
   83MOL    H6441228   4.096   3.015   3.318  0.1028  3.0579  4.8882
   83MOL    H6541229   4.128   3.193   3.304  0.3135 -0.0052 -0.1780
   83MOL    H6641230   4.303   3.072   3.172 -0.1956  0.4709 -1.4592
   83MOL    H6741231   4.212   3.189   3.076 -2.1453  0.9715  0.5905
   83MOL    H6841232   4.131   2.892   3.069  3.2396  0.4527  0.7476
   83MOL    H6941233   4.066   3.024   2.975  0.0786 -0.8838 -1.0629
   83MOL    H7041234   4.212   2.912   2.830  4.2508 -0.8221 -1.3645
   83MOL    H7141235   4.292   3.057   2.892 -0.0737  0.3703  0.7148
   83MOL    H7241236   4.399   2.895   3.053  0.1500  1.9589 -0.6675
   83MOL    H7341237   4.308   2.762   2.984  2.1249 -2.2844 -2.7700
   83MOL    H7441238   4.418   2.827   2.753 -0.5347 -1.0411 -0.1072
   83MOL    H7541239   4.512   2.938   2.853  0.4510 -0.0005  2.5621
   83MOL    H7641240   4.535   2.765   2.880  0.5366  0.9536  0.7672
   83MOL    C7741241   3.802   3.283   3.238  0.2395 -0.1018  0.2881
   83MOL    C7841242   3.870   3.413   3.265  0.1615 -0.2335  0.3343
   83MOL    O7941243   3.798   3.470   3.371  0.0229 -0.7858  0.2982
   83MOL    C8041244   3.828   3.441   3.507 -0.6628 -0.0137  0.1779
   83MOL    C8141245   3.717   3.506   3.598 -0.6469 -0.3096  0.2277
   83MOL    C8241246   3.578   3.457   3.570  0.9604 -0.9796  0.0601
   83MOL    C8341247   3.475   3.510   3.664  0.1574  0.6269  0.9242
   83MOL    C8441248   3.332   3.457   3.628 -0.1345  0.3898  0.0538
   83MOL    C8541249   3.225   3.486   3.734 -1.0538  0.6074  0.6083
   83MOL    H8641250   3.697   3.284   3.267 -0.1730 -0.8296 -1.1184
   83MOL    H8741251   3.798   3.270   3.130 -0.4574 -1.2171  0.4384
   83MOL    H8841252   3.976   3.402   3.284  0.0081 -0.7096  0.9434
   83MOL    H8941253   3.920   3.491   3.537 -0.3507 -0.0144 -0.7611
   83MOL    H9041254   3.830   3.336   3.535 -0.9993 -0.5646 -1.7825
   83MOL    H9141255   3.730   3.614   3.598  2.9420 -0.6529  1.7185
   83MOL    H9241256   3.743   3.487   3.703  1.8453  0.3441 -0.2345
   83MOL    H9341257   3.556   3.482   3.466 -0.9413  1.6683  1.0435
   83MOL    H9441258   3.570   3.350   3.586 -0.9234 -0.8083  0.3101
   83MOL    H9541259   3.486   3.484   3.770 -3.4809  0.9373  1.4530
   83MOL    H9641260   3.486   3.617   3.648  1.4587  0.2453 -0.9070
   83MOL    H9741261   3.306   3.515   3.540  2.6054  1.8463  0.1568
   83MOL    H9841262   3.347   3.354   3.597 -1.8120  0.4035 -0.8526
   83MOL    H9941263   3.125   3.480   3.692 -0.9464  0.9106  0.3114
   83MOL   H10041264   3.235   3.419   3.820 -1.3179 -2.3765 -1.5960
   83MOL   H10141265   3.236   3.587   3.772 -1.6252  1.2804 -0.9898
   83MOL   C10241266   3.845   3.514   3.154 -1.1951  0.2813  0.1787
   83MOL   C10341267   3.928   3.499   3.021  0.0038 -0.4964  0.0090
   83MOL   O10441268   3.899   3.608   2.942 -0.0271 -1.1197  0.9174
   83MOL   C10541269   3.780   3.604   2.862  0.2807 -0.4355  0.2801
   83MOL   C10641270   3.766   3.719   2.765 -0.9376  0.0064  0.1025
   83MOL   C10741271   3.885   3.733   2.662 -0.4660  0.7171  0.3704
   83MOL   C10841272   3.860   3.651   2.535 -0.0158  0.1624 -0.3649
   83MOL   C10941273   3.945   3.697   2.414  0.0950  0.2381 -0.2198
   83MOL   C11041274   4.095   3.666   2.420 -0.2339  0.1697 -0.4438
   83MOL   H11141275   3.741   3.517   3.122 -1.1564  1.4819  0.1403
   83MOL   H11241276   3.850   3.615   3.195 -0.7852  0.3481 -0.0304
   83MOL   H11341277   3.906   3.402   2.976  1.1468  0.1197 -1.9569
   83MOL   H11441278   3.691   3.578   2.919 -0.6283 -1.2885 -1.4827
   83MOL   H11541279   3.789   3.519   2.795 -4.2084  1.2490 -2.6274
   83MOL   H11641280   3.757   3.816   2.813 -0.4841 -0.3078  0.8377
   83MOL   H11741281   3.676   3.699   2.707 -0.0067 -2.3569 -0.5965
   83MOL   H11841282   3.898   3.835   2.627 -0.1874  0.2478 -0.9211
   83MOL   H11941283   3.978   3.696   2.706 -0.7862  0.6878  1.0328
   83MOL   H12041284   3.879   3.545   2.552  0.3162  0.0681 -1.3145
   83MOL   H12141285   3.755   3.647   2.506  0.2590  0.8516 -1.4782
   83MOL   H12241286   3.902   3.645   2.328  1.2995 -0.2843 -0.5083
   83MOL   H12341287   3.936   3.802   2.385  1.6346  0.1853 -0.8744
   83MOL   H12441288   4.132   3.670   2.317 -2.2786  1.0636 -1.1800
   83MOL   H12541289   4.152   3.735   2.482  2.2786  0.7375 -3.2688
   83MOL   H12641290   4.118   3.568   2.462  2.4293  0.9818  0.1030
   83MOL   C12741291   4.081   3.513   3.051  0.6183  0.2848 -0.3706
   83MOL   C12841292   4.178   3.532   2.932 -0.6655 -1.0483  0.3677
   83MOL   O12941293   4.163   3.404   2.870 -0.0252 -0.3976 -0.6224
   83MOL   C13041294   4.134   3.409   2.727 -0.3658  0.0157 -0.4019
   83MOL   C13141295   4.110   3.266   2.685 -0.6435  0.5734 -0.2212
   83MOL   C13241296   4.072   3.258   2.538 -0.1393  0.6454 -0.1308
   83MOL   C13341297   4.052   3.113   2.508  0.3228  0.2164 -0.7805
   83MOL   C13441298   4.177   3.017   2.507 -0.1825 -0.1603  0.5788
   83MOL   C13541299   4.152   2.865   2.474 -0.2821 -0.6049 -0.1052
   83MOL   H13641300   4.092   3.591   3.126  2.8386  0.4793 -0.8663
   83MOL   H13741301   4.109   3.419   3.100  2.1510  0.8129 -0.2398
   83MOL   H13841302   4.133   3.615   2.878 -0.2439 -1.1922 -0.2087
   83MOL   H13941303   4.217   3.451   2.670  0.4792  1.0685  1.5377
   83MOL   H14041304   4.050   3.471   2.697 -1.5517 -1.0258  0.7167
   83MOL   H14141305   4.024   3.228   2.740  0.1448 -0.8987 -0.0004
   83MOL   H14241306   4.196   3.206   2.713 -2.2586 -1.4198  0.5925
   83MOL   H14341307   3.976   3.309   2.534 -1.3853 -1.5624  1.0112
   83MOL   H14441308   4.139   3.311   2.470  0.2764  0.0934 -0.1546
   83MOL   H14541309   3.969   3.085   2.573  0.6316 -0.5279 -0.7014
   83MOL   H14641310   4.009   3.110   2.408 -1.1299 -2.1941 -0.1275
   83MOL   H14741311   4.237   3.059   2.426 -0.0042  1.5870  1.5959
   83MOL   H14841312   4.233   3.022   2.600 -0.6249 -2.3010  0.9848
   83MOL   H14941313   4.125   2.851   2.370 -0.7778 -0.6728  0.0291
   83MOL   H15041314   4.232   2.796   2.500  0.9262  0.7865 -0.0362
   83MOL   H15141315   4.067   2.822   2.528 -0.6442  0.9094  0.5867
   83MOL   C15241316   4.320   3.554   2.975  0.0364  0.1737 -0.7614
   83MOL   C15341317   4.404   3.611   2.854  0.3822  0.0069 -0.7641
   83MOL   O15441318   4.367   3.748   2.854  0.0272  0.7863 -0.3351
   83MOL   C15541319   4.316   3.795   2.729  0.0510  0.5634  0.3957
   83MOL   C15641320   4.285   3.943   2.747  0.2087  0.7312 -0.1457
   83MOL   C15741321   4.247   4.014   2.620  0.1314  0.1497  0.2187
   83MOL   C15841322   4.222   4.164   2.649  0.4719  0.0693  0.2753
   83MOL   C15941323   4.341   4.260   2.660 -0.5696  0.1112  0.2106
   83MOL   C16041324   4.300   4.405   2.661  0.3410  0.3062  0.1217
   83MOL   H16141325   4.328   3.624   3.057 -1.9205 -0.8168  0.3164
   83MOL   H16241326   4.356   3.454   3.002 -3.4697 -0.8059  0.5748
   83MOL   H16341327   4.366   3.578   2.757  0.6635 -1.0809 -0.5049
   83MOL   H16441328   4.221   3.741   2.722  0.8027 -0.8298  0.8025
   83MOL   H16541329   4.380   3.763   2.647  0.7955  0.5237  0.9852
   83MOL   H16641330   4.371   3.993   2.792  3.3458 -4.0080 -0.5564
   83MOL   H16741331   4.205   3.956   2.821 -1.8608  0.5790 -2.3150
   83MOL   H16841332   4.308   4.008   2.531 -3.1957  0.8427 -2.2092
   83MOL   H16941333   4.150   3.975   2.586 -0.0924  1.8200 -1.1267
   83MOL   H17041334   4.174   4.208   2.561 -1.7714 -0.6980  1.0784
   83MOL   H17141335   4.153   4.188   2.730 -2.5486 -0.4174 -2.0491
   83MOL   H17241336   4.402   4.229   2.745  0.4212  0.0007 -0.5363
   83MOL   H17341337   4.401   4.247   2.570 -1.0050 -0.0208 -0.0651
   83MOL   H17441338   4.296   4.432   2.556 -0.9899 -2.5399 -0.6275
   83MOL   H17541339   4.202   4.431   2.700  0.6263  1.0754  0.3329
   83MOL   H17641340   4.374   4.469   2.709 -0.6070  0.2859  1.6376
   83MOL   C17741341   4.554   3.595   2.870 -0.1628 -0.1364  0.4039
   83MOL   C17841342   4.616   3.461   2.842 -0.2220  0.0294  0.5566
   83MOL   O17941343   4.597   3.419   2.705  0.1011  0.1194 -0.2754
   83MOL   C18041344   4.503   3.320   2.690 -0.2234 -0.5445  0.3795
   83MOL   C18141345   4.500   3.273   2.544 -0.6190  0.3085  0.0733
   83MOL   C18241346   4.435   3.372   2.447 -0.1867 -0.1510 -0.1807
   83MOL   C18341347   4.462   3.337   2.304  0.7580  0.5115  0.2353
   83MOL   C18441348   4.406   3.439   2.210  0.3696 -0.1221  0.2728
   83MOL   C18541349   4.436   3.415   2.058  0.0010  0.3381  0.1596
   83MOL   H18641350   4.603   3.674   2.813 -1.3681 -0.3007 -0.8808
   83MOL   H18741351   4.569   3.625   2.974  0.5824 -1.9365  0.8211
   83MOL   H18841352   4.572   3.390   2.912 -0.5672 -1.2970 -0.9626
   83MOL   H18941353   4.406   3.342   2.736 -0.7388  0.1338 -1.0166
   83MOL   H19041354   4.536   3.233   2.747 -0.3634 -0.0003  1.3117
   83MOL   H19141355   4.457   3.173   2.536  0.5796 -0.2788  0.7089
   83MOL   H19241356   4.606   3.270   2.521 -0.4923 -0.3275  0.6935
   83MOL   H19341357   4.330   3.394   2.470  0.2905  0.6988  1.2440
   83MOL   H19441358   4.485   3.466   2.468  0.6373 -0.6409  0.0627
   83MOL   H19541359   4.570   3.335   2.285  0.5770  2.0842 -1.0614
   83MOL   H19641360   4.409   3.244   2.286 -0.6912  1.5039 -0.7121
   83MOL   H19741361   4.298   3.450   2.211  0.4558  0.7220  1.2861
   83MOL   H19841362   4.453   3.536   2.227 -0.9805  0.6172 -0.1682
   83MOL   H19941363   4.532   3.454   2.025 -0.2080  0.2158 -0.6126
   83MOL   H20041364   4.411   3.312   2.030 -0.5011  0.2672  0.8478
   83MOL   H20141365   4.359   3.481   2.020  0.6619  1.7176  1.1906
   83MOL   C20241366   4.771   3.466   2.855  0.1111 -0.1672  0.5341
   83MOL   C20341367   4.833   3.324   2.885 -0.1080  0.1788  0.3889
   83MOL   O20441368   4.775   3.280   3.009 -0.6002 -0.6992 -0.3521
   83MOL   C20541369   4.732   3.148   3.016 -0.3140  0.2277 -0.3167
   83MOL   C20641370   4.664   3.125   3.149  0.4577  0.1983  0.1785
   83MOL   C20741371   4.752   3.113   3.266 -0.0086 -0.5452  0.3001
   83MOL   C20841372   4.674   3.091   3.398  0.5937  0.1882 -0.2828
   83MOL   C20941373   4.748   3.142   3.521 -0.3321 -0.1649  0.8970
   83MOL   C21041374   4.752   3.293   3.529 -0.8427  0.5870  0.3700
   83MOL   H21141375   4.826   3.517   2.775 -1.1081  2.1482  1.1383
   83MOL   H21241376   4.801   3.529   2.938 -0.0037  0.9559 -0.2628
   83MOL   H21341377   4.805   3.256   2.804  0.7795  0.3584 -0.0735
   83MOL   H21441378   4.810   3.079   2.983  1.6200  2.7867 -1.3243
   83MOL   H21541379   4.654   3.134   2.941 -0.0895 -0.9020 -0.3433
   83MOL   H21641380   4.595   3.041   3.151 -0.2513  0.7688 -0.0239
   83MOL   H21741381   4.596   3.209   3.161  2.0776  1.4158  1.2564
   83MOL   H21841382   4.825   3.032   3.259  2.9034  1.8770  1.2506
   83MOL   H21941383   4.818   3.200   3.272  0.0522 -0.6547  1.2289
   83MOL   H22041384   4.572   3.130   3.403  0.8530  0.8446 -0.0124
   83MOL   H22141385   4.662   2.984   3.415 -0.7881  0.6839  2.2058
   83MOL   H22241386   4.697   3.109   3.611 -1.8284  0.6035  0.3504
   83MOL   H22341387   4.850   3.104   3.506 -1.0835 -1.8417 -0.0842
   83MOL   H22441388   4.653   3.338   3.544 -1.0200  0.6726 -1.0264
   83MOL   H22541389   4.827   3.334   3.597  0.6564  0.5989 -1.2524
   83MOL   H22641390   4.782   3.335   3.433  0.7601  1.1328  1.0872
   83MOL   C22741391   4.991   3.306   2.886  0.6634  0.0151 -0.6641
   83MOL   C22841392   5.049   3.247   2.750 -0.7491 -0.2355 -0.8973
   83MOL   O22941393   5.192   3.244   2.757 -0.3357 -0.6292  0.2191
   83MOL   C23041394   5.269   3.352   2.709 -0.1744  0.0716  0.1386
   83MOL   C23141395   5.250   3.381   2.558 -0.4151  0.3051 -0.1140
   83MOL   C23241396   5.342   3.483   2.503  0.2366 -0.5464  0.2231
   83MOL   C23341397   5.330   3.490   2.346  0.4531  0.0731 -0.0367
   83MOL   C23441398   5.428   3.583   2.269  0.1184  0.1907 -0.5224
   83MOL   C23541399   5.430   3.572   2.122 -0.3778  0.0918  0.2918
   83MOL   H23641400   5.038   3.403   2.903 -0.9470  0.3059  2.3194
   83MOL   H23741401   5.017   3.238   2.967  1.5427  1.0927 -0.0212
   83MOL   H23841402   5.005   3.308   2.671 -2.3253 -1.6173 -1.1213
   83MOL   H23941403   5.375   3.334   2.728 -0.1337 -1.8311 -1.7103
   83MOL   H24041404   5.227   3.437   2.763 -0.6537  1.4738 -2.3233
   83MOL   H24141405   5.150   3.407   2.524 -1.8991 -3.1534  1.4716
   83MOL   H24241406   5.283   3.286   2.515 -1.6572 -1.0432  1.8688
   83MOL   H24341407   5.319   3.583   2.540  1.5921 -0.7430  1.6267
   83MOL   H24441408   5.443   3.459   2.537  0.2978  1.1180  1.2299
   83MOL   H24541409   5.339   3.389   2.306  0.6862 -0.5620  1.6060
   83MOL   H24641410   5.229   3.515   2.313  0.8130 -0.6829 -1.7976
   83MOL   H24741411   5.423   3.685   2.308  0.9419 -0.0752  0.2880
   83MOL   H24841412   5.528   3.562   2.306  0.1620  0.7611 -0.2957
   83MOL   H24941413   5.346   3.623   2.074 -0.1519  0.0772 -0.1232
   83MOL   H25041414   5.519   3.629   2.095 -0.8724  0.5721 -0.3505
   83MOL   H25141415   5.434   3.467   2.094 -0.0375  0.6950 -2.0405
   83MOL   C25241416   5.012   3.101   2.725  0.0058 -0.5457 -0.6806
   83MOL   C25341417   5.007   3.065   2.575 -0.1114 -0.7840 -0.4379
   83MOL   O25441418   4.907   2.964   2.554 -0.7826 -1.1159 -0.1612
   83MOL   C25541419   4.780   3.005   2.521 -0.4129 -0.6528 -0.0036
   83MOL   C25641420   4.673   2.890   2.560  0.2238  0.3693 -0.0317
   83MOL   C25741421   4.674   2.779   2.457 -0.0242  0.1907  0.2205
   83MOL   C25841422   4.586   2.652   2.480 -0.2502  0.0688 -0.5005
   83MOL   C25941423   4.612   2.547   2.378 -0.4043 -0.4014 -0.0497
   83MOL   C26041424   4.507   2.435   2.385  0.1515 -0.3645  0.6666
   83MOL   H26141425   5.082   3.037   2.777  1.0408  0.7745 -0.4122
   83MOL   H26241426   4.912   3.078   2.762 -0.3130  2.4800  0.5243
   83MOL   H26341427   4.976   3.154   2.520 -1.6808 -1.2296 -0.3072
   83MOL   H26441428   4.772   3.039   2.418  4.3999 -0.1562 -0.3325
   83MOL   H26541429   4.746   3.092   2.578  1.5704  0.9889 -1.2900
   83MOL   H26641430   4.579   2.944   2.552 -0.0299 -0.1302 -0.4147
   83MOL   H26741431   4.696   2.852   2.660  0.1270  0.3036 -0.0352
   83MOL   H26841432   4.642   2.828   2.365 -0.0679 -2.0149 -0.9703
   83MOL   H26941433   4.775   2.746   2.432 -0.1157 -0.1937  0.3555
   83MOL   H27041434   4.613   2.612   2.578  0.8187 -1.6469 -1.4784
   83MOL   H27141435   4.482   2.682   2.470 -0.0684 -0.0257 -2.8732
   83MOL   H27241436   4.600   2.593   2.280 -0.7826 -1.7036 -0.6259
   83MOL   H27341437   4.719   2.526   2.383 -0.3077  0.1466  0.2684
   83MOL   H27441438   4.407   2.476   2.398  1.0839  2.2986 -0.2276
   83MOL   H27541439   4.513   2.368   2.300 -1.5277 -0.2837  0.4667
   83MOL   H27641440   4.543   2.373   2.467 -0.9146  1.0811  2.2495
   83MOL   C27741441   5.145   3.016   2.525 -0.1648 -0.0467 -0.8160
   83MOL   C27841442   5.154   2.995   2.377  0.4083 -0.0452  0.8703
   83MOL   O27941443   5.141   3.119   2.312 -0.2021  0.2922  0.3309
   83MOL   C28041444   5.058   3.115   2.196 -0.5508  0.1019 -0.4382
   83MOL   C28141445   5.029   3.265   2.163 -0.6622  0.2875  0.8910
   83MOL   C28241446   4.942   3.327   2.270  0.5588 -0.0887  0.1332
   83MOL   C28341447   4.913   3.475   2.252 -0.3399 -0.4835  0.2450
   83MOL   C28441448   4.849   3.535   2.378  0.0565 -0.0545  0.4197
   83MOL   C28541449   4.743   3.645   2.353 -0.3167 -0.2052  0.2505
   83MOL   H28641450   5.222   3.085   2.560 -1.6911  0.4719  1.6006
   83MOL   H28741451   5.176   2.923   2.572  2.5969 -0.0666 -2.5347
   83MOL   H28841452   5.066   2.937   2.350 -0.5105  1.3713  0.7488
   83MOL   H28941453   4.967   3.056   2.205 -0.0268 -0.5536  0.8440
   83MOL   H29041454   5.119   3.071   2.117 -1.4647  0.4930 -1.3546
   83MOL   H29141455   4.977   3.264   2.067 -2.6556 -1.2639  1.9613
   83MOL   H29241456   5.127   3.312   2.148  0.1137 -1.6035 -0.2589
   83MOL   H29341457   4.849   3.271   2.282 -0.2621  1.2802  0.1880
   83MOL   H29441458   4.990   3.315   2.368 -0.4453  1.1428  0.7854
   83MOL   H29541459   5.006   3.529   2.236  0.0376 -1.1351  0.2428
   83MOL   H29641460   4.856   3.492   2.161  1.9211  2.8240 -0.6294
   83MOL   H29741461   4.802   3.465   2.448  0.1092 -1.0962 -0.5828
   83MOL   H29841462   4.927   3.573   2.444  0.5955  0.1761 -0.3490
   83MOL   H29941463   4.664   3.602   2.291  1.9455 -0.6224 -2.4666
   83MOL   H30041464   4.695   3.684   2.442  1.3299  1.0586  0.5983
   83MOL   H30141465   4.783   3.731   2.298 -0.0784 -0.9791 -0.8066
   83MOL   C30241466   5.291   2.932   2.347 -0.3234  0.3898 -0.3629
   83MOL   C30341467   5.321   2.891   2.201  0.0306  0.2690  0.7985
   83MOL   O30441468   5.404   2.777   2.191  0.5827 -0.3343  0.3247
   83MOL   C30541469   5.338   2.655   2.178  0.1135 -0.2552  0.0466
   83MOL   C30641470   5.443   2.542   2.160  0.4652 -0.0558 -0.7604
   83MOL   C30741471   5.369   2.412   2.131  0.0297  0.1011  0.0553
   83MOL   C30841472   5.456   2.288   2.114  0.3846  0.0628 -0.9350
   83MOL   C30941473   5.396   2.152   2.090 -0.2754  0.0548  0.2019
   83MOL   C31041474   5.484   2.072   1.988 -0.1366  0.6037 -0.5705
   83MOL   H31141475   5.376   2.991   2.379 -0.7935  0.6305  0.4686
   83MOL   H31241476   5.300   2.848   2.415  0.4152  0.3094 -0.5635
   83MOL   H31341477   5.228   2.879   2.145  0.0362 -1.7748  1.1807
   83MOL   H31441478   5.277   2.668   2.089  0.0601 -0.4178  0.0600
   83MOL   H31541479   5.270   2.648   2.263  1.9200 -0.7371  1.4959
   83MOL   H31641480   5.516   2.544   2.241  2.2576  0.2821 -2.3262
   83MOL   H31741481   5.500   2.563   2.069  2.3452  1.6268  0.7463
   83MOL   H31841482   5.297   2.402   2.212 -1.0940  0.3538 -0.8966
   83MOL   H31941483   5.302   2.429   2.046  0.8998  1.2418 -0.4132
   83MOL   H32041484   5.513   2.318   2.027  1.2856 -2.1411 -1.1308
   83MOL   H32141485   5.532   2.290   2.192 -0.3172  0.1021 -0.2376
   83MOL   H32241486   5.378   2.100   2.184 -1.7360 -0.0782 -0.1359
   83MOL   H32341487   5.302   2.174   2.039 -0.8316 -0.3384  1.0417
   83MOL   H32441488   5.447   1.972   1.964 -0.8037  1.1272 -1.7615
   83MOL   H32541489   5.518   2.118   1.895 -0.1560  2.6778  0.4117
   83MOL   H32641490   5.574   2.041   2.041 -0.3679 -0.3819 -0.7452
   83MOL   C32741491   5.397   3.000   2.132  0.7238  0.1511  0.2731
   83MOL   C32841492   5.419   2.989   1.978 -0.0637 -0.0935  0.7351
   83MOL   O32941493   5.297   3.015   1.905  0.0086  0.6300  0.0138
   83MOL   C33041494   5.225   2.901   1.860  0.0506 -0.5576 -0.4140
   83MOL   C33141495   5.114   2.924   1.763  0.5730  0.2111  0.1549
   83MOL   C33241496   4.985   2.994   1.828 -0.1642  0.3273  0.0193
   83MOL   C33341497   4.903   2.899   1.917 -0.2701 -1.0256  0.1263
   83MOL   C33441498   4.753   2.937   1.950 -0.1042 -0.0634 -0.1285
   83MOL   C33541499   4.725   3.081   2.001 -0.4927  0.1702  0.2044
   83MOL   H33641500   5.498   3.007   2.172  0.3243  0.6258  1.2195
   83MOL   H33741501   5.344   3.094   2.145  0.8815  0.2542  0.1802
   83MOL   H33841502   5.467   2.895   1.952 -0.6862  0.1100 -1.1791
   83MOL   H33941503   5.218   2.824   1.937 -2.8364  0.5605  0.5482
   83MOL   H34041504   5.288   2.852   1.787 -1.1258 -0.7547 -1.3121
   83MOL   H34141505   5.089   2.832   1.711 -0.6644  1.1793 -1.0325
   83MOL   H34241506   5.151   2.983   1.678  0.5263 -1.5164 -1.0972
   83MOL   H34341507   5.017   3.088   1.873  0.6243 -1.4112  3.2487
   83MOL   H34441508   4.916   3.032   1.752  2.3665 -1.0077 -3.0900
   83MOL   H34541509   4.906   2.793   1.890  1.3359 -0.8213 -0.5259
   83MOL   H34641510   4.958   2.896   2.011  0.6265  1.1814 -0.3131
   83MOL   H34741511   4.696   2.924   1.857  1.4198  1.7638 -1.3519
   83MOL   H34841512   4.732   2.864   2.028  0.5471 -1.4922 -1.2743
   83MOL   H34941513   4.761   3.113   2.099 -1.2964 -0.5947  0.7664
   83MOL   H35041514   4.782   3.144   1.934  0.1235  1.5221  1.9490
   83MOL   H35141515   4.619   3.102   1.987 -0.3633  0.5966 -0.1128
   83MOL   C35241516   5.509   3.102   1.930  0.0579  0.2683  0.1629
   83MOL   C35341517   5.544   3.107   1.779 -0.1365  0.1219 -0.2201
   83MOL   O35441518   5.600   2.987   1.745 -0.1573  0.6710  0.6830
   83MOL   C35541519   5.545   2.914   1.634  0.5041  0.8189 -0.6015
   83MOL   C35641520   5.610   2.773   1.624  0.6859 -0.7889 -0.2465
   83MOL   C35741521   5.756   2.780   1.595 -0.5978 -0.6074  0.5688
   83MOL   C35841522   5.818   2.638   1.585 -0.2584 -0.2376 -0.2988
   83MOL   C35941523   5.966   2.640   1.545  0.5595  0.2045 -0.1451
   83MOL   C36041524   6.057   2.716   1.642  0.4030  0.4018  0.0651
   83MOL   H36141525   5.461   3.196   1.957  1.8648  1.4816 -0.7830
   83MOL   H36241526   5.604   3.099   1.983  1.2849  1.4886 -1.9180
   83MOL   H36341527   5.447   3.129   1.734 -0.3022  1.4663  0.7533
   83MOL   H36441528   5.561   2.981   1.549  0.7601  0.3945 -0.8895
   83MOL   H36541529   5.437   2.910   1.643  0.4016  1.1527 -1.5522
   83MOL   H36641530   5.572   2.709   1.545  0.3353 -1.4126  0.4236
   83MOL   H36741531   5.593   2.727   1.721 -2.7907  0.4239 -0.2264
   83MOL   H36841532   5.782   2.845   1.510  0.6299 -0.0249  1.3799
   83MOL   H36941533   5.811   2.831   1.674 -1.3248  0.0943  0.6321
   83MOL   H37041534   5.815   2.594   1.684 -0.9321 -1.1272 -0.7156
   83MOL   H37141535   5.756   2.582   1.515 -0.6955 -0.6167  0.3948
   83MOL   H37241536   5.992   2.534   1.535 -0.6878 -0.1300  0.1346
   83MOL   H37341537   5.968   2.680   1.444 -2.4471 -1.9039 -1.1079
   83MOL   H37441538   6.163   2.701   1.619 -0.4426 -2.1882 -2.3857
   83MOL   H37541539   6.032   2.821   1.629 -1.3627 -0.2003 -1.6041
   83MOL   H37641540   6.042   2.696   1.749  1.5053 -1.2041 -0.0490
   83MOL   C37741541   5.644   3.220   1.747  0.1394 -0.0246 -0.6563
   83MOL   C37841542   5.636   3.280   1.608 -0.1955  0.3442 -0.5488
   83MOL   O37941543   5.741   3.374   1.620  0.5199  0.6240 -0.2886
   83MOL   C38041544   5.809   3.400   1.503  0.4704 -0.3923 -0.0880
   83MOL   C38141545   5.933   3.469   1.536 -0.0110 -0.5267 -0.2288
   83MOL   C38241546   6.029   3.488   1.418 -0.1456 -0.0656 -0.0895
   83MOL   C38341547   6.131   3.595   1.444  0.2751 -0.0601  0.3039
   83MOL   C38441548   6.083   3.737   1.428  0.1740 -0.3823  0.5543
   83MOL   C38541549   6.207   3.825   1.470  0.4270 -0.1471  1.1215
   83MOL   H38641550   5.645   3.302   1.818  2.4021 -1.4530  1.0511
   83MOL   H38741551   5.741   3.170   1.756 -0.9833 -2.2419 -0.3459
   83MOL   H38841552   5.653   3.198   1.537  1.6279 -0.0595  0.3222
   83MOL   H38941553   5.752   3.464   1.436 -0.5005 -1.2647 -0.1120
   83MOL   H39041554   5.830   3.304   1.456  0.0223  0.0747 -1.2715
   83MOL   H39141555   5.980   3.426   1.625  1.1062 -2.0549 -1.5159
   83MOL   H39241556   5.915   3.571   1.571  2.5892  0.1201 -0.6614
   83MOL   H39341557   6.074   3.392   1.392 -0.7338  0.1080 -1.7990
   83MOL   H39441558   5.974   3.514   1.328 -1.1161  0.2418  0.5930
   83MOL   H39541559   6.175   3.581   1.543  0.2717  2.2068  0.6508
   83MOL   H39641560   6.207   3.570   1.370  0.5230  1.4250  0.0373
   83MOL   H39741561   6.056   3.756   1.324  0.2386  0.1769  0.6361
   83MOL   H39841562   6.001   3.763   1.494  2.5262 -0.7287  3.7157
   83MOL   H39941563   6.181   3.930   1.480  0.8483  0.0693  0.0080
   83MOL   H40041564   6.246   3.808   1.571  0.5438 -1.1069  0.9221
   83MOL   H40141565   6.299   3.812   1.413 -0.6611  0.1107 -0.7347
   83MOL   C40241566   5.500   3.357   1.587 -0.1433  0.6002  0.0860
   83MOL   C40341567   5.461   3.354   1.440 -0.1214 -0.2359  0.1336
   83MOL   O40441568   5.369   3.451   1.404 -0.3562 -0.0106  0.1738
   83MOL   C40541569   5.425   3.576   1.370 -0.1937 -0.3406 -0.3024
   83MOL   C40641570   5.472   3.588   1.223  0.3255 -0.1132  0.3130
   83MOL   C40741571   5.563   3.711   1.204 -0.6055 -0.7837 -0.0397
   83MOL   C40841572   5.613   3.722   1.059  0.3797  0.8196 -0.1274
   83MOL   C40941573   5.692   3.852   1.043  0.7913 -0.0384  0.3726
   83MOL   C41041574   5.739   3.884   0.904 -0.7152 -0.1840 -0.0739
   83MOL   H41141575   5.502   3.457   1.630  0.5071  0.6155  0.0139
   83MOL   H41241576   5.423   3.306   1.645  0.6519  0.5983  1.1463
   83MOL   H41341577   5.543   3.353   1.368 -0.7301 -0.8176 -0.5703
   83MOL   H41441578   5.505   3.599   1.439 -0.0496  1.3371 -1.0051
   83MOL   H41541579   5.364   3.665   1.389  0.7123  0.6328 -1.8787
   83MOL   H41641580   5.393   3.591   1.149 -1.0047  0.3659  1.7400
   83MOL   H41741581   5.533   3.500   1.203  0.8488  0.3366 -0.1026
   83MOL   H41841582   5.511   3.800   1.240  0.6496 -0.3460  0.6848
   83MOL   H41941583   5.646   3.711   1.274 -0.6267  0.6426  0.0037
   83MOL   H42041584   5.669   3.634   1.027  0.9677 -0.0919  3.1916
   83MOL   H42141585   5.522   3.721   0.999 -0.3871  0.1647  1.0387
   83MOL   H42241586   5.625   3.924   1.090  2.4652  2.8286 -1.4813
   83MOL   H42341587   5.782   3.850   1.104  1.2834 -1.3282 -0.3763
   83MOL   H42441588   5.810   3.808   0.872  0.9057  0.7592  1.2426
   83MOL   H42541589   5.662   3.875   0.828  0.2546  2.1952 -1.4156
   83MOL   H42641590   5.798   3.975   0.896 -1.8670  0.5541 -0.2857
   83MOL   C42741591   5.377   3.232   1.399 -0.4363  0.6815  0.5008
   83MOL   C42841592   5.357   3.206   1.252 -0.0378 -0.4651 -0.3016
   83MOL   O42941593   5.474   3.137   1.207 -0.2807 -0.0163  0.0646
   83MOL   C43041594   5.520   3.171   1.074 -0.0477 -0.0491 -0.3728
   83MOL   C43141595   5.652   3.107   1.033 -0.1449  0.1860 -0.3668
   83MOL   C43241596   5.781   3.168   1.103  0.3020 -0.1940 -0.1512
   83MOL   C43341597   5.814   3.086   1.233  0.1384  0.3591 -0.2709
   83MOL   C43441598   5.953   3.100   1.270 -0.7919 -0.6210  0.7095
   83MOL   C43541599   5.984   3.034   1.402 -0.2895  0.0480 -0.5857
   83MOL   H43641600   5.427   3.144   1.439 -2.9358 -0.9174  0.2423
   83MOL   H43741601   5.290   3.232   1.466 -0.7944  0.1697  0.0465
   83MOL   H43841602   5.351   3.300   1.198 -0.8155 -1.1535 -1.4215
   83MOL   H43941603   5.532   3.279   1.063  0.7136 -0.2520 -1.6763
   83MOL   H44041604   5.438   3.142   1.008  0.0962  0.9948 -1.0180
   83MOL   H44141605   5.666   3.136   0.929  1.1172  2.0938  0.3212
   83MOL   H44241606   5.650   2.998   1.038 -1.3495  0.1973 -0.5384
   83MOL   H44341607   5.864   3.159   1.033  0.6040 -0.5609  0.2464
   83MOL   H44441608   5.770   3.276   1.108 -2.3377 -0.4487  0.4196
   83MOL   H44541609   5.751   3.121   1.314  0.9865  1.3639 -0.0277
   83MOL   H44641610   5.793   2.979   1.225  0.6895  0.1068  1.5114
   83MOL   H44741611   6.010   3.058   1.187  0.9846  2.0222  0.5240
   83MOL   H44841612   5.979   3.206   1.272  1.8213 -1.1731 -0.9170
   83MOL   H44941613   5.934   3.080   1.487  0.0268  0.0706 -0.4122
   83MOL   H45041614   5.962   2.928   1.401 -1.1910  0.2324 -1.6777
   83MOL   H45141615   6.089   3.042   1.431 -0.6674  1.8831  0.3470
   83MOL   C45241616   5.239   3.114   1.229 -0.1592  0.4257  0.6291
   83MOL   C45341617   5.094   3.171   1.235  0.5942 -0.8226 -0.3015
   83MOL   O45441618   5.007   3.067   1.191 -0.5373 -0.1280 -0.7552
   83MOL   C45541619   4.948   3.005   1.306  0.3734 -0.5797 -0.5268
   83MOL   C45641620   4.851   2.891   1.271  0.2608  0.4359  0.4450
   83MOL   C45741621   4.726   2.950   1.221  0.6981 -0.1862  0.1189
   83MOL   C45841622   4.634   2.835   1.165 -0.4814 -0.4410  0.0160
   83MOL   C45941623   4.504   2.854   1.094 -0.1262  0.1489  0.1236
   83MOL   C46041624   4.427   2.725   1.064 -0.1856 -0.0241  0.0000
   83MOL   H46141625   5.245   3.082   1.125  0.4111  0.3478  0.6836
   83MOL   H46241626   5.254   3.026   1.292 -2.7058  0.4182  1.2960
   83MOL   H46341627   5.069   3.207   1.335 -2.0426  2.2377 -1.9820
   83MOL   H46441628   4.891   3.076   1.367 -1.0332 -2.4542  0.3778
   83MOL   H46541629   5.028   2.972   1.371 -0.1273 -2.1085 -0.6738
   83MOL   H46641630   4.822   2.835   1.361 -0.7434  0.1617 -0.0351
   83MOL   H46741631   4.891   2.813   1.205 -1.1168 -0.4031  0.5785
   83MOL   H46841632   4.677   2.998   1.306  3.1209  0.4639  1.1738
   83MOL   H46941633   4.747   3.020   1.140 -2.9835 -1.2960 -1.9593
   83MOL   H47041634   4.695   2.776   1.096  1.9482  2.3156 -0.3147
   83MOL   H47141635   4.610   2.772   1.251 -0.7111  1.3412  1.2866
   83MOL   H47241636   4.439   2.904   1.166  1.1219  0.6147  0.9478
   83MOL   H47341637   4.510   2.927   1.014  0.4820 -2.2951 -2.1352
   83MOL   H47441638   4.488   2.654   1.009 -1.4559 -1.1227 -0.0051
   83MOL   H47541639   4.398   2.683   1.160  1.7888  3.6098  2.3240
   83MOL   H47641640   4.336   2.758   1.014 -0.3469  2.4171  1.7899
   83MOL   C47741641   5.071   3.278   1.131  0.5804  0.5612 -0.1629
   83MOL   C47841642   5.068   3.427   1.180 -0.0119 -0.1821 -0.5514
   83MOL   O47941643   5.050   3.502   1.061 -0.8542 -0.2330  0.2945
   83MOL   C48041644   5.052   3.639   1.081  0.0069 -0.5206  0.1930
   83MOL   C48141645   5.066   3.706   0.944  0.1406  0.1459  0.5554
   83MOL   C48241646   5.214   3.713   0.891  0.2271 -0.4362 -0.2079
   83MOL   C48341647   5.241   3.800   0.764  0.3711  0.3633 -0.5517
   83MOL   C48441648   5.385   3.844   0.753  0.2130  0.4659 -0.0921
   83MOL   C48541649   5.420   3.926   0.632 -0.1075 -0.6911  0.0669
   83MOL   H48641650   5.149   3.275   1.055  0.5888  1.2092 -0.1850
   83MOL   H48741651   4.980   3.262   1.072  0.9251  0.5963 -0.7087
   83MOL   H48841652   4.990   3.446   1.253  1.1536  2.1713  0.1189
   83MOL   H48941653   5.132   3.683   1.141 -2.2183  2.8573  0.8076
   83MOL   H49041654   4.952   3.658   1.121  0.4576  0.1330  1.0162
   83MOL   H49141655   5.022   3.805   0.954 -1.2776 -0.6002  1.9517
   83MOL   H49241656   4.999   3.662   0.870  2.0164 -0.7926 -0.6335
   83MOL   H49341657   5.275   3.743   0.976 -0.8576  2.1021 -0.2641
   83MOL   H49441658   5.247   3.610   0.880  0.9182 -0.0186 -2.1944
   83MOL   H49541659   5.224   3.737   0.676  0.1406 -0.9325  0.4007
   83MOL   H49641660   5.166   3.878   0.761  1.4479  1.4727  0.6614
   83MOL   H49741661   5.411   3.895   0.846 -0.0299  0.5298 -0.0587
   83MOL   H49841662   5.456   3.762   0.745 -0.1737 -0.0676  1.7105
   83MOL   H49941663   5.528   3.937   0.619 -0.3219  0.5622 -0.6300
   83MOL   H50041664   5.394   3.862   0.548  0.5646 -2.0481  0.8748
   83MOL   H50141665   5.367   4.021   0.630  0.6549 -0.2832 -1.0354
   83MOL   H50241666   5.166   3.450   1.223  0.4645  0.8019 -2.1312
   84MOL     C141667   1.344   7.716   0.375 -0.9107 -0.6215  0.1216
   84MOL     C241668   1.478   7.680   0.320  0.4070  0.2878 -0.5537
   84MOL     O341669   1.558   0.006   0.377 -0.2632 -0.7517 -0.0522
   84MOL     C441670   1.648   7.743   0.478  0.9707 -0.3558  0.4750
   84MOL     C541671   1.751   0.071   0.501 -0.5038  0.0668  0.2313
   84MOL     C641672   1.710   0.188   0.582 -0.5059  0.5679 -0.3342
   84MOL     C741673   1.825   0.277   0.630 -0.9088 -0.4382 -0.1155
   84MOL     C841674   1.759   0.391   0.706  0.1307  0.3323 -0.4340
   84MOL     C941675   1.855   0.514   0.721 -0.4226 -0.1753 -0.0881
   84MOL    H1041676   1.329   0.046   0.377 -2.0238 -0.7095 -1.7086
   84MOL    H1141677   1.258   7.674   0.322  0.2598 -2.2494 -0.5610
   84MOL    H1241678   1.508   7.582   0.357  0.8692 -0.0655 -1.8377
   84MOL    H1341679   1.698   7.654   0.441  0.1251 -0.4472 -0.4623
   84MOL    H1441680   1.602   7.723   0.574 -2.4638  0.3789 -0.9320
   84MOL    H1541681   1.773   0.101   0.399 -0.8141  0.6787  0.3441
   84MOL    H1641682   1.846   0.035   0.541  0.2739 -0.7083 -2.2148
   84MOL    H1741683   1.641   0.246   0.520 -0.2381 -0.2234 -1.3931
   84MOL    H1841684   1.653   0.154   0.668 -2.2607 -0.3315 -1.8026
   84MOL    H1941685   1.902   0.223   0.684 -2.6728 -3.0150 -0.0647
   84MOL    H2041686   1.877   0.318   0.544 -0.6651 -1.2446 -0.3597
   84MOL    H2141687   1.742   0.351   0.806  2.0564  2.6866  0.8898
   84MOL    H2241688   1.658   0.418   0.679 -1.0436 -1.3379  2.0603
   84MOL    H2341689   1.850   0.562   0.623 -3.1330 -0.8542 -0.3068
   84MOL    H2441690   1.831   0.580   0.804 -2.7801 -1.3538  0.2178
   84MOL    H2541691   1.960   0.485   0.734 -0.5425 -0.0180  1.2871
   84MOL    H2641692   1.344   7.689   0.480 -1.2139 -0.6101  0.1240
   84MOL    C2741693   1.479   7.678   0.169  0.4382  0.1567  1.1204
   84MOL    C2841694   1.590   7.601   0.108 -0.5676  0.0627  0.1498
   84MOL    O2941695   1.568   7.465   0.125 -0.2524 -0.0344  0.4116
   84MOL    C3041696   1.662   7.401   0.205 -0.1848  0.0389 -0.0273
   84MOL    C3141697   1.612   7.260   0.230  0.3240 -0.0991 -0.1662
   84MOL    C3241698   1.598   7.168   0.110  0.3164  0.1693  0.2823
   84MOL    C3341699   1.733   7.104   0.068 -0.4344  0.7677  0.0021
   84MOL    C3441700   1.727   7.010   7.723  0.3732  0.3679  0.2407
   84MOL    C3541701   1.669   7.076   7.594 -0.1811 -0.4098 -0.6054
   84MOL    H3641702   1.387   7.635   0.130 -0.1553  2.5471 -0.2050
   84MOL    H3741703   1.487   0.004   0.133  4.3325 -0.4408 -0.0353
   84MOL    H3841704   1.677   7.638   0.164  0.5840 -3.5871  0.9076
   84MOL    H3941705   1.692   7.469   0.285  0.9657 -0.0922 -0.3257
   84MOL    H4041706   1.764   7.394   0.166  0.1713  0.8087  0.7495
   84MOL    H4141707   1.511   7.276   0.270 -0.0400  0.2060 -1.1877
   84MOL    H4241708   1.674   7.223   0.311  1.1266  0.8139 -0.3486
   84MOL    H4341709   1.541   7.079   0.137 -0.7874  0.9771  0.6437
   84MOL    H4441710   1.537   7.218   0.035 -2.5693  1.0695  3.1184
   84MOL    H4541711   1.805   7.181   0.042  0.5011 -1.1713 -3.5109
   84MOL    H4641712   1.770   7.053   0.157  0.9718  1.6538 -0.0659
   84MOL    H4741713   1.827   6.977   7.694 -0.9526 -1.2825 -2.6010
   84MOL    H4841714   1.676   6.917   7.748 -0.2215 -0.0302 -2.4186
   84MOL    H4941715   1.694   7.008   7.513 -0.0370 -1.6274  0.4358
   84MOL    H5041716   1.560   7.084   7.591 -0.3399 -2.3010 -0.6838
   84MOL    H5141717   1.714   7.174   7.587 -1.3644  0.3065  1.3066
   84MOL    C5241718   1.602   7.620   7.734 -0.3944  0.4151  0.4888
   84MOL    C5341719   1.743   7.573   7.673 -0.1150  0.2673  0.2703
   84MOL    O5441720   1.732   7.585   7.526 -0.0029 -0.2868  0.3831
   84MOL    C5541721   1.717   7.464   7.454 -0.3275 -0.5805 -0.0967
   84MOL    C5641722   1.569   7.413   7.451 -0.4545 -0.5439 -0.6822
   84MOL    C5741723   1.484   7.510   7.366 -0.3850  0.0226 -0.0403
   84MOL    C5841724   1.340   7.469   7.352  0.5621 -0.4333 -0.2293
   84MOL    C5941725   1.327   7.332   7.266  0.3956 -0.2748  0.2964
   84MOL    C6041726   1.190   7.275   7.271 -0.2412  0.1227  0.7041
   84MOL    H6141727   1.580   7.725   7.715  0.1024 -0.1594 -3.7141
   84MOL    H6241728   1.530   7.564   7.675  0.1999 -0.3385  0.4649
   84MOL    H6341729   1.749   7.468   7.702  2.6054  0.3590  0.1971
   84MOL    H6441730   1.784   7.384   7.485 -0.9726 -2.1723 -2.6858
   84MOL    H6541731   1.749   7.484   7.352  0.8237  0.5356  0.4742
   84MOL    H6641732   1.526   7.395   7.550  2.3613  0.4312  0.7663
   84MOL    H6741733   1.580   7.322   7.391  1.0749  1.6023 -3.8143
   84MOL    H6841734   1.489   7.612   7.403  1.4506 -0.9447  2.5531
   84MOL    H6941735   1.528   7.515   7.266 -0.2922  1.6757  0.0656
   84MOL    H7041736   1.283   7.454   7.444 -1.6400 -0.4367 -1.5484
   84MOL    H7141737   1.291   7.554   7.304 -1.8035 -0.1727  2.4718
   84MOL    H7241738   1.356   7.346   7.162  0.8054 -1.9405  0.1678
   84MOL    H7341739   1.403   7.260   7.297 -0.2589 -0.4671  1.5009
   84MOL    H7441740   1.122   7.338   7.214 -1.0902 -1.6043 -0.2646
   84MOL    H7541741   1.195   7.171   7.239 -0.6129 -0.1033  1.3723
   84MOL    H7641742   1.138   7.268   7.367 -2.6167  0.6315 -0.4846
   84MOL    C7741743   1.867   7.649   7.732 -0.0765  0.4483  0.5091
   84MOL    C7841744   2.004   7.575   7.714 -0.4184 -1.0159 -0.2584
   84MOL    O7941745   2.103   7.632   0.013  0.8651  0.5266 -0.1918
   84MOL    C8041746   2.121   7.567   0.138  0.6959  0.3440 -0.3512
   84MOL    C8141747   2.214   7.660   0.222  0.0735  0.0228  0.1358
   84MOL    C8241748   2.131   7.766   0.289  0.3984  0.1907  0.0047
   84MOL    C8341749   2.221   0.067   0.389 -0.1591 -0.4551  0.4479
   84MOL    C8441750   2.144   0.187   0.454  0.1947  0.2163 -0.0460
   84MOL    C8541751   2.212   0.222   0.591  0.5750  0.1696  0.4594
   84MOL    H8641752   1.858   7.682   0.059  1.1219 -0.9900  1.0702
   84MOL    H8741753   1.876   7.748   7.687 -3.4742  0.8600  0.5643
   84MOL    H8841754   1.980   7.474   7.747  0.8162 -0.5468  2.1331
   84MOL    H8941755   2.163   7.466   0.136  2.9960  1.2051  1.7699
   84MOL    H9041756   2.024   7.568   0.188  0.9653  0.6202  0.1725
   84MOL    H9141757   2.289   7.707   0.158  0.8216 -0.5421  0.5752
   84MOL    H9241758   2.263   7.589   0.289 -0.7797 -0.4036  0.3104
   84MOL    H9341759   2.111   0.064   0.212 -0.2001 -0.8708 -0.8813
   84MOL    H9441760   2.034   7.731   0.324 -0.5092  1.4082 -1.2204
   84MOL    H9541761   2.245   0.002   0.474 -0.2229 -0.4276  0.4871
   84MOL    H9641762   2.317   0.091   0.345 -0.5270  0.1877  0.0005
   84MOL    H9741763   2.147   0.268   0.381 -0.9327 -1.2904 -1.8020
   84MOL    H9841764   2.041   0.159   0.474  1.0120 -2.7383  0.3890
   84MOL    H9941765   2.145   0.301   0.623 -0.2683  0.5126 -2.0156
   84MOL   H10041766   2.195   0.141   0.661  0.1060 -0.7786 -0.7366
   84MOL   H10141767   2.313   0.262   0.579  0.1121  1.6172  1.2324
   84MOL   C10241768   2.052   7.573   7.571 -0.6221  0.3025 -0.2586
   84MOL   C10341769   2.170   7.489   7.543  0.5463 -0.2376 -0.5554
   84MOL   O10441770   2.147   7.356   7.590  0.2054 -0.1320  0.0226
   84MOL   C10541771   2.266   7.296   7.635  0.3057  0.3558  0.5411
   84MOL   C10641772   2.225   7.161   7.702  0.1263 -1.3404  0.8423
   84MOL   C10741773   2.193   7.049   7.600  0.9534 -0.8571  0.0833
   84MOL   C10841774   2.165   6.911   7.659 -0.1697 -0.5791  0.4744
   84MOL   C10941775   2.167   6.803   7.541 -0.4497 -0.0194 -0.8105
   84MOL   C11041776   2.189   6.652   7.584 -0.5363 -0.1145  0.1490
   84MOL   H11141777   1.977   7.519   7.513 -1.3838  0.8361  0.2216
   84MOL   H11241778   2.065   7.675   7.536 -1.4799  1.0046  1.4208
   84MOL   H11341779   2.262   7.524   7.591  1.5328 -0.4450 -2.2476
   84MOL   H11441780   2.311   7.356   7.714  0.7409 -1.2168  1.4864
   84MOL   H11541781   2.348   7.286   7.564 -1.5261 -2.0506 -1.3268
   84MOL   H11641782   2.139   7.186   7.762  0.1768  0.0893  0.3297
   84MOL   H11741783   2.309   7.124   7.761  0.5053 -0.5014  0.8385
   84MOL   H11841784   2.110   7.063   7.531  1.9743 -2.2890 -1.4808
   84MOL   H11941785   2.283   7.040   7.539 -0.2019  0.2500 -1.8457
   84MOL   H12041786   2.231   6.879   7.739 -0.1088 -1.0908  0.2268
   84MOL   H12141787   2.065   6.907   7.703  0.3158 -1.1723  1.5279
   84MOL   H12241788   2.074   6.815   7.486  0.0775  1.5441 -1.3883
   84MOL   H12341789   2.246   6.829   7.470  0.5784 -0.5712  0.1149
   84MOL   H12441790   2.108   6.608   7.642 -0.1695 -1.0176 -0.0173
   84MOL   H12541791   2.200   6.579   7.505 -1.6769 -2.2629  1.9299
   84MOL   H12641792   2.275   6.639   7.649  0.7577 -0.7330 -1.6493
   84MOL   C12741793   2.201   7.472   7.392  0.2237  0.6907  0.3640
   84MOL   C12841794   2.325   7.549   7.349 -0.1452  1.2056 -0.4026
   84MOL   O12941795   2.435   7.487   7.415 -0.6449  0.1608  0.6234
   84MOL   C13041796   2.544   7.453   7.331  0.1501  0.5799 -0.7147
   84MOL   C13141797   2.664   7.417   7.424  0.1713 -0.1199  0.3285
   84MOL   C13241798   2.700   7.534   7.515  0.2260  0.3246  0.0798
   84MOL   C13341799   2.819   7.495   7.603  0.3558 -0.1940  0.2339
   84MOL   C13441800   2.859   7.591   7.711 -0.4464  0.3723 -0.0815
   84MOL   C13541801   2.754   7.598   0.045  0.4976 -0.2851 -0.4083
   84MOL   H13641802   2.212   7.368   7.360  1.5946  0.9071  0.1132
   84MOL   H13741803   2.118   7.520   7.341 -1.1818 -2.3705 -0.3272
   84MOL   H13841804   2.325   7.534   7.241  3.1658  1.3765 -0.4556
   84MOL   H13941805   2.565   7.537   7.265 -2.8458  0.2229 -2.2133
   84MOL   H14041806   2.523   7.368   7.266  0.6369  0.1946 -0.3678
   84MOL   H14141807   2.754   7.399   7.365  0.8759  2.0415  0.7068
   84MOL   H14241808   2.632   7.326   7.475  0.9941  0.0554  1.1878
   84MOL   H14341809   2.718   7.621   7.452  2.1006 -1.1975 -1.5518
   84MOL   H14441810   2.609   7.549   7.573  0.3841 -2.2014  1.0226
   84MOL   H14541811   2.797   7.400   7.652 -0.7027  1.3249  2.8161
   84MOL   H14641812   2.905   7.472   7.540  0.6395  1.8234 -0.1519
   84MOL   H14741813   2.956   7.558   7.749 -0.9604 -3.2865 -1.7061
   84MOL   H14841814   2.876   7.689   7.665  2.5654 -0.6833 -1.3809
   84MOL   H14941815   2.780   7.681   0.111  2.3401 -1.8334  0.8577
   84MOL   H15041816   2.662   7.626   7.771  1.3597 -1.1919 -2.4960
   84MOL   H15141817   2.731   7.508   0.101  0.9247 -2.0367 -3.0033
   84MOL   C15241818   2.318   7.701   7.366  0.3230  0.6867 -0.0609
   84MOL   C15341819   2.252   0.001   7.253 -0.1783  0.3975  0.1765
   84MOL   O15441820   2.215   0.131   7.299  0.2686  0.3029  0.5211
   84MOL   C15541821   2.094   0.149   7.374  0.0623 -0.4487  0.2800
   84MOL   C15641822   1.960   0.118   7.300  0.1020  0.8376 -0.4875
   84MOL   C15741823   1.831   0.130   7.383  0.1586  0.1979  0.6280
   84MOL   C15841824   1.717   0.083   7.295  0.5358  0.6221  0.2747
   84MOL   C15941825   1.658   0.191   7.210 -0.6639  0.0033  0.6492
   84MOL   C16041826   1.712   0.224   7.077  0.6648  0.6034  0.3618
   84MOL   H16141827   2.272   7.743   7.455 -0.6928 -0.3163 -0.0998
   84MOL   H16241828   2.420   7.740   7.371  1.1043 -1.3485  0.6334
   84MOL   H16341829   2.162   7.727   7.221 -0.4584  0.9319  0.1167
   84MOL   H16441830   2.098   0.255   7.401  0.5050 -0.3852 -0.0357
   84MOL   H16541831   2.106   0.100   7.470 -0.5021  1.2799  1.2676
   84MOL   H16641832   1.955   0.015   7.264  0.7376 -0.3678  2.6865
   84MOL   H16741833   1.950   0.179   7.210 -1.7457  0.1338 -0.7697
   84MOL   H16841834   1.835   0.059   7.465 -0.2584 -0.5370  0.0152
   84MOL   H16941835   1.830   0.226   7.434 -3.3561  1.8017 -2.1934
   84MOL   H17041836   1.736   7.769   7.239  1.4972  0.0715  1.4737
   84MOL   H17141837   1.655   0.036   7.371  0.5636  0.6483  0.3133
   84MOL   H17241838   1.561   0.149   7.183 -0.8124  1.3329 -0.9984
   84MOL   H17341839   1.623   0.282   7.260  0.6635 -0.1384  1.8585
   84MOL   H17441840   1.641   0.268   7.007  0.1004  0.9866  1.1840
   84MOL   H17541841   1.798   0.291   7.079  0.8311  0.3664  1.1871
   84MOL   H17641842   1.746   0.134   7.026  2.1376  0.9542  0.7020
   84MOL   C17741843   2.345   0.014   7.123  0.3665 -0.0828  0.2079
   84MOL   C17841844   2.296   0.088   7.004  0.4776  0.3769 -0.0474
   84MOL   O17941845   2.174   0.045   6.951 -0.3899  0.3466  0.2163
   84MOL   C18041846   2.196   7.698   6.885  0.2454  0.9095  0.0467
   84MOL   C18141847   2.061   7.642   6.849 -0.0017 -0.5396 -0.1090
   84MOL   C18241848   1.969   7.610   6.966 -0.6890  0.4491  0.1644
   84MOL   C18341849   1.852   7.530   6.919  0.1591  0.0436 -0.4811
   84MOL   C18441850   1.749   7.478   7.022  0.4503  0.2095 -0.7109
   84MOL   C18541851   1.805   7.360   7.105 -0.7142 -0.0270 -0.8075
   84MOL   H18641852   2.440   0.052   7.161  1.6061 -2.1703 -0.6993
   84MOL   H18741853   2.368   7.688   7.094  0.8037  0.5278 -1.6582
   84MOL   H18841854   2.371   0.084   6.925  1.2086  2.2109  0.5262
   84MOL   H18941855   2.241   7.622   6.950  0.0410 -0.4224 -1.3435
   84MOL   H19041856   2.262   7.704   6.799 -0.2975  1.0644 -0.3642
   84MOL   H19141857   2.081   7.558   6.782 -2.7020 -0.4210 -1.1531
   84MOL   H19241858   1.999   7.702   6.781 -0.6096 -0.5969  0.3846
   84MOL   H19341859   2.014   7.551   7.046 -0.3057 -1.8046 -1.6662
   84MOL   H19441860   1.930   7.698   7.017  1.7206  1.1452  0.8335
   84MOL   H19541861   1.797   7.601   6.857 -1.1930 -1.5303 -1.1337
   84MOL   H19641862   1.880   7.442   6.861 -2.0934 -2.2807  1.8274
   84MOL   H19741863   1.721   7.553   7.095  1.2740 -1.0427  0.9251
   84MOL   H19841864   1.659   7.458   6.963 -1.2890 -0.4099  2.0642
   84MOL   H19941865   1.898   7.398   7.148 -1.7058  1.0370  0.4391
   84MOL   H20041866   1.737   7.332   7.186  1.0647 -0.7949  0.4351
   84MOL   H20141867   1.826   7.271   7.047 -0.5367  0.1599 -1.0301
   84MOL   C20241868   2.277   0.243   7.028 -1.1913  0.8112  0.0074
   84MOL   C20341869   2.230   0.314   6.897  0.4618 -0.4419  0.2371
   84MOL   O20441870   2.340   0.329   6.809 -0.0278  0.2826  0.1182
   84MOL   C20541871   2.354   0.250   6.689  0.2960  0.2647  0.7497
   84MOL   C20641872   2.504   0.261   6.661  0.8697 -0.5508  0.2766
   84MOL   C20741873   2.538   0.404   6.600  0.1985  0.8744  0.2625
   84MOL   C20841874   2.683   0.410   6.551  0.7037 -0.1565  0.1490
   84MOL   C20941875   2.787   0.394   6.657 -0.3268  0.3160  0.7929
   84MOL   C21041876   2.781   0.493   6.775  0.1463 -0.2795 -0.1816
   84MOL   H21141877   2.191   0.252   7.095 -0.7278  0.5520  0.6365
   84MOL   H21241878   2.356   0.301   7.076  0.4181 -2.0359  0.9064
   84MOL   H21341879   2.151   0.262   6.841 -2.2127  1.9559  1.6425
   84MOL   H21441880   2.296   0.298   6.610 -2.2731 -0.8383  1.8781
   84MOL   H21541881   2.314   0.149   6.703 -0.8486  0.7758  1.2349
   84MOL   H21641882   2.522   0.183   6.586  1.8003  0.7628 -0.8937
   84MOL   H21741883   2.556   0.231   6.752  0.5933  1.2896  1.0547
   84MOL   H21841884   2.474   0.412   6.512  0.6524 -0.5577 -0.2189
   84MOL   H21941885   2.505   0.485   6.665 -2.9999 -0.0793 -0.0992
   84MOL   H22041886   2.705   0.331   6.479 -1.8158 -0.3624 -0.4464
   84MOL   H22141887   2.704   0.499   6.491 -1.7288 -0.8782 -1.8694
   84MOL   H22241888   2.782   0.290   6.691  1.5667 -0.3306 -0.8486
   84MOL   H22341889   2.882   0.391   6.605 -1.0154 -1.3958 -0.4105
   84MOL   H22441890   2.853   0.467   6.853  0.4630  1.3021  0.0694
   84MOL   H22541891   2.792   0.594   6.734 -2.2877 -0.5763 -1.6634
   84MOL   H22641892   2.685   0.486   6.826 -0.0695  2.8174 -0.0293
   84MOL   C22741893   2.168   0.457   6.920 -0.1087 -0.5017  0.4086
   84MOL   C22841894   2.113   0.537   6.795 -0.0638 -0.5121  0.6079
   84MOL   O22941895   2.009   0.469   6.728 -0.0923 -0.0453 -0.0955
   84MOL   C23041896   1.903   0.418   6.807  0.0183 -0.1998 -1.0027
   84MOL   C23141897   1.803   0.348   6.709  0.3443 -0.2989 -0.0085
   84MOL   C23241898   1.868   0.218   6.640 -0.2096 -0.1315 -0.5098
   84MOL   C23341899   1.809   0.183   6.501 -0.3544 -0.1072 -0.2921
   84MOL   C23441900   1.886   0.072   6.436 -0.3406  0.5544 -0.4113
   84MOL   C23541901   1.805   0.015   6.313 -0.9833  0.6249 -0.3064
   84MOL   H23641902   2.087   0.449   6.993 -1.9442  0.0262 -1.5329
   84MOL   H23741903   2.250   0.511   6.968  0.5838 -1.1657 -0.0191
   84MOL   H23841904   2.200   0.542   6.729  0.3330  0.7809  1.2262
   84MOL   H23941905   1.853   0.499   6.860 -0.8156 -3.0244  2.7698
   84MOL   H24041906   1.935   0.340   6.876  0.8799 -0.5533 -1.7966
   84MOL   H24141907   1.780   0.414   6.626 -0.7163 -0.3929  0.2060
   84MOL   H24241908   1.706   0.329   6.756 -0.6589 -0.7348 -2.1840
   84MOL   H24341909   1.976   0.227   6.632 -0.2551  0.0371 -0.9154
   84MOL   H24441910   1.840   0.129   6.698  0.3994 -1.6469 -2.4838
   84MOL   H24541911   1.705   0.154   6.519 -0.2552 -1.8562 -2.3424
   84MOL   H24641912   1.805   0.269   6.433  0.1226  0.7085  0.6901
   84MOL   H24741913   1.988   0.094   6.404  0.3645 -0.1458  1.3240
   84MOL   H24841914   1.893   7.766   6.506  0.2676  1.1569  0.2530
   84MOL   H24941915   1.707   7.755   6.341 -0.5602 -0.9642 -0.9070
   84MOL   H25041916   1.795   0.102   6.248  0.0835  0.5531 -0.5688
   84MOL   H25141917   1.858   7.709   6.266 -0.8073  1.3220 -1.3643
   84MOL   C25241918   2.075   0.677   6.842  0.5453  0.6031 -0.2200
   84MOL   C25341919   2.073   0.784   6.733 -0.1194  0.3769 -0.3101
   84MOL   O25441920   2.194   0.844   6.734 -0.4200 -0.1623 -0.2778
   84MOL   C25541921   2.244   0.879   6.604  0.2990 -0.2171  0.3767
   84MOL   C25641922   2.337   0.777   6.537 -0.1851 -0.2401  0.4728
   84MOL   C25741923   2.431   0.841   6.436  0.0258  0.5342  0.4725
   84MOL   C25841924   2.520   0.744   6.365  0.3446  0.1408 -0.3691
   84MOL   C25941925   2.572   0.787   6.229  0.4812 -0.6578  0.1553
   84MOL   C26041926   2.466   0.787   6.115  0.2403 -0.5215  0.0752
   84MOL   H26141927   1.979   0.674   6.892  0.5139  1.2103 -0.2479
   84MOL   H26241928   2.148   0.710   6.916 -0.1080 -0.5561  0.9487
   84MOL   H26341929   2.062   0.721   6.645  1.4959  0.5571 -0.6601
   84MOL   H26441930   2.292   0.976   6.611  0.4951 -0.3209  0.4595
   84MOL   H26541931   2.163   0.901   6.534  0.3158 -1.4721 -0.0674
   84MOL   H26641932   2.279   0.691   6.505  1.9767 -1.6525  0.2386
   84MOL   H26741933   2.393   0.729   6.617 -1.3553  1.4692  2.3676
   84MOL   H26841934   2.372   0.891   6.360  0.7554 -0.1730 -0.5812
   84MOL   H26941935   2.482   0.928   6.478 -2.0519  1.4017  1.2184
   84MOL   H27041936   2.609   0.724   6.425 -1.2631  1.7630  2.6637
   84MOL   H27141937   2.469   0.651   6.339  0.7632  0.4563 -2.4273
   84MOL   H27241938   2.605   0.890   6.241  0.1315 -0.7646  2.1326
   84MOL   H27341939   2.656   0.725   6.198 -0.8808 -2.6730  0.3869
   84MOL   H27441940   2.435   0.683   6.107 -0.1292 -0.4486  0.5150
   84MOL   H27541941   2.385   0.856   6.139 -1.2395 -1.5423 -1.8856
   84MOL   H27641942   2.516   0.810   6.022  0.7633  4.2661  1.3819
   84MOL   C27741943   1.976   0.901   6.768 -0.4163  0.4414 -0.7721
   84MOL   C27841944   1.828   0.879   6.739 -0.0752  0.2516 -0.0500
   84MOL   O27941945   1.762   0.793   6.831  0.4258  0.3661 -0.8886
   84MOL   C28041946   1.645   0.724   6.790 -0.7339 -0.0976 -0.0135
   84MOL   C28141947   1.611   0.655   6.925 -0.3958  0.1002  0.9833
   84MOL   C28241948   1.484   0.577   6.918  0.2860 -0.8669  0.0334
   84MOL   C28341949   1.431   0.531   7.059 -0.2350 -0.2751 -0.0104
   84MOL   C28441950   1.295   0.456   7.055 -0.0258 -0.1167  1.0243
   84MOL   C28541951   1.256   0.378   7.176 -0.3010  0.5874 -0.0973
   84MOL   H28641952   1.991   0.942   6.868  0.6226  0.1107 -0.7930
   84MOL   H28741953   2.001   0.971   6.689 -2.3607  1.2312 -0.7342
   84MOL   H28841954   1.807   0.832   6.643  0.4054 -0.2963  0.1136
   84MOL   H28941955   1.666   0.645   6.719 -1.0309 -0.2936  0.1142
   84MOL   H29041956   1.561   0.781   6.749 -3.2175 -2.9047  1.0237
   84MOL   H29141957   1.592   0.748   6.980 -1.6010  0.7125 -0.4017
   84MOL   H29241958   1.698   0.606   6.967  0.3262  0.4138 -0.1378
   84MOL   H29341959   1.407   0.630   6.863  0.7214 -1.1144 -0.8184
   84MOL   H29441960   1.501   0.493   6.850 -1.5886 -0.4210 -1.0103
   84MOL   H29541961   1.513   0.482   7.111  1.1104  0.7795 -1.1181
   84MOL   H29641962   1.420   0.623   7.116  0.9385  0.0903 -0.3729
   84MOL   H29741963   1.225   0.535   7.029  0.6294  0.9286  2.3806
   84MOL   H29841964   1.296   0.376   6.980  1.0302  0.0544  0.8497
   84MOL   H29941965   1.307   0.405   7.268  2.3628  0.9830 -1.6351
   84MOL   H30041966   1.147   0.377   7.184 -0.2923  0.5957  0.0215
   84MOL   H30141967   1.301   0.279   7.168 -0.8537  0.3663 -0.5597
   84MOL   C30241968   1.745   1.013   6.738  0.4091  0.2559 -0.0334
   84MOL   C30341969   1.726   1.072   6.879  0.1428 -0.0855  0.3719
   84MOL   O30441970   1.594   1.117   6.893  0.6517 -0.0568  0.0711
   84MOL   C30541971   1.483   1.032   6.918 -0.3366 -0.2203 -0.2316
   84MOL   C30641972   1.375   1.138   6.948  1.4497 -0.0031  1.6834
   84MOL   C30741973   1.328   1.227   6.819  0.5771  0.0770 -0.3866
   84MOL   C30841974   1.200   1.309   6.857 -0.6868  0.2962  0.3374
   84MOL   C30941975   1.229   1.419   6.965 -0.1899  0.2053 -0.0657
   84MOL   C31041976   1.176   1.378   7.100  0.5853  0.1180 -0.0941
   84MOL   H31141977   1.797   1.086   6.677  0.6900 -0.3847 -0.5620
   84MOL   H31241978   1.651   0.979   6.694  0.8403  0.1158 -0.8554
   84MOL   H31341979   1.747   0.990   6.949  3.0988 -0.5055 -0.9306
   84MOL   H31441980   1.494   0.981   7.014 -0.3247  0.0520 -0.0859
   84MOL   H31541981   1.478   0.960   6.837  1.4696 -1.9989  1.1869
   84MOL   H31641982   1.414   1.203   7.027  0.7276  0.9045  1.3114
   84MOL   H31741983   1.290   1.087   6.992 -0.8111  3.4425  1.5830
   84MOL   H31841984   1.405   1.297   6.789  1.2428 -1.2440 -1.8632
   84MOL   H31941985   1.300   1.164   6.734 -1.0287 -2.6103  2.0664
   84MOL   H32041986   1.160   1.349   6.764  1.9517  1.8182 -0.2178
   84MOL   H32141987   1.129   1.239   6.900 -1.2624  1.4497  1.2736
   84MOL   H32241988   1.336   1.440   6.959 -0.5240  2.1177  0.3753
   84MOL   H32341989   1.174   1.508   6.932  0.8949 -0.1948 -3.1412
   84MOL   H32441990   1.231   1.290   7.133 -0.6588 -0.7138 -0.2219
   84MOL   H32541991   1.194   1.453   7.177 -1.7363 -0.3969  0.9920
   84MOL   H32641992   1.067   1.375   7.096  0.4931  2.4834 -0.1298
   84MOL   C32741993   1.821   1.192   6.909  0.0850  0.3214  0.0110
   84MOL   C32841994   1.833   1.234   7.054  0.3912 -0.2264 -0.3131
   84MOL   O32941995   1.965   1.280   7.096 -0.2617  0.0697 -0.3112
   84MOL   C33041996   2.080   1.187   7.097  0.2485  0.1114  0.0387
   84MOL   C33141997   2.208   1.254   7.150  0.2886 -0.1903  0.1563
   84MOL   C33241998   2.325   1.162   7.109 -0.3260 -0.1315 -0.3468
   84MOL   C33341999   2.472   1.209   7.128  0.0503  0.0376  0.3400
   84MOL   C33442000   2.528   1.214   7.273 -0.3254  0.3346  0.4739
   84MOL   C33542001   2.652   1.300   7.276  0.0389  0.8838  0.5216
   84MOL   H33642002   1.803   1.280   6.847 -0.7928  1.2180  1.5418
   84MOL   H33742003   1.918   1.158   6.873 -0.2593  0.8640 -1.4990
   84MOL   H33842004   1.815   1.151   7.123  1.7659  3.0591  4.3166
   84MOL   H33942005   2.094   1.154   6.994  2.4408 -0.0097  0.3516
   84MOL   H34042006   2.064   1.093   7.151  2.6192 -0.3547 -0.0269
   84MOL   H34142007   2.215   1.268   7.258 -2.8469  2.2596  0.1279
   84MOL   H34242008   2.215   1.355   7.111 -0.3131 -0.0454  0.4221
   84MOL   H34342009   2.322   1.067   7.162  2.0901  0.8372  1.6390
   84MOL   H34442010   2.316   1.149   7.001 -1.1034  0.7961 -0.4053
   84MOL   H34542011   2.537   1.149   7.064  0.8840 -0.1248  1.3213
   84MOL   H34642012   2.474   1.315   7.101 -1.8872 -0.0934 -0.3977
   84MOL   H34742013   2.450   1.241   7.343  0.8495 -1.6209  2.5938
   84MOL   H34842014   2.553   1.111   7.298  1.1601  0.1902 -1.4354
   84MOL   H34942015   2.625   1.404   7.258 -0.6173  0.6952  0.3973
   84MOL   H35042016   2.706   1.286   7.370  0.5355 -0.3497  0.0576
   84MOL   H35142017   2.725   1.268   7.202 -0.7949 -1.2522  0.6061
   84MOL   C35242018   1.721   1.340   7.099 -0.4339 -0.1738 -0.0555
   84MOL   C35342019   1.707   1.371   7.243 -0.5713 -0.3881  0.3519
   84MOL   O35442020   1.730   1.257   7.316  0.1701  0.1512  0.5489
   84MOL   C35542021   1.807   1.269   7.431 -0.1287 -0.3494 -0.5990
   84MOL   C35642022   1.791   1.149   7.517  0.1460  0.2002  0.6245
   84MOL   C35742023   1.648   1.125   7.570  0.5128  0.2069 -1.0773
   84MOL   C35842024   1.657   1.026   7.690  0.1184 -0.3459 -0.2973
   84MOL   C35942025   1.521   1.022   7.752 -0.4142  0.1179  1.1565
   84MOL   C36042026   1.510   0.902   0.074 -0.0894 -0.2825 -0.2784
   84MOL   H36142027   1.743   1.423   7.032 -1.3243  0.8360  0.8781
   84MOL   H36242028   1.625   1.300   7.066 -0.7795  0.7459 -0.1681
   84MOL   H36342029   1.784   1.448   7.256 -2.2501  1.8500 -2.3802
   84MOL   H36442030   1.772   1.352   7.493  1.8882  0.7799 -0.9317
   84MOL   H36542031   1.910   1.281   7.396  0.1428  0.7499  0.5488
   84MOL   H36642032   1.856   1.157   7.604  1.1540 -1.4100  0.0352
   84MOL   H36742033   1.822   1.058   7.465  1.4386  0.9584  0.0623
   84MOL   H36842034   1.597   1.217   7.596 -3.1210 -1.1879 -2.9362
   84MOL   H36942035   1.586   1.087   7.488  1.1822  1.6318 -2.2711
   84MOL   H37042036   1.681   0.925   7.656 -0.3900 -0.8505  0.8201
   84MOL   H37142037   1.732   1.052   7.764  0.6189 -0.6929 -0.6775
   84MOL   H37242038   1.493   1.116   0.021 -1.8654  0.2191  0.1063
   84MOL   H37342039   1.443   1.015   7.676  1.1408 -1.1859 -0.3788
   84MOL   H37442040   1.553   0.814   0.025 -0.0007  0.6439 -1.8948
   84MOL   H37542041   1.554   0.924   0.171  0.2608  0.1248 -0.5298
   84MOL   H37642042   1.404   0.882   0.093 -0.1653 -0.2701 -0.6855
   84MOL   C37742043   1.569   1.432   7.278 -0.3259 -0.3968  0.3760
   84MOL   C37842044   1.564   1.541   7.389  0.4528  0.5470  0.0665
   84MOL   O37942045   1.423   1.553   7.412 -0.0240 -0.0885 -0.6567
   84MOL   C38042046   1.383   1.468   7.523  0.0144  0.2228  0.0827
   84MOL   C38142047   1.235   1.456   7.521  0.6398  0.5529 -0.7245
   84MOL   C38242048   1.151   1.578   7.567 -0.0420 -0.2608  0.4311
   84MOL   C38342049   1.159   1.709   7.486 -0.6740 -0.5680 -0.8117
   84MOL   C38442050   1.149   1.825   7.584  0.6570 -1.2530 -0.2154
   84MOL   C38542051   1.118   1.943   7.501 -0.7008 -0.0098 -0.6130
   84MOL   H38642052   1.530   1.466   7.182  1.2191 -0.1640 -0.1846
   84MOL   H38742053   1.502   1.349   7.302 -2.4846  1.1139 -0.2050
   84MOL   H38842054   1.607   1.492   7.477 -0.2187 -1.5971 -0.7607
   84MOL   H38942055   1.402   1.516   7.619  1.4966  2.2950 -1.2260
   84MOL   H39042056   1.432   1.371   7.520 -1.2243 -0.3944 -0.9074
   84MOL   H39142057   1.198   1.382   7.592  0.1069  2.1070  0.6507
   84MOL   H39242058   1.202   1.427   7.421 -1.2771 -0.6232  0.2012
   84MOL   H39342059   1.048   1.542   7.561 -0.6069  1.5021 -0.7803
   84MOL   H39442060   1.183   1.606   7.667  4.2525 -3.1113  0.0064
   84MOL   H39542061   1.253   1.710   7.430 -0.6866 -1.2769 -0.8482
   84MOL   H39642062   1.079   1.714   7.413 -0.7043  0.8034 -0.7044
   84MOL   H39742063   1.070   1.800   7.655 -0.1177  2.5166  0.4068
   84MOL   H39842064   1.246   1.828   7.634  0.4022  0.6036  0.2390
   84MOL   H39942065   1.017   1.942   7.458 -0.8525 -2.2219 -0.2660
   84MOL   H40042066   1.137   2.031   7.562  0.9726 -0.2862 -0.7126
   84MOL   H40142067   1.192   1.952   7.421  1.5768 -0.6834  1.3666
   84MOL   C40242068   1.618   1.682   7.368  0.3209  0.2450 -0.9235
   84MOL   C40342069   1.602   1.766   7.492 -0.3798  0.9933 -0.3792
   84MOL   O40442070   1.612   1.895   7.425  0.2276  0.2065 -0.5146
   84MOL   C40542071   1.513   1.989   7.460 -0.4662 -0.3519 -0.1401
   84MOL   C40642072   1.542   2.130   7.393 -0.3307 -0.1103 -0.4800
   84MOL   C40742073   1.514   2.119   7.246 -0.1569  0.7865 -0.2086
   84MOL   C40842074   1.575   2.230   7.156  0.0825  0.4835  0.2750
   84MOL   C40942075   1.546   2.207   7.014  0.3886  1.0125  0.3479
   84MOL   C41042076   1.601   2.311   6.920 -1.1400  0.2976  0.1479
   84MOL   H41142077   1.578   1.733   7.280  0.7417  1.0899 -0.6367
   84MOL   H41242078   1.723   1.674   7.341  0.3715 -0.0648 -0.6278
   84MOL   H41342079   1.514   1.749   7.555  0.5442 -0.4250  0.5615
   84MOL   H41442080   1.497   1.994   7.568  1.9083  0.0635  0.2188
   84MOL   H41542081   1.426   1.952   7.405 -0.4019 -0.2560 -0.3085
   84MOL   H41642082   1.645   2.155   7.421 -0.7227 -0.0240  0.9172
   84MOL   H41742083   1.485   2.213   7.434 -0.7318 -0.2756 -0.6996
   84MOL   H41842084   1.556   2.031   7.196  0.0556  0.5922  0.3149
   84MOL   H41942085   1.407   2.123   7.226  0.1004  0.0646 -1.8405
   84MOL   H42042086   1.536   2.325   7.191 -0.3101 -0.3530  2.1330
   84MOL   H42142087   1.684   2.235   7.165 -0.0425 -0.0261  2.0558
   84MOL   H42242088   1.585   2.112   6.977  1.1906  1.2080  0.6971
   84MOL   H42342089   1.437   2.205   7.008  0.3666  0.3443  0.8165
   84MOL   H42442090   1.582   2.283   6.816  1.4446 -0.8178 -0.0694
   84MOL   H42542091   1.551   2.404   6.947  1.0891  1.4998  0.2437
   84MOL   H42642092   1.709   2.325   6.931 -0.8330 -0.7939 -1.2657
   84MOL   C42742093   1.729   1.757   7.587 -0.6480 -0.0132  0.4399
   84MOL   C42842094   1.711   1.827   7.724  0.8591  0.1804  0.5733
   84MOL   O42942095   1.593   1.779   0.013  0.2588 -0.4461 -0.2837
   84MOL   C43042096   1.524   1.862   0.109 -0.0690  0.5346  0.2896
   84MOL   C43142097   1.420   1.775   0.179  0.9858 -0.1535 -0.4034
   84MOL   C43242098   1.311   1.850   0.253 -0.1299  0.1804  1.1679
   84MOL   C43342099   1.238   1.767   0.362  0.6137 -0.0746  0.4362
   84MOL   C43442100   1.122   1.688   0.308 -0.3144  0.3426 -0.1028
   84MOL   C43542101   1.051   1.612   0.423 -0.6717 -0.2326 -0.1004
   84MOL   H43642102   1.751   1.651   7.585 -0.0177  0.1392 -1.2407
   84MOL   H43742103   1.814   1.798   7.532  0.6394  1.8801  3.7120
   84MOL   H43842104   1.681   1.930   7.703  1.7228  0.7041  1.8601
   84MOL   H43942105   1.474   1.941   0.052 -2.2161 -0.2639  1.0270
   84MOL   H44042106   1.601   1.908   0.172  2.2642 -1.6390 -0.8845
   84MOL   H44142107   1.476   1.713   0.249 -1.2382  1.7726  3.2313
   84MOL   H44242108   1.362   1.711   0.112 -0.8598  0.1172  0.9130
   84MOL   H44342109   1.348   1.939   0.303  1.2401  0.4968 -0.3889
   84MOL   H44442110   1.246   1.898   0.181  0.6273 -1.4650 -0.6494
   84MOL   H44542111   1.308   1.697   0.408  0.5495  0.2189  0.9798
   84MOL   H44642112   1.197   1.834   0.437  1.6767  1.5190 -0.3940
   84MOL   H44742113   1.045   1.755   0.270 -1.9062  0.9971  3.9776
   84MOL   H44842114   1.159   1.629   0.225  2.1013  1.1187  0.3975
   84MOL   H44942115   1.061   1.668   0.516  1.9656 -0.6430 -0.0755
   84MOL   H45042116   0.950   1.589   0.390 -0.1569 -2.0179 -0.4827
   84MOL   H45142117   1.085   1.509   0.437 -2.8666 -1.3124 -2.2865
   84MOL   C45242118   1.833   1.831   0.040 -0.2341  0.4346 -0.3568
   84MOL   C45342119   1.947   1.925   7.775  0.0856  0.0696 -0.2378
   84MOL   O45442120   2.043   1.928   0.103  0.0367  0.5793  0.0518
   84MOL   C45542121   2.110   1.812   0.141  0.4606  0.2117  0.1815
   84MOL   C45642122   2.246   1.859   0.189  0.2960  0.6151  0.3019
   84MOL   C45742123   2.309   1.752   0.286  0.3027 -0.0769  0.0189
   84MOL   C45842124   2.448   1.787   0.333  0.5638 -0.2603 -0.0330
   84MOL   C45942125   2.490   1.715   0.459  0.8229 -0.8431  0.6146
   84MOL   C46042126   2.634   1.756   0.498 -0.5815 -0.7899  0.2432
   84MOL   H46142127   1.794   1.853   0.140  0.1105  0.8459 -0.3106
   84MOL   H46242128   1.870   1.729   0.051 -1.0856  0.0547 -0.9872
   84MOL   H46342129   1.987   1.883   7.683 -1.4016  1.3985 -1.5191
   84MOL   H46442130   2.125   1.741   0.059 -1.1148 -1.7684  1.5415
   84MOL   H46542131   2.062   1.766   0.227 -0.5122 -1.8250 -1.4102
   84MOL   H46642132   2.233   1.953   0.244  1.4784  0.7708  0.3254
   84MOL   H46742133   2.310   1.885   0.105  1.0307 -0.4753  0.5130
   84MOL   H46842134   2.251   1.739   0.377 -0.5900  0.0185 -0.5242
   84MOL   H46942135   2.304   1.655   0.236 -1.9243 -1.8937  3.4897
   84MOL   H47042136   2.517   1.774   0.250 -0.4757  1.1285 -1.1245
   84MOL   H47142137   2.444   1.891   0.365  0.0478 -0.8779  2.0319
   84MOL   H47242138   2.406   1.737   0.524  0.4087  0.4443 -0.3166
   84MOL   H47342139   2.488   1.606   0.452 -1.2343 -0.8813  1.6738
   84MOL   H47442140   2.682   1.692   0.572  0.5385 -1.1937 -0.8210
   84MOL   H47542141   2.700   1.768   0.413 -0.6812 -0.9284  0.1445
   84MOL   H47642142   2.636   1.856   0.541  2.9589 -0.4255 -0.6006
   84MOL   C47742143   1.894   2.063   7.740  0.0473  0.1256  0.5278
   84MOL   C47842144   2.002   2.167   7.707  0.1015  0.0763 -0.1097
   84MOL   O47942145   1.938   2.280   7.654 -0.3332  0.0747 -0.3632
   84MOL   C48042146   2.028   2.383   7.638 -0.1841  0.7547 -0.8067
   84MOL   C48142147   1.956   2.511   7.595  0.5850  0.3859 -0.3352
   84MOL   C48242148   1.907   2.507   7.447 -0.1421 -0.6016 -0.7041
   84MOL   C48342149   1.841   2.640   7.406  0.4806  0.8854 -0.5724
   84MOL   C48442150   1.819   2.651   7.253 -0.3583  0.2634  0.2538
   84MOL   C48542151   1.688   2.591   7.206 -0.4804  0.0364 -0.0792
   84MOL   H48642152   1.844   2.041   7.645  0.2512 -1.6568  0.8041
   84MOL   H48742153   1.830   2.118   0.030  0.1922  1.1870 -0.1950
   84MOL   H48842154   2.063   2.187   0.017 -0.5896 -0.2350  0.4522
   84MOL   H48942155   2.095   2.351   7.558  1.3016  3.6648 -0.7823
   84MOL   H49042156   2.085   2.411   7.726 -1.6683 -1.6747  0.9780
   84MOL   H49142157   2.031   2.589   7.611  0.4913  0.9075 -2.2757
   84MOL   H49242158   1.868   2.532   7.656 -0.1249  0.2743 -1.3033
   84MOL   H49342159   1.997   2.488   7.387  0.3031  1.3259 -0.6723
   84MOL   H49442160   1.841   2.421   7.441  1.9294 -2.4123  1.3506
   84MOL   H49542161   1.758   2.664   7.471  2.2088  2.1414  1.2252
   84MOL   H49642162   1.921   2.713   7.418  1.7422 -0.6831  0.7438
   84MOL   H49742163   1.818   2.757   7.229 -2.2546  0.0347 -0.7269
   84MOL   H49842164   1.907   2.605   7.208 -0.0402  0.2848  0.8399
   84MOL   H49942165   1.675   2.574   7.099  1.6972 -0.9806 -0.2155
   84MOL   H50042166   1.694   2.486   7.236 -0.3659  0.0735  0.0253
   84MOL   H50142167   1.598   2.632   7.251  0.2908  0.4343  1.1152
   84MOL   H50242168   2.069   2.125   7.632  0.2292  0.3288 -0.1384
   85MOL     C142169   7.332   0.456   4.411  0.0782 -0.4776 -0.2789
   85MOL     C242170   7.304   0.528   4.546 -0.7287 -0.3638  1.0950
   85MOL     O342171   7.323   0.669   4.531  0.6282 -0.8316 -0.4227
   85MOL     C442172   7.212   0.744   4.476 -0.2437  0.8592  0.0960
   85MOL     C542173   7.256   0.876   4.408  0.4304  0.4534  0.3828
   85MOL     C642174   7.125   0.970   4.375  0.2203 -0.3562 -0.2031
   85MOL     C742175   7.176   1.114   4.346 -0.0884 -0.6692  0.3624
   85MOL     C842176   7.083   1.220   4.392  0.3002  0.2788 -0.5089
   85MOL     C942177   7.103   1.351   4.317  0.5732 -0.6178  0.3761
   85MOL    H1042178   7.250   0.468   4.341 -1.8803 -3.2306  1.4682
   85MOL    H1142179   7.419   0.492   4.356  0.4512 -3.3647 -1.6714
   85MOL    H1242180   7.207   0.504   4.587 -0.5836  0.6890  2.0744
   85MOL    H1342181   7.136   0.761   4.552  2.4245 -1.1501  3.3046
   85MOL    H1442182   7.160   0.685   4.399 -1.0891  1.8864 -0.1409
   85MOL    H1542183   7.319   0.857   4.321  0.6564  0.5304  0.5277
   85MOL    H1642184   7.320   0.926   4.481 -0.2281 -1.4302  2.2827
   85MOL    H1742185   7.069   0.921   4.295 -1.0665 -1.2951  1.2557
   85MOL    H1842186   7.055   0.970   4.458  0.9563 -1.0017  0.4271
   85MOL    H1942187   7.271   1.135   4.396  0.1874  0.0274 -0.4379
   85MOL    H2042188   7.195   1.120   4.239 -2.9384 -0.6353 -0.1680
   85MOL    H2142189   7.096   1.239   4.498 -1.5103 -2.3458  0.2219
   85MOL    H2242190   6.980   1.187   4.396  0.4781 -0.1808  0.4118
   85MOL    H2342191   7.043   1.436   4.350 -1.4633 -1.3881 -1.2136
   85MOL    H2442192   7.206   1.386   4.318  0.5473 -0.5638  1.4768
   85MOL    H2542193   7.078   1.346   4.211  0.5256 -2.0784  0.4497
   85MOL    H2642194   7.355   0.351   4.424  2.5107  0.2385  1.6051
   85MOL    C2742195   7.409   0.482   4.650  0.2570 -0.2728 -0.2866
   85MOL    C2842196   7.385   0.529   4.796 -0.2644  0.0009  0.2574
   85MOL    O2942197   7.287   0.445   4.857  0.2899 -0.0831 -0.3065
   85MOL    C3042198   7.198   0.504   4.955 -0.1336  0.2134  0.5694
   85MOL    C3142199   7.092   0.396   4.978  0.2886 -0.0609  0.0135
   85MOL    C3242200   6.986   0.441   5.078 -0.3721  0.1749 -0.2487
   85MOL    C3342201   6.914   0.323   5.153  0.6468  0.0746  0.0408
   85MOL    C3442202   6.812   0.366   5.258 -0.6811 -0.3488  0.8700
   85MOL    C3542203   6.767   0.238   5.325  0.6846  0.4424  0.5861
   85MOL    H3642204   7.411   0.373   4.648 -1.8241 -0.3430  1.0298
   85MOL    H3742205   7.507   0.516   4.617  0.6998 -0.4489  0.8204
   85MOL    H3842206   7.364   0.636   4.799 -0.3232 -0.0463  1.7372
   85MOL    H3942207   7.148   0.589   4.909 -1.9310 -1.2652 -0.2470
   85MOL    H4042208   7.245   0.531   5.049 -2.9635  1.0471  1.8033
   85MOL    H4142209   7.151   0.316   5.024  0.1549  0.6852  1.5017
   85MOL    H4242210   7.052   0.360   4.883  1.4625 -1.4718  0.0278
   85MOL    H4342211   7.046   0.497   5.149 -0.0149  1.0369 -1.2056
   85MOL    H4442212   6.916   0.511   5.032 -0.3884 -1.0179 -2.1231
   85MOL    H4542213   6.880   0.251   5.078 -2.4766  1.5498 -0.0478
   85MOL    H4642214   6.991   0.257   5.194 -0.7838 -3.5855 -2.8720
   85MOL    H4742215   6.875   0.431   5.318 -0.1078 -0.8299  0.7951
   85MOL    H4842216   6.726   0.409   5.207  1.5438 -0.7041 -3.4308
   85MOL    H4942217   6.843   0.196   5.390  0.8054 -0.2889 -0.0142
   85MOL    H5042218   6.678   0.268   5.380  0.9001  1.3558  0.4481
   85MOL    H5142219   6.729   0.159   5.259  2.6209  0.6912 -0.8635
   85MOL    C5242220   7.509   0.498   4.889  0.1674 -0.1960 -0.1396
   85MOL    C5342221   7.640   0.559   4.841  0.0839  0.0003  1.0991
   85MOL    O5442222   7.614   0.698   4.805  0.1753 -0.0156  0.0764
   85MOL    C5542223   7.698   0.739   4.702  0.4982  0.3035 -0.1419
   85MOL    C5642224   7.656   0.869   4.637  0.4285  0.0386 -0.3648
   85MOL    C5742225   7.666   0.990   4.726  0.2520 -0.3432  0.1124
   85MOL    C5842226   0.033   1.036   4.756  0.2155 -0.3957  0.7401
   85MOL    C5942227   0.033   1.164   4.836 -0.3915  0.6742 -0.1897
   85MOL    C6042228   7.738   1.161   4.970  0.4067 -0.0762 -0.4288
   85MOL    H6142229   7.524   0.391   4.896  1.5061  0.1275  3.0018
   85MOL    H6242230   7.490   0.535   4.990  0.7522 -0.6572  0.1459
   85MOL    H6342231   7.678   0.500   4.758 -0.9627 -0.8072  1.1817
   85MOL    H6442232   7.702   0.660   4.626 -0.5513  0.5853 -0.4971
   85MOL    H6542233   0.025   0.753   4.732  0.3880  0.4894  0.1545
   85MOL    H6642234   7.555   0.862   4.598  0.5458  0.9061 -0.8431
   85MOL    H6742235   7.716   0.889   4.548  0.4192 -1.9251 -0.8245
   85MOL    H6842236   7.614   1.071   4.675  0.8738  0.2379  0.3887
   85MOL    H6942237   7.610   0.977   4.819  0.0161  1.6954  0.2716
   85MOL    H7042238   0.093   0.957   4.802  1.7052 -1.4574 -2.8978
   85MOL    H7142239   0.084   1.050   4.661  0.3759 -0.3201  0.8373
   85MOL    H7242240   0.137   1.185   4.861 -0.2031 -0.5840  0.0916
   85MOL    H7342241   7.769   1.244   4.774 -0.1439  1.4795  0.6870
   85MOL    H7442242   7.744   1.257   5.021 -0.3440 -0.4966  0.4707
   85MOL    H7542243   7.630   1.155   4.958  0.7782 -2.4347 -3.1064
   85MOL    H7642244   0.005   1.084   5.033 -1.6087 -1.7495 -0.9894
   85MOL    C7742245   7.747   0.555   4.955 -0.1488  0.5537 -0.1539
   85MOL    C7842246   0.009   0.419   5.005  0.5031 -0.0974 -0.2264
   85MOL    O7942247   0.071   0.429   5.130 -0.0930 -0.0971 -0.2470
   85MOL    C8042248   7.763   0.404   5.240 -0.2191 -0.3877 -0.1469
   85MOL    C8142249   0.072   0.377   5.366  0.7529  0.0104  0.1334
   85MOL    C8242250   7.772   0.384   5.501 -0.1052  0.5701 -0.2448
   85MOL    C8342251   7.667   0.283   5.520 -0.0011  0.3752  0.0320
   85MOL    C8442252   7.593   0.284   5.660 -0.6964  0.2144  0.4985
   85MOL    C8542253   7.547   0.431   5.705  0.0701 -0.0346  0.0825
   85MOL    H8642254   7.714   0.612   5.041  3.7374 -0.3911  2.1046
   85MOL    H8742255   0.063   0.605   4.929  0.3306 -0.8712 -1.3313
   85MOL    H8842256   7.689   0.370   5.020 -0.1634  1.1107 -0.5261
   85MOL    H8942257   7.707   0.313   5.219  2.3111 -2.3502  1.3371
   85MOL    H9042258   7.698   0.490   5.252  0.1554  0.0178 -0.9954
   85MOL    H9142259   0.159   0.442   5.366  0.5742  0.3107 -2.3492
   85MOL    H9242260   0.106   0.275   5.349 -3.0420 -1.5952  1.7832
   85MOL    H9342261   0.060   0.391   5.588 -1.2223  1.0259  0.5591
   85MOL    H9442262   7.721   0.480   5.497  0.0693  0.6067 -2.3603
   85MOL    H9542263   7.591   0.278   5.442 -0.3994 -1.4400  0.5039
   85MOL    H9642264   7.709   0.182   5.514 -1.9919 -0.5972  1.6283
   85MOL    H9742265   7.505   0.220   5.664 -0.6785  0.1813  0.3913
   85MOL    H9842266   7.669   0.247   5.729  0.0078 -0.2252 -0.4913
   85MOL    H9942267   7.472   0.470   5.636  0.2356  0.4992  0.1951
   85MOL   H10042268   7.505   0.432   5.806 -2.2879 -0.7454 -0.8607
   85MOL   H10142269   7.634   0.496   5.710  0.7471 -0.9901  0.9920
   85MOL   C10242270   0.101   0.338   4.910 -0.1714  0.1818 -0.4854
   85MOL   C10342271   0.118   0.188   4.950  0.2330 -0.6551 -0.2076
   85MOL   O10442272   7.764   0.132   4.968 -0.0064  0.1720 -0.2100
   85MOL   C10542273   7.767   0.035   5.073  0.2876 -0.0485  0.4409
   85MOL   C10642274   7.619   7.771   5.100  0.3760 -0.0305  0.0811
   85MOL   C10742275   7.525   0.097   5.161 -0.1163 -0.3198  0.5314
   85MOL   C10842276   7.376   0.051   5.168  0.0548  0.1405 -0.6871
   85MOL   C10942277   7.333   7.737   5.287  0.0576 -0.6774  0.5131
   85MOL   C11042278   7.368   0.017   5.429 -1.0130  0.0422 -1.5510
   85MOL   H11142279   0.046   0.338   4.817 -0.6517 -1.8174 -0.2060
   85MOL   H11242280   0.196   0.391   4.895  0.1384  0.1074  1.0857
   85MOL   H11342281   0.172   0.194   5.044 -1.4494 -0.2291  0.7578
   85MOL   H11442282   0.041   0.077   5.159 -1.9699  2.9635  0.4001
   85MOL   H11542283   0.042   7.722   5.040  1.4479  0.6601  0.3195
   85MOL   H11642284   7.609   7.679   5.157  1.5206 -1.4795 -1.9697
   85MOL   H11742285   7.584   7.733   5.004 -1.3200  2.3274 -0.2908
   85MOL   H11842286   7.570   0.130   5.254 -0.9600 -1.9557  1.5545
   85MOL   H11942287   7.520   0.183   5.094 -0.6166  0.9147  2.1296
   85MOL   H12042288   7.313   0.140   5.166 -1.6873 -1.0584  0.0899
   85MOL   H12142289   7.352   0.005   5.072  2.0214  0.2030 -1.2411
   85MOL   H12242290   7.231   7.700   5.281 -1.0036  2.0194  1.1237
   85MOL   H12342291   7.401   7.652   5.277  1.5803  0.4550  1.0577
   85MOL   H12442292   7.476   0.024   5.442 -1.1872 -1.1894  0.7622
   85MOL   H12542293   7.311   0.109   5.441 -2.7233 -0.9609 -1.8042
   85MOL   H12642294   7.331   7.711   5.489  1.4853 -1.8463 -2.5136
   85MOL   C12742295   0.190   0.098   4.848  0.5310 -0.0570  0.1046
   85MOL   C12842296   0.343   0.128   4.852 -0.5559  0.0164 -0.4771
   85MOL   O12942297   0.386   0.079   4.727 -0.6411 -0.2763  0.4882
   85MOL   C13042298   0.402   0.178   4.622  0.2836  0.7414  0.3372
   85MOL   C13142299   0.391   0.096   4.488  0.2673  0.4789 -0.1687
   85MOL   C13242300   0.522   0.019   4.451  0.3840  0.0022  0.7370
   85MOL   C13342301   0.518   7.734   4.309  0.8965  0.3923 -0.6629
   85MOL   C13442302   0.611   7.612   4.300 -0.4242 -0.2674 -0.0685
   85MOL   C13542303   0.608   7.531   4.167 -0.2867 -0.7951 -0.1542
   85MOL   H13642304   0.185   7.768   4.868 -0.4610  0.1667  1.1120
   85MOL   H13742305   0.145   0.115   4.751 -1.0621 -0.1808  0.8131
   85MOL   H13842306   0.355   0.236   4.857  0.8032 -0.1671  0.1694
   85MOL   H13942307   0.493   0.235   4.639  0.3211  1.0805 -0.9394
   85MOL   H14042308   0.320   0.250   4.631  1.3377  2.1161 -0.7976
   85MOL   H14142309   0.371   0.172   4.413 -0.9512 -1.0282 -1.3969
   85MOL   H14242310   0.301   0.037   4.473  0.3965  0.8868 -2.8143
   85MOL   H14342311   0.605   0.089   4.461 -0.5553  1.6454 -2.3058
   85MOL   H14442312   0.528   7.715   4.524 -0.1163 -0.0982  0.6698
   85MOL   H14542313   0.417   7.698   4.289 -0.3047  3.7143 -0.9473
   85MOL   H14642314   0.544   0.027   4.230 -0.6777 -0.1803 -1.7286
   85MOL   H14742315   0.714   7.646   4.308 -0.6295  0.4460 -0.4498
   85MOL   H14842316   0.588   7.549   4.387  1.8957 -0.4064  0.4874
   85MOL   H14942317   0.670   7.442   4.162 -0.2058 -0.7218 -0.4527
   85MOL   H15042318   0.503   7.510   4.148 -0.2804  0.6532 -2.0708
   85MOL   H15142319   0.632   7.596   4.083 -0.8036  0.8623  0.9528
   85MOL   C15242320   0.410   0.051   4.968 -0.4449  0.3053  0.0790
   85MOL   C15342321   0.547   0.105   5.011 -0.4624  0.2298 -0.0484
   85MOL   O15442322   0.530   0.169   5.137 -0.1781  0.1606 -0.3321
   85MOL   C15542323   0.477   0.305   5.132 -1.2263 -0.2771  0.5097
   85MOL   C15642324   0.412   0.357   5.264  0.2512 -0.3657  0.5238
   85MOL   C15742325   0.506   0.345   5.382 -0.7873  0.0022 -0.8316
   85MOL   C15842326   0.458   0.415   5.516 -0.1506  0.1358 -0.1888
   85MOL   C15942327   0.577   0.446   5.605 -0.2832 -0.0343  0.2514
   85MOL   C16042328   0.534   0.501   5.747  0.2479 -0.0298  0.1256
   85MOL   H16142329   0.347   0.052   5.057  1.1188  2.1090  1.2148
   85MOL   H16242330   0.409   7.725   4.935  4.4397 -0.2878  1.3488
   85MOL   H16342331   0.568   0.190   4.946 -1.3771  0.4640 -0.0522
   85MOL   H16442332   0.398   0.307   5.057  0.0826  2.0773 -0.8916
   85MOL   H16542333   0.560   0.363   5.092 -0.3176 -2.1290 -0.3017
   85MOL   H16642334   0.322   0.296   5.274 -0.3166  0.4086  0.1741
   85MOL   H16742335   0.381   0.461   5.254 -3.3414 -1.4884 -0.7565
   85MOL   H16842336   0.537   0.245   5.413 -1.0077  0.4143  0.7487
   85MOL   H16942337   0.598   0.397   5.356 -0.3710  0.0128  0.6606
   85MOL   H17042338   0.406   0.507   5.494 -0.7015 -0.2136 -0.3476
   85MOL   H17142339   0.386   0.348   5.562  0.5033  0.5522  1.4769
   85MOL   H17242340   0.648   0.363   5.612 -0.6769 -0.3981 -0.0682
   85MOL   H17342341   0.641   0.531   5.579  0.3565 -0.3132  0.8802
   85MOL   H17442342   0.477   0.434   5.811  0.6134 -1.4678 -1.0231
   85MOL   H17542343   0.624   0.533   5.801  0.6673 -0.6050 -0.2208
   85MOL   H17642344   0.464   0.584   5.733 -0.2789 -0.4443  0.2994
   85MOL   C17742345   0.658   7.777   5.005  0.5800  0.2195 -0.1566
   85MOL   C17842346   0.726   7.757   4.869  0.6144 -0.5302  0.2345
   85MOL   O17942347   0.799   0.101   4.841 -0.1670  0.4997 -0.2929
   85MOL   C18042348   0.811   0.132   4.708  0.0036  0.1397  0.4985
   85MOL   C18142349   0.951   0.203   4.684  0.3369 -0.1723  0.5585
   85MOL   C18242350   1.073   0.134   4.741  0.5321 -0.1738 -0.5222
   85MOL   C18342351   1.109   0.011   4.658 -0.3382  0.0269  0.4491
   85MOL   C18442352   1.244   7.724   4.708 -0.6346 -0.2036  0.3676
   85MOL   C18542353   1.287   7.591   4.633 -0.3211  0.1059 -0.1618
   85MOL   H18642354   0.734   0.024   5.080  1.1467  0.1674 -0.7121
   85MOL   H18742355   0.615   7.680   5.031  0.9877  0.5368  1.8135
   85MOL   H18842356   0.649   7.750   4.792  0.5860 -4.7333  0.5188
   85MOL   H18942357   0.742   0.209   4.674  0.2588  0.4479  0.6728
   85MOL   H19042358   0.804   0.042   4.646 -1.8729 -0.0257  0.9314
   85MOL   H19142359   0.932   0.302   4.726  4.0870  0.6954  0.3595
   85MOL   H19242360   0.956   0.202   4.575 -0.1055 -1.1577  0.5383
   85MOL   H19342361   1.151   0.210   4.747 -1.2539  1.6843 -0.0725
   85MOL   H19442362   1.055   0.111   4.847  2.4535  0.0565 -0.1389
   85MOL   H19542363   1.032   7.710   4.659 -1.7956  1.4402  0.0439
   85MOL   H19642364   1.134   0.030   4.554  1.3245  1.8581  1.1604
   85MOL   H19742365   1.317   0.024   4.732 -0.9088 -0.1729  1.1046
   85MOL   H19842366   1.216   7.692   4.808 -0.9191 -0.1502  0.3047
   85MOL   H19942367   1.385   7.571   4.676 -0.8262 -3.0754 -0.3733
   85MOL   H20042368   1.217   7.512   4.658 -0.2501  0.3371  0.7906
   85MOL   H20142369   1.303   7.616   4.528  0.4675  1.6757  0.3073
   85MOL   C20242370   0.821   7.640   4.854  0.3488  0.4406 -0.3166
   85MOL   C20342371   0.758   7.497   4.884 -0.4741 -0.0931 -0.6290
   85MOL   O20442372   0.854   7.397   4.850  0.0884  0.2865 -0.1213
   85MOL   C20542373   0.953   7.376   4.951  0.9066 -0.0650  0.6726
   85MOL   C20642374   1.059   7.281   4.890 -0.5798  1.0522  0.4035
   85MOL   C20742375   1.014   7.144   4.868  0.1382 -0.0459 -0.0651
   85MOL   C20842376   1.124   7.059   4.795 -0.1361 -0.6185  0.3656
   85MOL   C20942377   1.103   6.909   4.816 -0.0918  0.9247 -0.1301
   85MOL   C21042378   1.207   6.810   4.755 -0.7132 -0.1991 -0.5204
   85MOL   H21142379   0.862   7.634   4.753 -0.4379 -0.6229 -0.5801
   85MOL   H21242380   0.901   7.662   4.925 -0.2711  0.4733  0.3770
   85MOL   H21342381   0.722   7.487   4.986 -1.2063  1.1515 -0.7584
   85MOL   H21442382   0.902   7.322   5.031  0.5884  1.9356  1.8447
   85MOL   H21542383   1.000   7.472   4.970  2.0993 -0.2045 -1.3755
   85MOL   H21642384   1.157   7.281   4.938 -0.4462  0.9929  0.1285
   85MOL   H21742385   1.081   7.315   4.789  0.5754 -3.4748 -0.9448
   85MOL   H21842386   1.002   7.093   4.964  2.6835  3.0793  2.0183
   85MOL   H21942387   0.924   7.133   4.808 -0.0915 -0.9571  0.4330
   85MOL   H22042388   1.126   7.094   4.692  0.3076 -0.1912  0.5147
   85MOL   H22142389   1.220   7.084   4.842 -0.1103 -0.9716  0.5076
   85MOL   H22242390   1.081   6.892   4.921 -0.1657 -0.0609 -0.2947
   85MOL   H22342391   1.012   6.888   4.761 -0.9314 -0.7730  1.8441
   85MOL   H22442392   1.169   6.716   4.795 -0.9251 -0.4661 -1.3414
   85MOL   H22542393   1.221   6.802   4.648 -1.9697  1.8715 -0.8661
   85MOL   H22642394   1.306   6.842   4.785 -1.0375  0.8761 -0.5920
   85MOL   C22742395   0.635   7.462   4.791 -0.4710 -0.0035  0.4490
   85MOL   C22842396   0.545   7.344   4.807  1.1205 -0.4264 -0.5465
   85MOL   O22942397   0.446   7.343   4.702  0.0609  0.0515 -0.1456
   85MOL   C23042398   0.325   7.417   4.721  0.2820 -0.6149 -0.8756
   85MOL   C23142399   0.264   7.443   4.578 -0.3530 -0.2769 -0.4101
   85MOL   C23242400   0.139   7.535   4.589  0.1386  0.4977 -0.0648
   85MOL   C23342401   0.066   7.560   4.458 -0.0166  0.3051  0.0741
   85MOL   C23442402   7.690   7.563   4.490 -0.0129 -0.6241  0.0305
   85MOL   C23542403   7.608   7.566   4.356 -0.6037  0.2782 -0.1348
   85MOL   H23642404   0.575   7.553   4.794  1.3008  1.1868  0.7420
   85MOL   H23742405   0.657   7.473   4.685 -1.3720  3.7179  0.6053
   85MOL   H23842406   0.494   7.357   4.903 -0.5497  1.5012 -1.6387
   85MOL   H23942407   0.337   7.516   4.765 -0.3267 -0.5631 -0.8152
   85MOL   H24042408   0.264   7.367   4.796  1.7856  0.7504  1.3194
   85MOL   H24142409   0.237   7.347   4.533  2.0511 -0.7918 -0.8527
   85MOL   H24242410   0.336   7.489   4.510 -0.6423  0.5678 -0.1406
   85MOL   H24342411   0.077   7.495   4.669  1.3695  0.8205  1.0599
   85MOL   H24442412   0.177   7.629   4.631  0.6925 -0.4204  1.5313
   85MOL   H24542413   0.099   7.655   4.416 -1.5781  0.5849 -0.5869
   85MOL   H24642414   0.085   7.488   4.378 -1.3193  2.7419 -2.5518
   85MOL   H24742415   7.673   7.464   4.533 -0.7438 -0.7174 -0.4567
   85MOL   H24842416   7.660   7.639   4.561 -0.1515  0.2862 -0.9836
   85MOL   H24942417   7.626   7.650   4.289 -0.3572 -0.4450 -0.9774
   85MOL   H25042418   7.633   7.483   4.290  0.3714 -0.3079  0.9549
   85MOL   H25142419   7.502   7.560   4.378 -0.2888 -0.9032  1.1333
   85MOL   C25242420   0.622   7.213   4.814  0.4278  0.1021  0.0283
   85MOL   C25342421   0.538   7.081   4.816 -0.9044  0.0920  0.4915
   85MOL   O25442422   0.466   7.082   4.937 -0.3899  0.1139 -0.1036
   85MOL   C25542423   0.338   7.026   4.949  0.1478  0.0977  0.7787
   85MOL   C25642424   0.276   7.072   5.087 -0.7723  0.7171 -0.2364
   85MOL   C25742425   0.234   7.214   5.103 -0.3880  0.2916 -0.0557
   85MOL   C25842426   0.337   7.308   5.158  0.5937 -0.5893  0.0920
   85MOL   C25942427   0.298   7.454   5.157  0.1731 -0.6214 -0.4233
   85MOL   C26042428   0.417   7.537   5.220 -0.1948 -0.5413 -0.1670
   85MOL   H26142429   0.688   7.215   4.727  0.2694  0.3384 -0.0849
   85MOL   H26242430   0.686   7.226   4.901 -3.3923 -0.6758  3.0636
   85MOL   H26342431   0.473   7.086   4.729 -0.0078  0.2146 -0.1753
   85MOL   H26442432   0.366   6.921   4.954 -1.2662 -0.5619 -3.2569
   85MOL   H26542433   0.274   7.054   4.865 -0.1366 -1.5090  0.4514
   85MOL   H26642434   0.330   7.044   5.177  0.6149  0.3934 -1.1524
   85MOL   H26742435   0.186   7.010   5.092 -0.6033  0.1996 -2.6922
   85MOL   H26842436   0.195   7.255   5.010 -2.1160 -1.9773 -0.3762
   85MOL   H26942437   0.155   7.217   5.179 -0.3579 -0.7351  0.0218
   85MOL   H27042438   0.355   7.283   5.262 -1.2550  1.4376  0.9373
   85MOL   H27142439   0.429   7.297   5.101  1.3671  1.7276  0.8203
   85MOL   H27242440   0.289   7.477   5.051  3.2620 -0.2342 -0.6707
   85MOL   H27342441   0.202   7.480   5.201 -0.3308  0.2708 -2.0196
   85MOL   H27442442   0.508   7.478   5.214  1.4722  1.7969  1.5704
   85MOL   H27542443   0.425   7.633   5.169  2.0557 -2.3072 -3.2851
   85MOL   H27642444   0.402   7.555   5.326  2.5104  0.4835  0.0702
   85MOL   C27742445   0.620   6.949   4.827 -0.4886  0.0385  0.3825
   85MOL   C27842446   0.646   6.872   4.699  0.2657 -0.2209  0.7003
   85MOL   O27942447   0.724   6.962   4.614  0.4378 -0.2347 -0.4775
   85MOL   C28042448   0.717   6.955   4.479  0.1761  0.4542 -0.2221
   85MOL   C28142449   0.649   7.088   4.431 -0.1230  0.2945  0.0262
   85MOL   C28242450   0.587   7.097   4.289 -0.3562 -0.1420  0.1450
   85MOL   C28342451   0.680   7.042   4.175 -0.3772 -0.6408 -0.2258
   85MOL   C28442452   0.632   7.063   4.031 -0.0742  0.3674 -0.3292
   85MOL   C28542453   0.723   7.021   3.921 -0.3212 -0.3458 -0.7238
   85MOL   H28642454   0.716   6.981   4.867  0.3356  1.2992 -2.4449
   85MOL   H28742455   0.570   6.896   4.908 -0.9193  0.1784  0.2077
   85MOL   H28842456   0.551   6.860   4.647  0.7666  0.3617 -0.3647
   85MOL   H28942457   0.655   6.872   4.444  0.3052  0.4349 -0.4053
   85MOL   H29042458   0.816   6.956   4.434  0.3507  0.5391  0.1672
   85MOL   H29142459   0.722   7.167   4.449  1.9332 -1.5257 -0.1221
   85MOL   H29242460   0.569   7.120   4.497 -1.0829 -1.1366 -0.4212
   85MOL   H29342461   0.490   7.048   4.284 -1.2488  1.6944 -1.0286
   85MOL   H29442462   0.561   7.201   4.272 -1.5568 -0.4945 -0.2394
   85MOL   H29542463   0.778   7.089   4.183 -1.4867  1.9811 -1.2198
   85MOL   H29642464   0.703   6.938   4.199 -0.2631 -0.0402  2.5030
   85MOL   H29742465   0.539   7.011   4.006  0.9224 -0.7298 -1.8593
   85MOL   H29842466   0.613   7.170   4.020 -0.4088  0.6334  2.4957
   85MOL   H29942467   0.666   7.004   3.830  0.7219 -2.1454 -1.0640
   85MOL   H30042468   0.796   7.095   3.890 -0.6737  0.1798 -0.2979
   85MOL   H30142469   0.778   6.929   3.944 -2.3603 -1.0033  1.7524
   85MOL   C30242470   0.709   6.738   4.727  0.0244 -0.1830  0.0434
   85MOL   C30342471   0.643   6.645   4.823 -0.1280  0.4325 -0.0994
   85MOL   O30442472   0.714   6.521   4.813  0.2726 -0.7003  0.0927
   85MOL   C30542473   0.819   6.498   4.909 -0.7728 -0.3135  0.4400
   85MOL   C30642474   0.876   6.350   4.910  0.5038 -0.6214 -0.0197
   85MOL   C30742475   1.003   6.339   4.996 -0.1245  0.1503  0.5095
   85MOL   C30842476   1.058   6.193   5.013 -0.1972  0.2314 -0.3451
   85MOL   C30942477   1.181   6.193   5.100 -0.1738  0.2147 -0.4285
   85MOL   C31042478   1.203   6.054   5.167  0.1103  0.0922 -0.1432
   85MOL   H31142479   0.721   6.698   4.626  0.2290  0.3517 -0.1448
   85MOL   H31242480   0.811   6.756   4.760  0.7778  0.6582 -2.6232
   85MOL   H31342481   0.643   6.691   4.922  0.5396 -0.8136  0.4960
   85MOL   H31442482   0.791   6.533   5.008 -0.1619 -0.2549  0.5913
   85MOL   H31542483   0.902   6.565   4.888 -1.5642  1.4273  2.6377
   85MOL   H31642484   0.899   6.317   4.809  0.5043 -0.4353 -0.0803
   85MOL   H31742485   0.798   6.285   4.950  1.7518 -0.4998  2.7439
   85MOL   H31842486   1.090   6.389   4.951  1.5540 -5.4487 -3.0029
   85MOL   H31942487   0.963   6.377   5.089 -3.3728 -0.9289 -0.3783
   85MOL   H32042488   0.981   6.132   5.062 -0.9638  1.4779  0.0312
   85MOL   H32142489   1.079   6.146   4.917 -1.8529 -0.9714 -0.1501
   85MOL   H32242490   1.269   6.193   5.035 -0.1999 -1.3686 -0.4864
   85MOL   H32342491   1.197   6.282   5.161  2.5656 -0.2794 -0.3579
   85MOL   H32442492   1.117   6.009   5.216  0.9654 -0.5696  0.7585
   85MOL   H32542493   1.221   5.977   5.092  0.8863 -2.0577  2.1652
   85MOL   H32642494   1.290   6.048   5.232 -1.5872 -1.0563  2.1193
   85MOL   C32742495   0.500   6.612   4.792 -0.0658  0.2784  0.8911
   85MOL   C32842496   0.435   6.524   4.900  0.0722 -0.3255  0.5724
   85MOL   O32942497   0.357   6.610   4.981  0.3154  0.2725  0.3717
   85MOL   C33042498   0.404   6.645   5.109 -0.0669  0.5952  0.2684
   85MOL   C33142499   0.283   6.712   5.171 -0.9845 -0.3559 -0.3647
   85MOL   C33242500   0.320   6.758   5.314 -0.4191 -0.6953  0.1918
   85MOL   C33342501   0.340   6.643   5.411  0.3052 -0.1138  0.4486
   85MOL   C33442502   0.357   6.676   5.558  0.1880 -1.5318 -1.0587
   85MOL   C33542503   0.455   6.783   5.603  0.3377  0.6057  0.2296
   85MOL   H33642504   0.493   6.583   4.688  0.2757  0.1414  0.9048
   85MOL   H33742505   0.449   6.708   4.792  0.3557  0.5345 -2.1307
   85MOL   H33842506   0.503   6.462   4.958  1.0279 -0.4652 -0.6775
   85MOL   H33942507   0.491   6.711   5.110 -0.3335  0.9453  1.7901
   85MOL   H34042508   0.437   6.561   5.169  2.0752  1.1112 -0.1294
   85MOL   H34142509   0.197   6.646   5.184 -0.7873 -0.1054  2.4689
   85MOL   H34242510   0.251   6.799   5.113 -0.2134 -1.3634 -2.3312
   85MOL   H34342511   0.405   6.825   5.325 -1.5122  0.3878  2.3967
   85MOL   H34442512   0.230   6.805   5.354 -0.2912  1.3705 -1.8496
   85MOL   H34542513   0.255   6.575   5.405  0.4818 -0.2055 -1.2791
   85MOL   H34642514   0.427   6.581   5.388 -1.2523 -1.4236 -2.2260
   85MOL   H34742515   0.260   6.710   5.596  1.9284  2.7743 -0.2683
   85MOL   H34842516   0.388   6.584   5.609  0.6736 -0.8991 -0.2108
   85MOL   H34942517   0.409   6.881   5.597 -1.9321 -0.3791  0.7889
   85MOL   H35042518   0.469   6.762   5.709 -0.4329 -2.3189 -0.1990
   85MOL   H35142519   0.552   6.773   5.554 -0.0932 -0.5930 -0.4001
   85MOL   C35242520   0.345   6.419   4.836  0.3179  0.5983  0.1759
   85MOL   C35342521   0.282   6.308   4.916 -0.1660  0.0109  0.3672
   85MOL   O35442522   0.387   6.237   4.984  0.4906 -0.3753  0.0890
   85MOL   C35542523   0.343   6.199   5.111  0.6081 -0.1842  0.4580
   85MOL   C35642524   0.456   6.139   5.185 -0.4472 -0.8914  0.4304
   85MOL   C35742525   0.566   6.234   5.250  0.5012 -0.2928 -0.3382
   85MOL   C35842526   0.675   6.158   5.335 -0.1200 -0.0370  0.2170
   85MOL   C35942527   0.789   6.248   5.381 -0.7901  0.1429 -0.5669
   85MOL   C36042528   0.886   6.183   5.475 -0.3701 -0.0753 -0.0307
   85MOL   H36142529   0.268   6.471   4.778 -1.2593  0.6524  2.2724
   85MOL   H36242530   0.415   6.369   4.770 -0.8394  0.3601 -0.9060
   85MOL   H36342531   0.202   6.359   4.970 -1.2302 -3.4838  2.3041
   85MOL   H36442532   0.253   6.138   5.095  1.4582 -1.2313 -0.4050
   85MOL   H36542533   0.302   6.280   5.172  1.3451 -0.5767  1.4851
   85MOL   H36642534   0.495   6.066   5.115  1.1562  0.9009 -0.6004
   85MOL   H36742535   0.416   6.073   5.262 -1.9375  1.1571  1.4511
   85MOL   H36842536   0.618   6.271   5.161  1.9788 -1.9048 -0.1696
   85MOL   H36942537   0.513   6.307   5.310  2.2855 -0.8560  1.9993
   85MOL   H37042538   0.647   6.105   5.426  2.3240 -2.0834 -0.1736
   85MOL   H37142539   0.707   6.081   5.264 -0.9773  0.6182 -0.9079
   85MOL   H37242540   0.837   6.290   5.292 -0.7832  0.3120 -0.4820
   85MOL   H37342541   0.764   6.335   5.442  1.1778 -0.2453  0.8102
   85MOL   H37442542   0.961   6.250   5.515 -0.4781 -1.1944  2.1299
   85MOL   H37542543   0.842   6.138   5.564  0.1250  0.4025  0.4585
   85MOL   H37642544   0.939   6.106   5.419 -0.3917  1.1449 -1.7831
   85MOL   C37742545   0.216   6.202   4.817 -0.3220 -0.5355  0.1565
   85MOL   C37842546   0.087   6.242   4.751  0.5911 -0.0731  0.3130
   85MOL   O37942547   7.764   6.231   4.852  0.1417 -0.0645 -0.3559
   85MOL   C38042548   7.647   6.297   4.813  0.2848 -0.1615  0.0443
   85MOL   C38142549   7.577   6.329   4.944 -0.7133  0.2383 -0.3561
   85MOL   C38242550   7.451   6.407   4.912  0.1168  0.1885 -0.2846
   85MOL   C38342551   7.362   6.421   5.038  0.0674 -0.1803 -0.3093
   85MOL   C38442552   7.217   6.476   5.013  0.0112  0.0162  0.2209
   85MOL   C38542553   7.131   6.507   5.139  0.4378 -0.3372 -0.4031
   85MOL   H38642554   0.280   6.160   4.740 -0.3782  1.8165 -1.2304
   85MOL   H38742555   0.193   6.110   4.870 -0.6280 -0.4973  0.0967
   85MOL   H38842556   0.096   6.348   4.731 -0.2299  0.1303  0.9822
   85MOL   H38942557   7.589   6.232   4.748  0.5812 -0.3749 -0.0037
   85MOL   H39042558   7.664   6.391   4.759 -0.0682  0.2726  0.6722
   85MOL   H39142559   7.646   6.394   4.998 -0.0318  0.6870 -1.7521
   85MOL   H39242560   7.541   6.241   4.998 -0.9295  0.2122 -0.5410
   85MOL   H39342561   7.472   6.504   4.865 -1.4374  1.2383  1.1414
   85MOL   H39442562   7.397   6.348   4.838  2.9980 -1.2838 -1.2892
   85MOL   H39542563   7.341   6.323   5.081 -2.1298  0.5219  0.3041
   85MOL   H39642564   7.408   6.470   5.124  2.2013 -2.1515 -0.3003
   85MOL   H39742565   7.233   6.554   4.939  0.2569 -0.2526 -0.0151
   85MOL   H39842566   7.158   6.397   4.965 -0.8808  0.6513  0.2644
   85MOL   H39942567   7.043   6.563   5.109  1.9361  1.9298 -0.6767
   85MOL   H40042568   7.105   6.417   5.195 -1.1470  2.0683  2.9002
   85MOL   H40142569   7.191   6.562   5.211  1.1286  1.5251 -2.3796
   85MOL   C40242570   0.048   6.148   4.623  0.0471 -0.2553 -0.0617
   85MOL   C40342571   0.147   6.150   4.503 -0.5787 -1.0334  0.6052
   85MOL   O40442572   0.203   6.280   4.492 -0.1883  0.0950 -0.1196
   85MOL   C40542573   0.341   6.279   4.462  0.5015 -0.0889  0.7094
   85MOL   C40642574   0.391   6.416   4.436 -0.7251 -0.5241  0.2946
   85MOL   C40742575   0.530   6.421   4.375  0.9163 -0.0164 -0.1738
   85MOL   C40842576   0.536   6.493   4.237 -0.1109 -0.2563 -0.3859
   85MOL   C40942577   0.651   6.454   4.151 -0.2467  0.6444 -0.3365
   85MOL   C41042578   0.636   6.489   4.001 -0.0213 -0.5220  0.1778
   85MOL   H41142579   7.725   6.174   4.588  0.1635  2.4257  1.4909
   85MOL   H41242580   0.030   6.047   4.657  2.8534 -1.0001 -0.6303
   85MOL   H41342581   0.219   6.069   4.514  1.6579  1.0675  1.8470
   85MOL   H41442582   0.350   6.223   4.369 -3.0277  0.5824 -0.1247
   85MOL   H41542583   0.397   6.227   4.540  0.9621 -0.2292  0.2884
   85MOL   H41642584   0.386   6.482   4.522 -3.2987  1.7581 -1.4979
   85MOL   H41742585   0.319   6.457   4.364  0.3324  0.1141 -0.4160
   85MOL   H41842586   0.601   6.471   4.441  0.7172  0.0589 -0.0188
   85MOL   H41942587   0.578   6.324   4.364  0.8541 -0.1490  0.7511
   85MOL   H42042588   0.442   6.489   4.181  0.4049  0.0189 -1.2863
   85MOL   H42142589   0.560   6.595   4.266  1.5749 -1.2391  1.8076
   85MOL   H42242590   0.746   6.483   4.196 -0.9417  0.7267  1.0946
   85MOL   H42342591   0.649   6.345   4.138 -5.0436  0.5521  0.3409
   85MOL   H42442592   0.669   6.410   3.934  1.3766 -0.2048  0.4723
   85MOL   H42542593   0.536   6.516   3.969  0.9945  2.1379 -0.9997
   85MOL   H42642594   0.697   6.574   3.969 -1.1050  0.5795  0.9921
   85MOL   C42742595   0.084   6.128   4.362  0.1511  0.3381  0.0014
   85MOL   C42842596   7.767   6.009   4.344  0.1279 -0.4113 -0.0439
   85MOL   O42942597   7.713   6.003   4.208 -0.4216  0.0650 -0.3233
   85MOL   C43042598   7.583   6.056   4.185 -1.0662  0.9607  0.6001
   85MOL   C43142599   7.550   6.042   4.034  0.3904 -0.1893  0.0186
   85MOL   C43242600   7.536   5.896   3.982 -0.3855 -0.6907 -0.2094
   85MOL   C43342601   7.503   5.886   3.829 -0.1414  0.6313  0.2647
   85MOL   C43442602   7.460   5.741   3.791  0.6451  0.3339  0.1169
   85MOL   C43542603   7.437   5.720   3.637  0.7680  0.4623 -0.1400
   85MOL   H43642604   0.016   6.209   4.335 -1.5768 -1.5890 -1.5582
   85MOL   H43742605   0.168   6.121   4.294  0.6957  0.6484  0.6357
   85MOL   H43842606   7.688   6.022   4.418 -0.3565  0.1599 -0.6530
   85MOL   H43942607   7.572   6.163   4.203  1.7688  1.4266 -0.2225
   85MOL   H44042608   7.516   6.009   4.257 -3.1906  2.3892 -0.3780
   85MOL   H44142609   7.630   6.089   3.977 -0.4080 -0.0218 -1.0001
   85MOL   H44242610   7.464   6.106   4.012  0.8034 -0.2582 -1.8540
   85MOL   H44342611   7.630   5.843   3.994  0.6115  1.2063  0.6737
   85MOL   H44442612   7.465   5.831   4.034  1.4235 -2.5404  0.0009
   85MOL   H44542613   7.412   5.943   3.807 -1.8840 -1.8897  0.6968
   85MOL   H44642614   7.591   5.924   3.777  0.2828 -1.7295 -0.7722
   85MOL   H44742615   7.541   5.674   3.819 -0.5136 -1.2220 -0.1909
   85MOL   H44842616   7.370   5.720   3.848 -1.0414  3.8445 -1.0969
   85MOL   H44942617   7.374   5.632   3.624  0.6988  0.4072  0.5205
   85MOL   H45042618   7.389   5.807   3.592 -0.6000  0.2592  0.8852
   85MOL   H45142619   7.527   5.711   3.577  1.4474  2.4730  0.5485
   85MOL   C45242620   0.055   5.871   4.376 -0.5872  0.0854 -0.7623
   85MOL   C45342621   7.746   5.756   4.342 -0.1778 -0.8033  0.5299
   85MOL   O45442622   7.624   5.768   4.422  0.5721 -0.2052  0.0886
   85MOL   C45542623   7.513   5.701   4.368 -0.2209  0.2640  0.5787
   85MOL   C45642624   7.405   5.707   4.481  0.4660  0.2233  0.3281
   85MOL   C45742625   7.338   5.843   4.480 -0.4165  0.3893 -0.4833
   85MOL   C45842626   7.307   5.901   4.624 -0.6514 -0.1089  0.6913
   85MOL   C45942627   7.240   6.037   4.624 -0.2209 -0.8765 -0.1254
   85MOL   C46042628   7.334   6.155   4.572  0.0054  0.0628  0.3447
   85MOL   H46142629   0.150   5.864   4.323  0.4565 -1.2642  1.2245
   85MOL   H46242630   0.081   5.880   4.481 -2.2890 -0.3454 -0.2946
   85MOL   H46342631   7.721   5.758   4.236  0.4544  0.5474  0.3960
   85MOL   H46442632   7.536   5.597   4.346 -1.1079 -0.0602  1.1278
   85MOL   H46542633   7.477   5.749   4.277 -0.0285  1.0808  0.9345
   85MOL   H46642634   7.459   5.681   4.572  1.0053  0.5013  0.0899
   85MOL   H46742635   7.325   5.633   4.474  0.7253  0.1552 -2.3960
   85MOL   H46842636   7.410   5.911   4.435 -0.0361  0.5264  0.3261
   85MOL   H46942637   7.245   5.845   4.423 -0.6817  1.5470 -0.0038
   85MOL   H47042638   7.232   5.838   4.671 -2.2607  0.6721 -0.7741
   85MOL   H47142639   7.398   5.913   4.683 -0.3833  2.5722 -0.2121
   85MOL   H47242640   7.149   6.024   4.564 -0.7862 -1.6944  0.8913
   85MOL   H47342641   7.207   6.065   4.724  2.9065  1.2509  0.3927
   85MOL   H47442642   7.410   6.173   4.647 -0.4162 -2.8377  1.5573
   85MOL   H47542643   7.370   6.141   4.470 -0.1084  2.2618 -0.0080
   85MOL   H47642644   7.288   6.253   4.560 -2.4615 -1.0965 -0.0412
   85MOL   C47742645   0.032   5.619   4.362  0.2032 -0.6612 -0.3355
   85MOL   C47842646   0.141   5.593   4.252  0.1406  0.3088 -0.3582
   85MOL   O47942647   0.208   5.468   4.272  0.1499 -0.4639  0.4309
   85MOL   C48042648   0.283   5.437   4.158  0.0704  0.3300  0.2750
   85MOL   C48142649   0.375   5.307   4.182 -0.3480  0.1070  0.2143
   85MOL   C48242650   0.285   5.201   4.240  0.1087 -0.5370  0.4147
   85MOL   C48342651   0.357   5.073   4.263 -0.2031  0.0591 -0.0429
   85MOL   C48442652   0.272   4.959   4.330 -0.3594  0.4157  0.8143
   85MOL   C48542653   0.362   4.832   4.354  0.4595 -0.6366 -0.0622
   85MOL   H48642654   0.073   5.601   4.461 -2.6854  2.3939  1.5178
   85MOL   H48742655   7.732   5.543   4.351 -1.2998  0.8818 -0.4742
   85MOL   H48842656   0.097   5.599   4.152  2.3782  1.5608 -1.3001
   85MOL   H48942657   0.345   5.514   4.112 -0.8450  0.9485  0.0631
   85MOL   H49042658   0.209   5.422   4.080  0.9664 -2.4177 -0.0828
   85MOL   H49142659   0.460   5.333   4.245  1.0579 -1.1256 -1.1113
   85MOL   H49242660   0.424   5.282   4.087 -2.4905 -0.4369 -0.7796
   85MOL   H49342661   0.241   5.228   4.336 -1.2089 -3.0287  0.5480
   85MOL   H49442662   0.201   5.179   4.175  1.6380 -1.0020 -1.4543
   85MOL   H49542663   0.411   5.043   4.173 -2.1498  1.5183 -1.7337
   85MOL   H49642664   0.436   5.096   4.335  0.2665  0.7129 -0.7534
   85MOL   H49742665   0.237   4.992   4.427 -1.6346  3.7775 -0.7349
   85MOL   H49842666   0.188   4.937   4.263 -1.5357 -0.8259  2.6546
   85MOL   H49942667   0.430   4.841   4.439  1.5708 -0.8947 -0.9175
   85MOL   H50042668   0.292   4.758   4.392  0.5536  1.0172  3.5883
   85MOL   H50142669   0.412   4.795   4.265 -0.5915 -0.7595 -0.6053
   85MOL   H50242670   0.218   5.669   4.267 -0.5185  0.9794 -0.3389
   86MOL     C142671   1.015   5.328   0.536  0.2595  0.2093  0.9275
   86MOL     C242672   0.908   5.377   0.437  0.4397 -0.0145 -0.1707
   86MOL     O342673   0.791   5.304   0.457  0.0537 -0.5450 -0.5090
   86MOL     C442674   0.718   5.342   0.574  0.0199  0.2842  0.3267
   86MOL     C542675   0.627   5.463   0.559 -0.2608 -0.3560  0.0234
   86MOL     C642676   0.522   5.433   0.458  0.6654 -1.0475 -1.0409
   86MOL     C742677   0.438   5.561   0.438 -0.1350 -0.1646  0.4252
   86MOL     C842678   0.291   5.544   0.389 -0.3193 -0.7001  0.4626
   86MOL     C942679   0.239   5.683   0.344 -0.0177  0.1686  0.2190
   86MOL    H1042680   1.044   5.223   0.529  1.0618  0.5392 -0.8090
   86MOL    H1142681   1.111   5.370   0.507 -0.0089 -0.8293 -1.6439
   86MOL    H1242682   0.896   5.483   0.455 -0.8336 -0.7510  3.9204
   86MOL    H1342683   0.787   5.349   0.658  1.0839 -1.8976 -0.3286
   86MOL    H1442684   0.653   5.257   0.597  2.6662 -1.1153  3.0766
   86MOL    H1542685   0.684   5.549   0.524 -1.1600  0.7415  1.1971
   86MOL    H1642686   0.581   5.474   0.657  0.1006 -0.4959  0.2113
   86MOL    H1742687   0.566   5.405   0.362 -0.5868 -1.5702 -1.4629
   86MOL    H1842688   0.464   5.348   0.492 -2.6867  0.8209 -1.8348
   86MOL    H1942689   0.432   5.627   0.526  2.2155  0.1352  0.3829
   86MOL    H2042690   0.501   5.621   0.373 -0.8251  1.3840  1.1520
   86MOL    H2142691   0.224   5.513   0.470 -1.2165  2.6180  1.0710
   86MOL    H2242692   0.297   5.471   0.308  3.1074 -0.0721  0.0666
   86MOL    H2342693   0.276   5.708   0.245  1.7894  0.0854  0.8600
   86MOL    H2442694   0.132   5.696   0.328  0.3210  0.5862 -1.8171
   86MOL    H2542695   0.263   5.759   0.419 -0.2887  0.7202 -0.2483
   86MOL    H2642696   0.993   5.346   0.641  0.7876  0.1609  1.0463
   86MOL    C2742697   0.938   5.345   0.297  0.0487 -0.3544  0.0080
   86MOL    C2842698   0.837   5.414   0.196 -0.2951  0.6098 -0.2296
   86MOL    O2942699   0.875   5.549   0.201  0.3545 -0.5969 -0.1601
   86MOL    C3042700   0.776   5.648   0.184 -0.3795 -0.2756 -0.1746
   86MOL    C3142701   0.821   5.781   0.247  0.4005 -0.2085  0.4011
   86MOL    C3242702   0.712   5.894   0.228  0.7095 -0.3764  0.3764
   86MOL    C3342703   0.751   6.027   0.299  0.3312 -0.0893  0.1668
   86MOL    C3442704   0.646   6.138   0.267 -0.1296  0.0998 -0.2355
   86MOL    C3542705   0.690   6.282   0.289 -0.0085  0.1737 -0.7141
   86MOL    H3642706   1.036   5.386   0.271 -0.5958  0.5162 -1.1029
   86MOL    H3742707   0.947   5.237   0.291  1.7751 -0.2485  0.3332
   86MOL    H3842708   0.735   5.393   0.230  0.0554 -0.3793  0.2345
   86MOL    H3942709   0.684   5.607   0.226  0.4926  0.8553  2.9708
   86MOL    H4042710   0.772   5.664   0.077 -0.6123 -2.3397 -0.5049
   86MOL    H4142711   0.912   5.818   0.200  1.6276 -1.5039  1.6880
   86MOL    H4242712   0.845   5.772   0.353  0.5820 -1.0717  0.2885
   86MOL    H4342713   0.695   5.921   0.124  0.9554  0.0409  0.4400
   86MOL    H4442714   0.624   5.856   0.280  0.7056 -1.4328 -0.3799
   86MOL    H4542715   0.760   6.013   0.407  1.5423 -0.3334  0.0480
   86MOL    H4642716   0.852   6.058   0.270 -0.0269  3.3180  2.2993
   86MOL    H4742717   0.607   6.125   0.166 -0.5302 -2.5810  0.2379
   86MOL    H4842718   0.557   6.123   0.329 -0.4074  0.9031 -0.4356
   86MOL    H4942719   0.787   6.311   0.248  1.9486 -0.9616  2.9018
   86MOL    H5042720   0.613   6.339   0.237  0.6240  2.0731  0.3881
   86MOL    H5142721   0.679   6.324   0.389 -1.2107  1.4178 -1.3456
   86MOL    C5242722   0.852   5.346   0.058 -0.1494  0.2050 -1.0145
   86MOL    C5342723   0.780   5.213   0.047  0.0237  0.3105  0.3097
   86MOL    O5442724   0.637   5.231   0.040 -0.2538  0.3208  0.2701
   86MOL    C5542725   0.560   5.163   0.138 -0.2045 -0.6239  0.7929
   86MOL    C5642726   0.411   5.209   0.121  0.0751  0.5190  0.0484
   86MOL    C5742727   0.319   5.167   0.237  0.2680  0.3607  0.2000
   86MOL    C5842728   0.169   5.202   0.206  0.0834 -0.0160  0.2663
   86MOL    C5942729   0.090   5.205   0.332  0.1061 -0.5327  0.0098
   86MOL    C6042730   7.739   5.279   0.318  1.2427 -0.2801  1.0075
   86MOL    H6142731   0.959   5.324   0.048 -0.0815 -0.1405  0.3293
   86MOL    H6242732   0.812   5.411   7.758  0.4942  1.6972 -0.1209
   86MOL    H6342733   0.808   5.163   0.140 -1.3547 -0.5083  0.2967
   86MOL    H6442734   0.610   5.192   0.230 -0.5939 -0.5326  0.9753
   86MOL    H6542735   0.565   5.054   0.127 -0.2444 -0.4708 -0.9172
   86MOL    H6642736   0.375   5.179   0.023 -0.3870 -0.4683  0.5194
   86MOL    H6742737   0.411   5.318   0.118 -1.6365  0.5116 -2.5587
   86MOL    H6842738   0.322   5.060   0.258 -1.6421  0.2479 -0.0054
   86MOL    H6942739   0.354   5.220   0.325  2.5245 -0.6359 -0.0518
   86MOL    H7042740   0.172   5.300   0.159 -0.6418  0.3463  0.9705
   86MOL    H7142741   0.118   5.131   0.141  3.0233 -2.9977  1.0954
   86MOL    H7242742   0.071   5.106   0.373 -0.7040 -0.0393  0.8599
   86MOL    H7342743   0.144   5.251   0.415 -2.6996  2.9774  0.0185
   86MOL    H7442744   7.675   5.229   0.244 -1.4279  2.1739  1.6061
   86MOL    H7542745   7.681   5.288   0.410  0.4939  1.7048  0.3701
   86MOL    H7642746   7.752   5.378   0.275  1.5533 -0.5278  0.5164
   86MOL    C7742747   0.820   5.125   7.700  0.0924 -0.5822 -0.6853
   86MOL    C7842748   0.955   5.055   7.715  0.2655  0.4167 -0.6028
   86MOL    O7942749   1.002   5.032   7.582 -0.6956  0.3172 -0.5614
   86MOL    C8042750   1.089   5.129   7.534  0.8297 -0.4720  0.2016
   86MOL    C8142751   1.101   5.125   7.379  0.4189  0.3582  0.2241
   86MOL    C8242752   0.980   5.194   7.317  0.0004 -0.4831 -0.3794
   86MOL    C8342753   0.949   5.174   7.174  0.2246  0.1231 -0.1976
   86MOL    C8442754   0.830   5.262   7.119 -0.1348 -0.1689 -0.5065
   86MOL    C8542755   0.846   5.408   7.111 -0.0620  0.4964 -0.0425
   86MOL    H8642756   0.813   5.182   7.607  0.2322 -2.3918 -1.8425
   86MOL    H8742757   0.739   5.053   7.685 -2.7635  2.3681  0.2052
   86MOL    H8842758   1.020   5.113   0.004  1.7008 -0.3731 -1.3118
   86MOL    H8942759   1.183   5.113   7.586  0.0346 -0.3969  1.6897
   86MOL    H9042760   1.058   5.233   7.543 -1.2610 -0.9709 -0.8115
   86MOL    H9142761   1.099   5.021   7.349 -4.1185 -0.4184  2.6797
   86MOL    H9242762   1.185   5.179   7.335 -0.3534  0.4767 -1.1224
   86MOL    H9342763   0.895   5.177   7.383 -1.3599  4.1258 -0.7769
   86MOL    H9442764   0.987   5.302   7.323 -0.7308 -0.4942  0.8488
   86MOL    H9542765   1.044   5.187   7.121  2.1278 -0.8551  2.8733
   86MOL    H9642766   0.921   5.069   7.171 -0.9026  0.2139  4.0638
   86MOL    H9742767   0.796   5.224   7.023  0.8270  0.8516 -1.2707
   86MOL    H9842768   0.750   5.239   7.189  1.0563  0.4847  1.1205
   86MOL    H9942769   0.840   5.455   7.209 -1.3960  0.4850 -0.1079
   86MOL   H10042770   0.930   5.437   7.048 -1.0090  1.6665 -0.8041
   86MOL   H10142771   0.760   5.434   7.048  1.0240  1.0528 -1.3140
   86MOL   C10242772   0.952   4.919   0.019  0.8604  0.0540  0.2214
   86MOL   C10342773   1.094   4.867   0.038 -0.2582  0.0400  0.4245
   86MOL   O10442774   1.117   4.841   0.171 -0.7838  0.3752 -0.3828
   86MOL   C10542775   1.139   4.953   0.250 -0.4399 -0.5638 -0.4404
   86MOL   C10642776   1.168   4.915   0.398 -0.4852 -0.0886  0.2427
   86MOL   C10742777   1.044   4.851   0.467  0.0505  0.5814 -0.2776
   86MOL   C10842778   0.935   4.945   0.513 -0.1761  0.0638  0.2974
   86MOL   C10942779   0.801   4.873   0.563 -0.0120  0.2139  0.2607
   86MOL   C11042780   0.683   4.975   0.585 -0.2918 -0.1055  0.3122
   86MOL   H11142781   0.906   4.927   0.117 -2.2014 -3.8352 -0.7759
   86MOL   H11242782   0.891   4.850   7.738  0.6799  0.3522  0.0548
   86MOL   H11342783   1.162   4.941   7.773 -0.5000 -0.5248 -0.9999
   86MOL   H11442784   1.049   5.015   0.256 -0.7974 -1.2401  1.7456
   86MOL   H11542785   1.223   5.009   0.209 -0.0503 -0.5604  0.3545
   86MOL   H11642786   1.201   5.002   0.454  1.2894 -1.8367  1.9661
   86MOL   H11742787   1.257   4.852   0.397 -0.9912 -0.7928 -1.6735
   86MOL   H11842788   1.011   4.777   0.394  1.7287 -4.2204  3.6106
   86MOL   H11942789   1.077   4.795   0.554  1.6272  1.7961 -0.0566
   86MOL   H12042790   0.975   5.017   0.585 -2.5866  0.2745  1.4784
   86MOL   H12142791   0.904   5.005   0.428 -1.2731 -0.0262  0.6290
   86MOL   H12242792   0.779   4.801   0.485  2.4491 -1.1194  0.7763
   86MOL   H12342793   0.814   4.807   0.648  1.7519 -0.7553 -0.7572
   86MOL   H12442794   0.592   4.915   0.592  0.6806 -1.4013  1.8719
   86MOL   H12542795   0.690   5.038   0.674 -1.0211  1.3231 -0.6243
   86MOL   H12642796   0.681   5.034   0.493  0.4899 -0.0467  0.3286
   86MOL   C12742797   1.120   4.738   7.736 -0.2934 -0.3560  0.4062
   86MOL   C12842798   1.263   4.715   7.693 -0.3509 -0.4848 -1.2815
   86MOL   O12942799   1.304   4.806   7.594  0.2340 -0.3210 -0.3385
   86MOL   C13042800   1.422   4.884   7.619 -0.6932 -0.2255  0.0028
   86MOL   C13142801   1.463   4.945   7.475 -0.6750  0.0687  0.1593
   86MOL   C13242802   1.597   5.012   7.475  0.5206 -0.1863 -0.5255
   86MOL   C13342803   1.635   5.092   7.352  0.0080  0.1628  0.2598
   86MOL   C13442804   1.759   5.178   7.384  0.5718 -0.7175 -0.0494
   86MOL   C13542805   1.772   5.304   7.298 -0.4516  0.0426  0.3029
   86MOL   H13642806   1.090   4.658   0.026 -2.2615  0.3557  0.4004
   86MOL   H13742807   1.058   4.726   7.647 -2.5628  1.5371  1.7001
   86MOL   H13842808   1.323   4.726   0.007  0.0357 -3.8132 -1.0690
   86MOL   H13942809   1.496   4.814   7.655 -0.5601  1.2147  2.7538
   86MOL   H14042810   1.408   4.969   7.687 -2.0883  2.2110 -3.2170
   86MOL   H14142811   1.387   5.015   7.439 -1.2134  0.0569  1.2472
   86MOL   H14242812   1.466   4.863   7.404  2.5259  0.1134  0.1623
   86MOL   H14342813   1.595   5.082   7.558  0.7580  0.3256 -0.9469
   86MOL   H14442814   1.687   4.951   7.484 -0.4082 -1.8357 -2.1073
   86MOL   H14542815   1.651   5.033   7.261  0.0363  0.4707  0.0650
   86MOL   H14642816   1.557   5.165   7.333 -0.9585 -1.6049 -2.9270
   86MOL   H14742817   1.764   5.218   7.485  1.6783 -0.9944  0.0114
   86MOL   H14842818   1.842   5.109   7.375 -0.0444 -1.4389 -0.2264
   86MOL   H14942819   1.691   5.373   7.321  1.2724  2.1762  0.0263
   86MOL   H15042820   1.866   5.355   7.317  0.3441 -1.4381  0.4906
   86MOL   H15142821   1.781   5.275   7.194 -1.0471 -1.9171  0.7726
   86MOL   C15242822   1.283   4.572   7.648 -0.1860  0.1551  0.3365
   86MOL   C15342823   1.426   4.527   7.618 -0.0766  0.3095  1.0136
   86MOL   O15442824   1.487   4.490   7.741  0.2227 -0.1463 -0.8984
   86MOL   C15542825   1.620   4.539   7.752 -0.2837 -0.1921 -0.4635
   86MOL   C15642826   1.692   4.475   0.096 -0.4635 -0.5855  0.4790
   86MOL   C15742827   1.688   4.322   0.081  0.6046  0.6132  0.4429
   86MOL   C15842828   1.733   4.250   0.203  0.4398 -0.8982  0.9929
   86MOL   C15942829   1.734   4.096   0.184  0.8804  0.7000  0.5856
   86MOL   C16042830   1.766   4.031   0.310 -0.0793 -0.4163 -0.2211
   86MOL   H16142831   1.247   4.498   7.719  1.1790 -0.2955  0.5792
   86MOL   H16242832   1.224   4.556   7.558  2.0558 -1.0206 -0.9551
   86MOL   H16342833   1.481   4.612   7.579 -1.0554 -0.2929 -1.7725
   86MOL   H16442834   1.628   4.647   7.765  1.6004 -0.1903 -1.5074
   86MOL   H16542835   1.683   4.522   7.665  0.2954  0.8567 -0.2608
   86MOL   H16642836   1.637   4.509   0.184  1.7568 -0.4748  1.8915
   86MOL   H16742837   1.797   4.506   0.100 -0.0270 -1.9301 -0.2476
   86MOL   H16842838   1.589   4.287   0.053  0.9271 -0.8763  1.1512
   86MOL   H16942839   1.751   4.287   7.776 -0.4317  0.2558 -0.2076
   86MOL   H17042840   1.831   4.281   0.238 -0.0606 -0.7044  2.2727
   86MOL   H17142841   1.653   4.271   0.274 -2.4583  1.9437 -2.8866
   86MOL   H17242842   1.641   4.069   0.135  1.0575 -0.7546  1.0285
   86MOL   H17342843   1.818   4.071   0.118 -0.2596  1.4348 -1.1559
   86MOL   H17442844   1.687   4.048   0.383 -1.0781  0.1834 -1.4200
   86MOL   H17542845   1.778   3.923   0.308 -2.6404 -0.7681  1.3697
   86MOL   H17642846   1.861   4.069   0.349  0.8071 -0.3927 -2.3403
   86MOL   C17742847   1.433   4.410   7.517  0.3022  0.1298 -0.5667
   86MOL   C17842848   1.574   4.357   7.471 -0.2962  0.2981 -0.2246
   86MOL   O17942849   1.569   4.229   7.410  0.2892  0.6459  0.5875
   86MOL   C18042850   1.532   4.120   7.503 -0.1916  0.3070 -0.5584
   86MOL   C18142851   1.578   3.988   7.456 -0.2000  0.2388  0.3527
   86MOL   C18242852   1.536   3.874   7.548 -0.8489  0.0831 -0.7349
   86MOL   C18342853   1.561   3.737   7.489 -0.5247  0.4278 -0.1173
   86MOL   C18442854   1.477   3.630   7.570 -0.6251 -0.0056  0.0937
   86MOL   C18542855   1.447   3.511   7.487 -0.6994  0.1940  0.0404
   86MOL   H18642856   1.377   4.333   7.570 -0.0720  0.3295 -0.6693
   86MOL   H18742857   1.371   4.428   7.430  1.2460 -2.4934 -1.8193
   86MOL   H18842858   1.649   4.336   7.547 -1.6814 -1.7735  0.6481
   86MOL   H18942859   1.428   4.114   7.533  0.2174 -1.3385  0.5961
   86MOL   H19042860   1.573   4.138   7.602 -0.0925  0.6934 -0.6687
   86MOL   H19142861   1.685   3.992   7.431 -0.1998 -0.1316  0.2940
   86MOL   H19242862   1.526   3.988   7.361 -2.6215  0.1721  1.6468
   86MOL   H19342863   1.589   3.878   7.643 -0.7587 -0.1838 -0.7731
   86MOL   H19442864   1.433   3.881   7.583 -0.3933  0.3785  0.5555
   86MOL   H19542865   1.513   3.751   7.392  1.3381 -0.3410 -1.1599
   86MOL   H19642866   1.666   3.708   7.481 -1.2703 -1.9488 -1.8564
   86MOL   H19742867   1.526   3.607   7.664 -0.0398 -2.0403 -0.6876
   86MOL   H19842868   1.378   3.667   7.599  0.2538  0.8052  2.1222
   86MOL   H19942869   1.414   3.558   7.395 -0.5131 -0.1016 -0.1800
   86MOL   H20042870   1.529   3.439   7.491 -1.0152 -0.1612  0.1314
   86MOL   H20142871   1.362   3.458   7.531  1.2182 -3.2257 -0.1462
   86MOL   C20242872   1.634   4.441   7.360 -0.9943 -0.6583  0.3162
   86MOL   C20342873   1.782   4.400   7.317 -0.2308 -0.0939 -0.2225
   86MOL   O20442874   1.857   4.421   7.439 -0.1022 -0.4780 -0.7844
   86MOL   C20542875   1.932   4.312   7.504  0.4292 -0.6191  0.3646
   86MOL   C20642876   2.011   4.384   7.613  0.7251  0.1583  0.1315
   86MOL   C20742877   2.097   4.285   7.698 -0.2264  0.6409  0.6267
   86MOL   C20842878   2.198   4.359   0.008 -0.5350 -0.4146  0.6171
   86MOL   C20942879   2.298   4.274   0.081  0.2034 -0.5295 -0.1045
   86MOL   C21042880   2.381   4.358   0.183 -0.1159  0.3706 -0.4884
   86MOL   H21142881   1.576   4.444   7.267 -1.2124 -1.1143  0.4376
   86MOL   H21242882   1.642   4.543   7.397 -1.2778 -0.3855 -0.3596
   86MOL   H21342883   1.794   4.296   7.285  0.2321  0.1326 -0.8074
   86MOL   H21442884   1.996   4.252   7.440 -0.9076 -1.0129 -0.6127
   86MOL   H21542885   1.867   4.236   7.548  1.3497 -1.2476  0.6565
   86MOL   H21642886   1.933   4.419   7.681  0.8209  2.2306 -0.7807
   86MOL   H21742887   2.066   4.462   7.560 -2.1453  0.8008 -2.0571
   86MOL   H21842888   2.038   4.229   7.771 -1.2899  0.1920 -0.5628
   86MOL   H21942889   2.155   4.217   7.637 -1.7088  2.1883 -2.5973
   86MOL   H22042890   2.253   4.427   7.719  0.0219 -2.0159 -0.5854
   86MOL   H22142891   2.142   4.411   0.086 -1.6450 -2.9504  1.5451
   86MOL   H22242892   2.239   4.194   0.126  0.9973 -0.2181  1.5059
   86MOL   H22342893   2.363   4.221   0.011  0.1188 -1.2953  0.3924
   86MOL   H22442894   2.437   4.440   0.139 -0.3203  1.5746  1.3968
   86MOL   H22542895   2.307   4.409   0.246 -0.3728 -0.3606 -0.1899
   86MOL   H22642896   2.451   4.307   0.249 -1.3043 -2.8448 -1.6187
   86MOL   C22742897   1.856   4.475   7.203  0.7363 -0.8409 -0.3032
   86MOL   C22842898   1.873   4.632   7.229 -0.1828  0.7270  0.3461
   86MOL   O22942899   1.986   4.653   7.306 -0.7214 -0.2486  0.2245
   86MOL   C23042900   1.994   4.768   7.387  0.3354  0.1517 -0.3642
   86MOL   C23142901   2.102   4.745   7.491  0.6005 -0.2148 -0.5429
   86MOL   C23242902   2.239   4.710   7.434 -1.6822 -0.0930 -0.0903
   86MOL   C23342903   2.336   4.663   7.537  0.1664  0.3319 -0.9498
   86MOL   C23442904   2.448   4.572   7.492  0.2308 -0.4794 -0.3973
   86MOL   C23542905   2.525   4.529   7.617  0.0082 -0.1650 -0.2576
   86MOL   H23642906   1.956   4.444   7.174  0.9273  1.0654 -1.7980
   86MOL   H23742907   1.792   4.451   7.119 -1.8273  0.1210  1.3280
   86MOL   H23842908   1.790   4.652   7.298 -1.1591 -3.0586  0.3650
   86MOL   H23942909   1.895   4.781   7.432 -0.3074 -0.8721 -1.4711
   86MOL   H24042910   2.012   4.860   7.332  0.6085  0.2820 -0.0585
   86MOL   H24142911   2.061   4.677   7.566  1.6022 -0.3555 -0.1214
   86MOL   H24242912   2.101   4.840   7.544  2.6562 -0.9717  0.9069
   86MOL   H24342913   2.222   4.631   7.360 -0.8326 -0.6744  0.3153
   86MOL   H24442914   2.290   4.785   7.374  0.3398 -1.0786  0.3299
   86MOL   H24542915   2.378   4.748   7.590 -0.3177 -0.2037  0.3026
   86MOL   H24642916   2.281   4.608   7.612  0.3109  0.1565 -0.9711
   86MOL   H24742917   2.406   4.493   7.430 -0.0841 -0.9162  0.3777
   86MOL   H24842918   2.523   4.623   7.431  1.1036  0.3553  1.3231
   86MOL   H24942919   2.595   4.452   7.582 -0.1255 -0.0369 -0.8060
   86MOL   H25042920   2.581   4.608   7.667 -0.4245  0.7414 -1.1977
   86MOL   H25142921   2.465   4.478   7.693  0.5338  1.2388  1.1254
   86MOL   C25242922   1.885   4.714   7.100 -0.2603  0.1337 -0.4628
   86MOL   C25342923   1.752   4.770   7.041 -0.5392 -0.3586 -0.5044
   86MOL   O25442924   1.700   4.651   6.985  0.3438  0.0893  0.1064
   86MOL   C25542925   1.571   4.633   7.031 -0.3172 -0.6364  0.0391
   86MOL   C25642926   1.509   4.496   6.982 -0.3230 -0.2200  0.1363
   86MOL   C25742927   1.356   4.486   7.005  0.2119  0.5608  0.6075
   86MOL   C25842928   1.301   4.510   7.141  0.0462  0.0222  0.1674
   86MOL   C25942929   1.160   4.450   7.172 -0.0809  1.2405 -0.5007
   86MOL   C26042930   1.113   4.471   7.317  0.5138  0.2141 -0.7316
   86MOL   H26142931   1.945   4.803   7.119 -0.1122 -0.2156  0.7704
   86MOL   H26242932   1.933   4.649   7.027 -1.8878 -1.2251 -0.3288
   86MOL   H26342933   1.702   4.810   7.130  1.1516 -0.3992  0.4867
   86MOL   H26442934   1.505   4.715   7.000  0.9256  0.1409 -0.5706
   86MOL   H26542935   1.557   4.635   7.139  0.3183  0.5517  0.1074
   86MOL   H26642936   1.554   4.422   7.049  0.9338  1.7549  1.5306
   86MOL   H26742937   1.536   4.475   6.879  1.0800  0.5619  0.3344
   86MOL   H26842938   1.305   4.549   6.931  0.0749 -0.9748 -0.6357
   86MOL   H26942939   1.321   4.387   6.975 -0.0685  0.9899 -0.5293
   86MOL   H27042940   1.370   4.468   7.214 -0.7340 -0.4230  0.6602
   86MOL   H27142941   1.297   4.618   7.157 -1.3455 -0.4631  3.5365
   86MOL   H27242942   1.091   4.483   7.095  1.7294  0.8683 -2.3151
   86MOL   H27342943   1.157   4.341   7.171 -0.6916  1.2529 -0.3477
   86MOL   H27442944   1.013   4.430   7.336  1.4087  0.0436  4.2104
   86MOL   H27542945   1.171   4.406   7.382 -0.6028  0.5250  0.5944
   86MOL   H27642946   1.141   4.571   7.348 -2.5638  0.9557 -0.1756
   86MOL   C27742947   1.763   4.879   6.937  0.2596  0.1262  0.3020
   86MOL   C27842948   1.812   5.018   6.990 -0.3796  0.2282  1.0306
   86MOL   O27942949   1.952   5.034   6.990 -0.3210  0.7172  0.2317
   86MOL   C28042950   2.018   5.105   7.095  1.1724  0.1719 -0.1068
   86MOL   C28142951   2.172   5.109   7.068 -0.0806 -0.3603  0.0495
   86MOL   C28242952   2.244   4.976   7.090 -0.1311 -0.9907 -0.3823
   86MOL   C28342953   2.396   4.993   7.072  0.9709 -0.1657 -0.4925
   86MOL   C28442954   2.475   4.867   7.062  0.4031 -0.2887  0.0185
   86MOL   C28542955   2.621   4.886   7.013 -1.1507 -0.0358 -0.3250
   86MOL   H28642956   1.840   4.855   6.864 -0.5919 -1.5305 -0.0712
   86MOL   H28742957   1.668   4.894   6.886  2.2652 -0.8876 -3.9464
   86MOL   H28842958   1.767   5.039   7.087  0.3908 -0.5444  1.5529
   86MOL   H28942959   1.992   5.072   7.195  0.0188 -1.0813 -0.7909
   86MOL   H29042960   1.988   5.209   7.082  0.3015 -0.0892 -0.2469
   86MOL   H29142961   2.215   5.181   7.137 -0.7887 -0.0932  0.2062
   86MOL   H29242962   2.187   5.144   6.966 -0.5179 -0.7048 -0.1336
   86MOL   H29342963   2.225   4.934   7.189 -1.1532 -1.7381 -0.8845
   86MOL   H29442964   2.204   4.912   7.011  0.8749 -0.3810 -1.3963
   86MOL   H29542965   2.412   5.053   6.983  0.2010 -0.6417 -0.9553
   86MOL   H29642966   2.434   5.067   7.143 -1.0994  0.0741  0.3875
   86MOL   H29742967   2.470   4.801   7.148  0.7811  1.5656  1.5163
   86MOL   H29842968   2.425   4.817   6.979 -0.9463  0.9062  0.0882
   86MOL   H29942969   2.626   4.928   6.913  0.6470  2.0878  0.6290
   86MOL   H30042970   2.668   4.951   7.087 -2.9032  0.8219  0.0698
   86MOL   H30142971   2.676   4.793   7.027 -0.9492 -0.0008 -0.8884
   86MOL   C30242972   1.759   5.132   6.897 -0.0105 -0.1628  0.0976
   86MOL   C30342973   1.618   5.183   6.928  0.0704  0.2730  0.1815
   86MOL   O30442974   1.526   5.089   6.892 -0.2438  0.6662 -0.0083
   86MOL   C30542975   1.440   5.047   6.995  0.0508 -1.0838  0.2005
   86MOL   C30642976   1.322   4.971   6.944  0.2755 -0.2694  0.8894
   86MOL   C30742977   1.234   4.927   7.060  0.4072  0.2420  0.1749
   86MOL   C30842978   1.100   4.862   7.011 -0.3677  0.0087 -1.1038
   86MOL   C30942979   1.013   4.799   7.127  0.2861 -0.2748 -0.3426
   86MOL   C31042980   0.888   4.728   7.077 -0.1962  0.2304 -0.3116
   86MOL   H31142981   1.826   5.217   6.914  0.8580 -1.0229  1.0694
   86MOL   H31242982   1.777   5.097   6.796  1.4709 -2.2298  1.0327
   86MOL   H31342983   1.608   5.200   7.036  2.5496 -0.7547  0.6058
   86MOL   H31442984   1.397   5.137   7.040  1.0690 -0.6804  0.3994
   86MOL   H31542985   1.490   4.989   7.073 -1.1279  0.6099  2.2663
   86MOL   H31642986   1.346   4.876   6.895  1.9137 -0.0840  1.2865
   86MOL   H31742987   1.265   5.035   6.878  1.1651 -1.6408 -1.2731
   86MOL   H31842988   1.285   4.862   7.132 -1.0366 -1.2252 -0.0954
   86MOL   H31942989   1.209   5.016   7.117 -0.5261  0.1626 -0.1014
   86MOL   H32042990   1.047   4.942   6.960  1.4712  1.8325 -0.2419
   86MOL   H32142991   1.118   4.784   6.938  0.7046  0.6978 -1.5819
   86MOL   H32242992   1.078   4.734   7.186  0.4829  0.8472  0.6998
   86MOL   H32342993   1.000   4.878   7.202  0.4137  0.6810 -1.3108
   86MOL   H32442994   0.806   4.727   7.150 -0.8189  0.4755 -0.9958
   86MOL   H32542995   0.854   4.786   6.991  2.1258  0.0072 -1.4181
   86MOL   H32642996   0.904   4.623   7.053 -0.9223 -0.4596  2.0253
   86MOL   C32742997   1.593   5.320   6.851  0.3309  0.6477  0.2478
   86MOL   C32842998   1.460   5.394   6.892 -1.0215  0.0942  0.0974
   86MOL   O32942999   1.459   5.385   7.034  0.4161 -0.6007  0.1648
   86MOL   C33043000   1.365   5.469   7.099 -0.6474  0.3136 -0.1759
   86MOL   C33143001   1.317   5.394   7.224 -0.2726  0.0200  0.6419
   86MOL   C33243002   1.371   5.456   7.349 -0.0617  0.2378  0.1496
   86MOL   C33343003   1.288   5.431   7.480  0.3958 -0.3573  0.4748
   86MOL   C33443004   1.329   5.527   7.601  0.5132  0.4794  0.0188
   86MOL   C33543005   1.242   5.505   7.726  0.2092 -0.3312  0.3269
   86MOL   H33643006   1.603   5.303   6.743  2.3215  3.2432 -0.0262
   86MOL   H33743007   1.673   5.387   6.882  0.2330  0.5002  0.8267
   86MOL   H33843008   1.373   5.343   6.851 -2.1133  0.7439  1.5751
   86MOL   H33943009   1.283   5.490   7.030 -2.1549 -1.7070  0.9437
   86MOL   H34043010   1.425   5.559   7.113 -0.0409 -0.2596  0.9118
   86MOL   H34143011   1.318   5.286   7.230 -1.6339  0.0099  0.8704
   86MOL   H34243012   1.209   5.407   7.227 -0.3203 -0.1422 -0.0773
   86MOL   H34343013   1.476   5.427   7.342  0.4053  1.6869  0.8527
   86MOL   H34443014   1.381   5.564   7.339  3.8189 -0.1667 -1.0276
   86MOL   H34543015   1.183   5.452   7.461  0.7698  0.9536 -0.2061
   86MOL   H34643016   1.300   5.328   7.513 -1.4244 -0.3351  1.2598
   86MOL   H34743017   1.431   5.496   7.624 -0.1560 -0.2373  2.1320
   86MOL   H34843018   1.330   5.631   7.569  0.2940  0.5822  0.3433
   86MOL   H34943019   1.136   5.528   7.729  0.4218  0.8063 -0.6667
   86MOL   H35043020   1.249   5.399   7.749 -1.9436 -0.1928  1.7369
   86MOL   H35143021   1.275   5.568   0.031 -0.4196 -0.8736  1.0026
   86MOL   C35243022   1.480   5.539   6.835 -0.4376 -0.2382 -0.4936
   86MOL   C35343023   1.416   5.579   6.701 -0.1304 -0.8238  0.0680
   86MOL   O35443024   1.500   5.506   6.607  0.3812 -0.3045 -1.0482
   86MOL   C35543025   1.416   5.411   6.540 -0.0140  0.2478  0.5849
   86MOL   C35643026   1.506   5.328   6.440  0.2861  0.1352 -0.0801
   86MOL   C35743027   1.426   5.218   6.361  0.3687  0.0734 -0.5463
   86MOL   C35843028   1.509   5.136   6.261  0.0458 -0.4158 -0.0793
   86MOL   C35943029   1.580   5.225   6.157 -0.5095 -1.1007  0.8135
   86MOL   C36043030   1.487   5.283   6.049 -0.4107  0.1100 -0.0299
   86MOL   H36143031   1.435   5.599   6.914  2.0031  1.3892 -0.2900
   86MOL   H36243032   1.582   5.576   6.835 -1.4229  2.6733  0.4400
   86MOL   H36343033   1.311   5.553   6.705 -0.4828  0.3839 -0.7457
   86MOL   H36443034   1.336   5.457   6.483 -1.0898 -1.0089  1.0562
   86MOL   H36543035   1.373   5.338   6.609 -1.0875 -0.4791 -0.8361
   86MOL   H36643036   1.587   5.279   6.493 -1.0863  0.0362  1.9889
   86MOL   H36743037   1.555   5.393   6.368 -1.2354 -0.3663 -1.6060
   86MOL   H36843038   1.394   5.152   6.442  1.7869  0.0813  0.0504
   86MOL   H36943039   1.340   5.268   6.317  0.2511  0.5658  0.2384
   86MOL   H37043040   1.587   5.080   6.313  0.5875  0.4265  0.0221
   86MOL   H37143041   1.441   5.058   6.227 -1.8551  1.6529 -1.1843
   86MOL   H37243042   1.657   5.293   6.193 -1.4888  0.5560 -0.1242
   86MOL   H37343043   1.642   5.150   6.107  0.4403  0.9355 -1.1598
   86MOL   H37443044   1.532   5.361   5.989  0.4979 -0.1729  0.2817
   86MOL   H37543045   1.444   5.203   5.989  0.5802 -0.2970 -0.1962
   86MOL   H37643046   1.406   5.330   6.104 -1.2329 -2.7283  1.3045
   86MOL   C37743047   1.447   5.729   6.658 -0.7408 -0.1824 -0.1459
   86MOL   C37843048   1.381   5.833   6.748 -0.0402  0.0690  0.2668
   86MOL   O37943049   1.476   5.862   6.856  0.4658 -0.1189  0.1611
   86MOL   C38043050   1.472   5.991   6.907  0.1593 -0.2329  0.4073
   86MOL   C38143051   1.564   6.003   7.027 -0.1324  0.9113 -0.5675
   86MOL   C38243052   1.516   5.905   7.141  0.0956  0.2775  0.0619
   86MOL   C38343053   1.625   5.871   7.245  0.1901  0.1611 -0.2561
   86MOL   C38443054   1.585   5.756   7.340 -0.9364 -0.1527  0.6813
   86MOL   C38543055   1.697   5.713   7.439  0.1963  0.6045 -1.1824
   86MOL   H38643056   1.554   5.749   6.663 -1.1967  1.9941  1.8831
   86MOL   H38743057   1.414   5.747   6.556  2.2753  0.2852 -1.0709
   86MOL   H38843058   1.373   5.929   6.696  0.0002 -0.5794 -0.9403
   86MOL   H38943059   1.373   6.031   6.926  0.5664  1.9962 -1.9246
   86MOL   H39043060   1.518   6.044   6.824 -0.1309  1.2196  1.1636
   86MOL   H39143061   1.549   6.103   7.069 -2.1646  0.8540 -1.1379
   86MOL   H39243062   1.670   5.994   7.002 -1.0778  0.4071 -4.6765
   86MOL   H39343063   1.431   5.949   7.192 -0.0111 -0.9982  1.0022
   86MOL   H39443064   1.486   5.812   7.094  0.9979 -0.3996  0.8089
   86MOL   H39543065   1.722   5.840   7.205  1.2748  1.7158  1.0995
   86MOL   H39643066   1.658   5.962   7.296 -3.1358  0.5717  1.3200
   86MOL   H39743067   1.504   5.787   7.406 -1.2145 -1.3844  0.9355
   86MOL   H39843068   1.550   5.670   7.282 -0.8938 -0.5293  1.2060
   86MOL   H39943069   1.655   5.626   7.489 -0.3601  0.2436 -2.2544
   86MOL   H40043070   1.785   5.696   7.376  0.0107  0.8739 -1.5149
   86MOL   H40143071   1.714   5.793   7.510 -1.3932 -0.4347  0.4209
   86MOL   C40243072   1.238   5.798   6.795 -0.0475 -0.4441 -0.5243
   86MOL   C40343073   1.142   5.789   6.678 -0.6177 -0.0015 -0.7116
   86MOL   O40443074   1.134   5.918   6.620 -0.1070  0.0752 -0.0738
   86MOL   C40543075   1.134   5.916   6.477  0.6301 -0.8094 -0.3945
   86MOL   C40643076   1.159   6.060   6.444 -0.2961  0.3734  0.8734
   86MOL   C40743077   1.139   6.072   6.295 -0.6043  0.0001 -0.7989
   86MOL   C40843078   1.158   6.209   6.234 -0.1097  0.4195 -0.1360
   86MOL   C40943079   1.044   6.303   6.260 -0.7454 -0.4330 -0.1897
   86MOL   C41043080   1.066   6.442   6.220  0.2692 -0.6472 -0.0928
   86MOL   H41143081   1.189   5.866   6.864  1.5490  0.8005 -0.5997
   86MOL   H41243082   1.248   5.700   6.843  1.4853 -0.4838 -0.9048
   86MOL   H41343083   1.181   5.718   6.606 -1.5216 -0.4492 -0.7659
   86MOL   H41443084   1.034   5.888   6.444  1.3709 -1.9794 -1.6990
   86MOL   H41543085   1.212   5.852   6.437  0.6931 -1.6472  1.0277
   86MOL   H41643086   1.263   6.078   6.469 -0.4458 -1.1347  2.7175
   86MOL   H41743087   1.093   6.133   6.490 -1.1594 -0.4867  1.0409
   86MOL   H41843088   1.207   6.004   6.243 -1.6110 -1.6831  0.0681
   86MOL   H41943089   1.043   6.032   6.261 -0.3553 -0.8683 -0.4853
   86MOL   H42043090   1.260   6.239   6.259  0.0731 -0.8467  0.6580
   86MOL   H42143091   1.158   6.202   6.125 -2.8640  2.3980 -0.3143
   86MOL   H42243092   0.954   6.256   6.220 -1.3437  0.8392 -0.3625
   86MOL   H42343093   1.034   6.310   6.368 -2.8841 -0.2714 -0.3655
   86MOL   H42443094   1.168   6.476   6.236  0.6211 -2.6392  2.0649
   86MOL   H42543095   1.045   6.455   6.113  0.2757  0.0750 -0.0114
   86MOL   H42643096   0.998   6.503   6.280  3.3480 -1.1278  4.0303
   86MOL   C42743097   1.002   5.750   6.730  0.1686  0.1020  0.4999
   86MOL   C42843098   0.916   5.662   6.636 -0.0080 -0.2135  0.4717
   86MOL   O42943099   0.976   5.530   6.612  0.1098 -0.6653  0.4897
   86MOL   C43043100   0.977   5.432   6.717  0.6733 -0.0107 -0.0622
   86MOL   C43143101   1.070   5.316   6.682 -1.0092  0.6862 -0.2026
   86MOL   C43243102   1.010   5.245   6.564 -0.3981  0.2252 -0.7090
   86MOL   C43343103   1.110   5.145   6.505 -0.1478 -0.9050  0.3130
   86MOL   C43443104   1.048   5.031   6.418 -0.1356 -0.0564 -0.3121
   86MOL   C43543105   1.159   4.926   6.371 -0.0727 -0.0514  0.1875
   86MOL   H43643106   1.009   5.696   6.825  2.8242 -1.5221 -0.5573
   86MOL   H43743107   0.961   5.846   6.760 -1.5397 -0.5078  0.1288
   86MOL   H43843108   0.905   5.712   6.540 -1.0448 -1.2956  0.0301
   86MOL   H43943109   0.873   5.403   6.729  0.4808  0.4759 -0.5423
   86MOL   H44043110   1.005   5.482   6.809  0.6219 -0.2567  0.0884
   86MOL   H44143111   1.065   5.251   6.769  2.3818  0.8180  0.1532
   86MOL   H44243112   1.169   5.360   6.670 -0.6933 -0.1920 -0.9243
   86MOL   H44343113   0.914   5.194   6.573  0.2289 -0.7298  0.4880
   86MOL   H44443114   0.984   5.314   6.483 -1.9003  2.0987  1.3005
   86MOL   H44543115   1.179   5.200   6.441 -2.0676  2.4181  0.9934
   86MOL   H44643116   1.155   5.093   6.590 -1.1849 -0.9878  0.8142
   86MOL   H44743117   0.976   4.969   6.471  0.1681 -1.1853 -1.1947
   86MOL   H44843118   1.003   5.077   6.331 -0.2204  3.7392  1.6350
   86MOL   H44943119   1.247   4.978   6.333 -1.2192 -0.4838 -3.1906
   86MOL   H45043120   1.192   4.854   6.445  2.4308  2.2024  1.3687
   86MOL   H45143121   1.108   4.868   6.295 -1.1793 -1.6825  2.1405
   86MOL   C45243122   0.774   5.648   6.684  0.0102 -0.2814  0.1207
   86MOL   C45343123   0.684   5.566   6.580  0.0735 -0.2677 -0.3644
   86MOL   O45443124   0.676   5.661   6.468  0.1324  0.4014 -0.1433
   86MOL   C45543125   0.660   5.604   6.340 -0.5822 -0.9990 -0.3370
   86MOL   C45643126   0.647   5.718   6.235 -0.2533 -0.0754  0.4942
   86MOL   C45743127   0.533   5.694   6.139  0.4216 -0.0014 -0.1535
   86MOL   C45843128   0.469   5.805   6.068  0.9784 -0.2679 -0.3918
   86MOL   C45943129   0.562   5.898   5.991  0.0269 -0.2568 -0.2310
   86MOL   C46043130   0.476   6.001   5.916 -0.2894  0.0999  0.1449
   86MOL   H46143131   0.765   5.602   6.783  2.2259 -0.1911  0.3862
   86MOL   H46243132   0.725   5.745   6.690  0.9169  0.1929 -0.2137
   86MOL   H46343133   0.738   5.476   6.550  1.8033  0.9852 -1.1185
   86MOL   H46443134   0.570   5.543   6.346  0.1305 -1.8297  3.3723
   86MOL   H46543135   0.744   5.536   6.325  1.1563  1.0049  0.0379
   86MOL   H46643136   0.746   5.727   6.191 -0.2175  2.3771  0.9807
   86MOL   H46743137   0.619   5.817   6.270 -0.5533 -0.3212  0.9442
   86MOL   H46843138   0.565   5.627   6.059  3.2235 -1.5422  2.1508
   86MOL   H46943139   0.444   5.649   6.182 -0.2349  0.9270 -0.5247
   86MOL   H47043140   0.392   5.762   6.005  1.2135 -1.4068  0.0747
   86MOL   H47143141   0.410   5.863   6.140  1.3344  0.9184 -1.0368
   86MOL   H47243142   0.634   5.943   6.059 -1.0220  2.5502 -0.9110
   86MOL   H47343143   0.624   5.840   5.923  1.0494  1.3327 -0.6801
   86MOL   H47443144   0.521   6.068   5.843 -0.5837 -2.4332 -2.4337
   86MOL   H47543145   0.405   5.951   5.850  0.0064  1.5831 -1.3188
   86MOL   H47643146   0.404   6.061   5.972 -1.6037 -0.8740 -0.4675
   86MOL   C47743147   0.546   5.534   6.641 -0.1904  0.5781  0.4495
   86MOL   C47843148   0.547   5.446   6.768 -1.0582 -0.3953 -0.1325
   86MOL   O47943149   0.610   5.321   6.733  0.1217  0.2378  0.1485
   86MOL   C48043150   0.516   5.228   6.679 -0.2532 -0.5385 -0.2845
   86MOL   C48143151   0.590   5.095   6.683 -0.4174 -0.3528 -0.2125
   86MOL   C48243152   0.592   5.018   6.816  0.2749  0.0179 -0.7499
   86MOL   C48343153   0.631   4.867   6.817 -0.3690 -0.0826  0.1453
   86MOL   C48443154   0.534   4.786   6.718 -0.0058  0.7081 -0.5426
   86MOL   C48543155   0.554   4.631   6.739 -0.2336 -0.2625  0.1690
   86MOL   H48643156   0.502   5.631   6.661 -1.7904 -0.0539  0.0762
   86MOL   H48743157   0.492   5.481   6.562 -0.0105 -0.0568  0.7482
   86MOL   H48843158   0.589   5.500   6.853  1.3227 -2.4257  0.0178
   86MOL   H48943159   0.504   5.256   6.575  1.9458 -0.4881 -0.5482
   86MOL   H49043160   0.421   5.226   6.732 -0.8537 -2.6284 -1.3805
   86MOL   H49143161   0.684   5.087   6.627 -0.0385 -0.2918  0.4064
   86MOL   H49243162   0.534   5.029   6.617 -0.0988  0.1646 -1.0141
   86MOL   H49343163   0.668   5.062   6.882  0.0242  0.0239 -0.4657
   86MOL   H49443164   0.497   5.020   6.870 -0.2559 -2.0430 -1.5646
   86MOL   H49543165   0.730   4.865   6.770 -1.0720 -2.0934 -1.3331
   86MOL   H49643166   0.630   4.814   6.912 -3.7623 -1.9275 -0.8378
   86MOL   H49743167   0.431   4.822   6.713  0.0192  0.6187 -1.9061
   86MOL   H49843168   0.563   4.800   6.613  0.8466 -0.5242 -0.4800
   86MOL   H49943169   0.503   4.605   6.832 -0.0276 -0.3345  0.2606
   86MOL   H50043170   0.505   4.587   6.652  0.6255 -1.1539  0.1274
   86MOL   H50143171   0.659   4.604   6.746 -0.5350 -0.7524  3.3762
   86MOL   H50243172   0.447   5.418   6.799 -0.5413 -1.4826  0.5842
   87MOL     C143173   5.108   4.709   3.531  0.1764 -0.0798  0.0287
   87MOL     C243174   5.179   4.579   3.479  0.3820  0.3057 -0.2765
   87MOL     O343175   5.166   4.481   3.584 -0.2140  0.0052  0.3628
   87MOL     C443176   5.036   4.439   3.624  0.1846  0.5774  0.4516
   87MOL     C543177   5.055   4.352   3.753 -0.3409  0.0356  0.1125
   87MOL     C643178   4.926   4.322   3.831  0.3526  0.0808  0.3958
   87MOL     C743179   4.963   4.241   3.958 -1.1633  0.3514 -0.0979
   87MOL     C843180   5.023   4.098   3.933 -0.0149 -0.3223  0.3913
   87MOL     C943181   4.910   3.998   3.913  0.3897  0.3380  0.0673
   87MOL    H1043182   5.141   4.798   3.477  0.9245 -0.0169  0.5887
   87MOL    H1143183   4.999   4.705   3.526  0.0462  2.0367  0.4378
   87MOL    H1243184   5.134   4.541   3.387  0.6234  0.0800 -0.3031
   87MOL    H1343185   4.980   4.384   3.549  1.3594  0.7771 -0.5914
   87MOL    H1443186   4.966   4.518   3.654  0.3116  0.3151  1.4593
   87MOL    H1543187   5.124   4.403   3.820  0.1835  2.2773 -2.0710
   87MOL    H1643188   5.110   4.264   3.721  0.0033 -0.0602  0.9734
   87MOL    H1743189   4.881   4.414   3.867 -0.2959 -0.7027  1.6232
   87MOL    H1843190   4.862   4.257   3.770  0.6312  1.2372 -1.1509
   87MOL    H1943191   5.027   4.303   4.022  0.2821 -0.0829 -1.1154
   87MOL    H2043192   4.871   4.228   4.015  0.5960 -0.1035  2.7399
   87MOL    H2143193   5.091   4.080   4.017  0.8985 -0.9217 -0.4579
   87MOL    H2243194   5.083   4.092   3.842  0.9958 -1.0074  1.0787
   87MOL    H2343195   4.831   3.995   3.988 -0.5756  0.7167 -0.9184
   87MOL    H2443196   4.865   4.009   3.815  1.4298  0.6857 -0.3770
   87MOL    H2543197   4.947   3.895   3.907 -0.9060 -0.0264 -2.0418
   87MOL    H2643198   5.139   4.738   3.631 -0.5192  2.5809 -0.4731
   87MOL    C2743199   5.327   4.606   3.455  0.3862 -0.0128  0.2120
   87MOL    C2843200   5.404   4.513   3.355 -0.4730  0.1067 -0.1289
   87MOL    O2943201   5.531   4.570   3.330 -0.1316  0.1037 -0.2818
   87MOL    C3043202   5.583   4.536   3.203 -0.4634 -0.0795  0.7797
   87MOL    C3143203   5.710   4.620   3.194 -1.0940  0.2480 -0.4603
   87MOL    C3243204   5.813   4.592   3.305  0.2460  0.2960 -0.3534
   87MOL    C3343205   5.939   4.665   3.269 -0.6908  0.4276 -0.0108
   87MOL    C3443206   6.046   4.684   3.379 -0.7016  0.0416 -0.4788
   87MOL    C3543207   6.145   4.800   3.329  0.2410 -0.0047 -0.8620
   87MOL    H3643208   5.345   4.706   3.415 -1.5083  0.2196 -0.0758
   87MOL    H3743209   5.373   4.601   3.553  0.7970 -1.0465 -0.0337
   87MOL    H3843210   5.351   4.499   3.261  0.8494 -0.9097 -0.7402
   87MOL    H3943211   5.522   4.559   3.115 -0.9320  0.0392  1.1347
   87MOL    H4043212   5.619   4.434   3.188  2.0196  0.9675 -0.5898
   87MOL    H4143213   5.677   4.724   3.195 -0.7314  0.3696  2.5716
   87MOL    H4243214   5.752   4.589   3.098  1.3131 -1.8814  1.2097
   87MOL    H4343215   5.777   4.618   3.404  0.9993 -0.4048  0.1121
   87MOL    H4443216   5.841   4.487   3.310 -1.1569 -0.1627 -1.8848
   87MOL    H4543217   5.989   4.599   3.197 -0.3594  1.6907 -0.9559
   87MOL    H4643218   5.903   4.758   3.226  2.0377  1.8178  0.5803
   87MOL    H4743219   5.988   4.707   3.468 -0.2901 -1.2243  0.1305
   87MOL    H4843220   6.103   4.594   3.403 -0.9564  0.5223  2.1504
   87MOL    H4943221   6.094   4.896   3.340 -1.9305 -1.2069 -0.0690
   87MOL    H5043222   6.229   4.775   3.393 -0.4373 -1.6311 -0.5570
   87MOL    H5143223   6.193   4.794   3.232  0.4069  2.2613 -0.9343
   87MOL    C5243224   5.408   4.374   3.411  0.9682  0.2780  0.5700
   87MOL    C5343225   5.505   4.344   3.524 -0.3269 -0.2565 -0.0635
   87MOL    O5443226   5.437   4.254   3.615 -1.0273 -0.0503 -0.2967
   87MOL    C5543227   5.418   4.320   3.736 -0.2163 -0.3074 -0.6616
   87MOL    C5643228   5.382   4.225   3.853 -0.2382 -0.0733 -0.0332
   87MOL    C5743229   5.505   4.149   3.911  0.3864 -0.3158 -0.1466
   87MOL    C5843230   5.458   4.054   4.016 -0.1057 -0.5419 -0.2261
   87MOL    C5943231   5.424   4.103   4.156  0.3706  0.0428  0.7949
   87MOL    C6043232   5.386   3.989   4.251  0.1066  0.5637  0.4107
   87MOL    H6143233   5.424   4.311   3.324  0.9773  1.5189 -0.3504
   87MOL    H6243234   5.307   4.340   3.438  0.7373 -1.0776 -1.9146
   87MOL    H6343235   5.534   4.438   3.571 -0.0916 -0.0428 -0.6325
   87MOL    H6443236   5.346   4.398   3.711  0.1715  0.0522 -0.6517
   87MOL    H6543237   5.507   4.374   3.767 -0.6067  0.9702 -1.7106
   87MOL    H6643238   5.302   4.158   3.823 -0.7625  0.2161  0.6844
   87MOL    H6743239   5.341   4.286   3.934 -0.0569  0.2147 -0.1583
   87MOL    H6843240   5.550   4.084   3.837  0.1051  1.4318 -1.9100
   87MOL    H6943241   5.589   4.211   3.944 -1.6233  2.6310 -0.3237
   87MOL    H7043242   5.373   4.000   3.974  0.4864  0.6357 -3.0851
   87MOL    H7143243   5.546   3.989   4.022  2.5433  2.9536  0.2030
   87MOL    H7243244   5.508   4.148   4.209  0.8204 -1.5556  1.4582
   87MOL    H7343245   5.343   4.175   4.147  0.5990  0.4290  1.7376
   87MOL    H7443246   5.369   4.031   4.350  0.2487  2.2102 -0.2559
   87MOL    H7543247   5.291   3.947   4.217  2.0073 -2.2683 -1.6056
   87MOL    H7643248   5.453   3.902   4.251 -1.1807 -0.4466 -0.1169
   87MOL    C7743249   5.624   4.262   3.468  0.1935  0.8057 -0.7145
   87MOL    C7843250   5.748   4.259   3.564  0.1470  0.3763 -0.1023
   87MOL    O7943251   5.818   4.379   3.563  0.0244 -0.3820  0.8819
   87MOL    C8043252   5.834   4.441   3.689 -0.5158  0.1650  0.7644
   87MOL    C8143253   5.901   4.576   3.679 -0.3767  0.5362  0.4964
   87MOL    C8243254   5.891   4.657   3.811  0.4352  0.0053  0.9597
   87MOL    C8343255   5.955   4.795   3.810  0.3211  0.2050 -0.2973
   87MOL    C8443256   5.984   4.851   3.949 -0.3005 -0.1098 -0.3706
   87MOL    C8543257   5.854   4.894   4.020  0.3045 -0.0281 -0.1875
   87MOL    H8643258   5.666   4.299   3.374  0.0622  0.7748 -0.7848
   87MOL    H8743259   5.594   4.163   3.434 -0.8163  1.2465 -1.1178
   87MOL    H8843260   5.718   4.232   3.666  2.2939 -0.0290  0.4394
   87MOL    H8943261   5.900   4.376   3.747  0.6813  0.9622  0.3071
   87MOL    H9043262   5.736   4.447   3.737 -1.1257  1.1133 -0.5868
   87MOL    H9143263   5.851   4.620   3.592  2.2198 -0.0621 -1.3614
   87MOL    H9243264   6.005   4.567   3.648 -0.8791 -1.2176 -0.7209
   87MOL    H9343265   5.787   4.658   3.844  0.6972 -0.8034  1.8248
   87MOL    H9443266   5.953   4.602   3.881  2.2944  0.0785 -0.5621
   87MOL    H9543267   6.055   4.789   3.765  0.3679  0.1373 -0.1847
   87MOL    H9643268   5.906   4.873   3.753 -2.3400  0.2052  1.9122
   87MOL    H9743269   6.041   4.778   4.006  2.0084  1.2599 -0.8777
   87MOL    H9843270   6.052   4.936   3.946  0.9635 -0.9353  2.8803
   87MOL    H9943271   5.776   4.920   3.948 -1.2923  0.9883  1.8442
   87MOL   H10043272   5.815   4.814   4.083  1.2526  2.0256  3.1163
   87MOL   H10143273   5.867   4.978   4.087  0.4791  0.5145 -0.8974
   87MOL   C10243274   5.844   4.159   3.501 -0.1763  0.1636 -0.2543
   87MOL   C10343275   5.957   4.117   3.601  0.4417  0.1432 -0.2421
   87MOL   O10443276   5.892   4.044   3.710 -0.3428 -0.1126 -0.6323
   87MOL   C10543277   5.951   4.072   3.835  0.2340 -0.6324 -0.2986
   87MOL   C10643278   5.861   4.016   3.948 -0.1364  0.4163 -0.3620
   87MOL   C10743279   5.939   4.014   4.084  0.9313 -0.2990  0.1124
   87MOL   C10843280   5.851   3.992   4.205 -0.4271 -0.1527  0.3239
   87MOL   C10943281   5.920   3.996   4.345 -0.7674  0.2241 -0.6245
   87MOL   C11043282   5.819   3.980   4.455  0.3343  0.4814  0.1117
   87MOL   H11143283   5.796   4.064   3.474  0.2037 -0.0345 -0.2372
   87MOL   H11243284   5.897   4.210   3.421 -2.4284  1.9878 -0.6399
   87MOL   H11343285   6.010   4.210   3.622 -1.8348  1.6373 -0.8070
   87MOL   H11443286   5.953   4.181   3.846  1.4092 -0.4782 -1.9357
   87MOL   H11543287   6.048   4.022   3.832  0.0710 -0.9746  0.0790
   87MOL   H11643288   5.825   3.916   3.927  0.8829 -0.1653  0.6511
   87MOL   H11743289   5.770   4.076   3.944 -1.2855 -1.1302  1.6458
   87MOL   H11843290   6.019   3.941   4.080 -0.4399 -1.7481 -1.6176
   87MOL   H11943291   5.989   4.111   4.089 -0.9243  0.7836 -1.5800
   87MOL   H12043292   5.775   4.070   4.209 -1.1583 -0.7932 -0.8148
   87MOL   H12143293   5.798   3.897   4.197  1.2636 -1.2220  1.4246
   87MOL   H12243294   5.997   3.920   4.357 -0.9987 -0.0526 -0.8882
   87MOL   H12343295   5.967   4.094   4.358 -1.8660  0.4926  1.5526
   87MOL   H12443296   5.874   3.981   4.549  0.6368  1.0790 -0.0689
   87MOL   H12543297   5.757   4.070   4.446  1.2907  0.8954 -2.9470
   87MOL   H12643298   5.751   3.896   4.441 -0.9647  1.8392 -2.1940
   87MOL   C12743299   6.054   4.018   3.532  0.2787  0.1688 -0.3361
   87MOL   C12843300   6.180   4.077   3.476 -0.7630 -0.1111  0.3715
   87MOL   O12943301   6.149   4.160   3.360  0.5728  0.7300  0.7724
   87MOL   C13043302   6.190   4.292   3.386 -0.0702 -0.0977  0.4747
   87MOL   C13143303   6.190   4.375   3.263 -0.2440 -0.2587 -0.5185
   87MOL   C13243304   6.287   4.315   3.160  0.0852  0.0243 -0.2031
   87MOL   C13343305   6.298   4.412   3.031  0.3471  0.0629  0.2008
   87MOL   C13443306   6.395   4.356   2.924 -0.0890  0.1615 -0.8541
   87MOL   C13543307   6.457   4.453   2.825 -0.9173  0.8620  0.3033
   87MOL   H13643308   6.081   3.946   3.610  1.2063 -0.0121 -0.8082
   87MOL   H13743309   6.015   3.953   3.454 -0.1088  0.9865 -0.8223
   87MOL   H13843310   6.228   4.132   3.557  0.1789  0.7376 -0.7499
   87MOL   H13943311   6.294   4.307   3.414 -0.0156  1.1939 -0.3688
   87MOL   H14043312   6.124   4.329   3.465 -1.2094  1.6584 -1.2375
   87MOL   H14143313   6.216   4.480   3.276 -0.1256 -0.5162  1.3933
   87MOL   H14243314   6.094   4.393   3.215 -0.7571  2.3126  1.4027
   87MOL   H14343315   6.385   4.302   3.207  0.5678  0.1057 -1.1862
   87MOL   H14443316   6.240   4.220   3.135 -0.8833  1.2509 -3.2437
   87MOL   H14543317   6.200   4.419   2.984  0.2063  1.4177  0.6636
   87MOL   H14643318   6.331   4.514   3.052  0.5414  0.6157 -2.5244
   87MOL   H14743319   6.462   4.287   2.975 -0.1858  0.5049 -0.2440
   87MOL   H14843320   6.344   4.281   2.864  0.8391 -1.4986  0.4112
   87MOL   H14943321   6.491   4.542   2.878 -0.5907 -0.5798  2.5979
   87MOL   H15043322   6.546   4.404   2.784 -2.6586 -2.6122  0.4655
   87MOL   H15143323   6.388   4.472   2.743 -0.9328 -3.6427 -0.8581
   87MOL   C15243324   6.270   3.963   3.420 -0.0778 -0.2680  0.5057
   87MOL   C15343325   6.406   4.017   3.364 -0.1003  0.0689 -0.1387
   87MOL   O15443326   6.483   4.057   3.479 -0.4015  0.1748  0.0029
   87MOL   C15543327   6.563   4.174   3.468 -0.2032  0.0565 -0.4275
   87MOL   C15643328   6.608   4.240   3.596 -0.0796  0.1094  0.2196
   87MOL   C15743329   6.632   4.144   3.705  0.4022  0.2051  0.0052
   87MOL   C15843330   6.688   4.195   3.836 -0.0128 -0.2204  0.4726
   87MOL   C15943331   6.720   4.082   3.945 -1.2261 -0.0096  0.8190
   87MOL   C16043332   6.742   4.158   4.079  0.2304  0.5374 -0.2761
   87MOL   H16143333   6.290   3.893   3.502 -2.9716  1.6088  2.9230
   87MOL   H16243334   6.222   3.898   3.347 -0.2319  2.7342 -2.1732
   87MOL   H16343335   6.379   4.094   3.291  0.2970 -0.7831 -1.2127
   87MOL   H16443336   6.533   4.250   3.397 -1.2770 -1.8507 -2.0562
   87MOL   H16543337   6.655   4.144   3.417 -0.1168 -1.5278  0.5947
   87MOL   H16643338   6.528   4.311   3.620  0.5608  0.1572  2.3604
   87MOL   H16743339   6.696   4.303   3.579  0.3929  0.0900  2.3903
   87MOL   H16843340   6.534   4.100   3.724 -0.4337  2.6982  1.8478
   87MOL   H16943341   6.699   4.063   3.677  1.4414  0.8306  0.6461
   87MOL   H17043342   6.776   4.257   3.817  1.8288 -2.9442 -0.2400
   87MOL   H17143343   6.620   4.268   3.879 -0.4280 -0.9460  1.0464
   87MOL   H17243344   6.651   3.997   3.952 -1.7533  0.2843 -0.6211
   87MOL   H17343345   6.814   4.034   3.917  0.5142  1.5760  3.6993
   87MOL   H17443346   6.784   4.088   4.151 -2.8455  0.5860  1.6333
   87MOL   H17543347   6.813   4.239   4.062  0.0381  0.6349 -0.6213
   87MOL   H17643348   6.648   4.208   4.101  1.3401  2.6914 -0.2913
   87MOL   C17743349   6.474   3.896   3.297 -0.3501 -0.8499 -0.0274
   87MOL   C17843350   6.612   3.926   3.239 -0.4973  0.0969  0.0975
   87MOL   O17943351   6.660   3.797   3.189 -0.6619  0.5735  0.0899
   87MOL   C18043352   6.739   3.719   3.287 -0.6252  0.2967 -0.3577
   87MOL   C18143353   6.743   3.576   3.238 -0.2519 -0.0575  0.4261
   87MOL   C18243354   6.603   3.510   3.274 -0.5237 -0.2129  0.0687
   87MOL   C18343355   6.598   3.367   3.214  0.0563  0.1455  0.6945
   87MOL   C18443356   6.475   3.296   3.263 -0.4514 -0.0907  0.5134
   87MOL   C18543357   6.486   3.137   3.243 -0.5226 -0.2222 -0.3358
   87MOL   H18643358   6.477   3.812   3.365  1.4325 -0.4960  0.3686
   87MOL   H18743359   6.416   3.851   3.216  1.5447 -2.7677 -0.3551
   87MOL   H18843360   6.683   3.981   3.301  0.1883  0.6641 -1.1843
   87MOL   H18943361   6.689   3.720   3.383 -0.6186  0.9822 -0.3599
   87MOL   H19043362   6.836   3.770   3.291  0.7367 -2.1948 -0.4823
   87MOL   H19143363   6.835   3.530   3.273 -1.2758 -3.0736 -0.6528
   87MOL   H19243364   6.741   3.582   3.129 -0.4793  1.7374  0.5085
   87MOL   H19343365   6.591   3.522   3.382  2.0084  0.5336  0.2942
   87MOL   H19443366   6.522   3.567   3.228  0.2821  0.7171 -0.2175
   87MOL   H19543367   6.603   3.369   3.105  0.5093 -0.9000  0.6895
   87MOL   H19643368   6.691   3.318   3.245  0.3561  0.4432  0.2768
   87MOL   H19743369   6.465   3.313   3.371 -0.4922 -0.8694  0.6358
   87MOL   H19843370   6.383   3.330   3.217 -1.8410 -1.7774  2.0049
   87MOL   H19943371   6.402   3.080   3.282  0.4098  0.3303  2.5924
   87MOL   H20043372   6.503   3.108   3.139 -0.5764 -1.2258 -0.0642
   87MOL   H20143373   6.574   3.101   3.295 -0.0591 -0.4192 -1.2414
   87MOL   C20243374   6.601   4.015   3.110 -0.0559 -0.2980 -0.5827
   87MOL   C20343375   6.734   4.031   3.035  0.1581 -0.4660 -0.5500
   87MOL   O20443376   6.804   4.116   3.122  0.6147 -0.3946 -0.5048
   87MOL   C20543377   6.945   4.089   3.141  0.5277 -0.6171 -0.3175
   87MOL   C20643378   6.989   4.208   3.233 -0.4113  0.0898  0.6908
   87MOL   C20743379   7.146   4.197   3.243 -0.8150  0.1840  0.1889
   87MOL   C20843380   7.194   4.314   3.333 -0.0294 -0.0003 -0.0978
   87MOL   C20943381   7.339   4.337   3.320 -0.1654  0.1074 -0.3027
   87MOL   C21043382   7.391   4.416   3.200 -0.0410  0.4233 -0.4948
   87MOL   H21143383   6.536   3.970   3.035 -0.0019 -0.6406 -0.4221
   87MOL   H21243384   6.558   4.110   3.141 -2.7946 -1.3673 -1.0052
   87MOL   H21343385   6.782   3.933   3.033 -0.7628 -0.9747  1.2027
   87MOL   H21443386   6.997   4.098   3.045  2.5229 -1.3081  0.6822
   87MOL   H21543387   6.975   3.994   3.184  1.2018 -0.4469 -0.4083
   87MOL   H21643388   6.934   4.194   3.326 -0.4111 -0.1070  0.6612
   87MOL   H21743389   6.960   4.304   3.192 -0.6467 -0.0773  0.4659
   87MOL   H21843390   7.153   4.099   3.290 -2.0351  0.3407  0.7356
   87MOL   H21943391   7.198   4.204   3.147  0.3178  2.6126  0.9504
   87MOL   H22043392   7.146   4.410   3.310 -0.5144 -0.8582 -2.7750
   87MOL   H22143393   7.154   4.293   3.432 -0.9042 -0.2836 -0.5123
   87MOL   H22243394   7.359   4.391   3.412  0.0115  1.3050 -1.0411
   87MOL   H22343395   7.400   4.249   3.342 -1.4724 -0.4083  1.3637
   87MOL   H22443396   7.325   4.502   3.201 -0.9206 -0.2392 -0.4764
   87MOL   H22543397   7.498   4.436   3.212 -0.1151 -0.3307  1.6623
   87MOL   H22643398   7.366   4.358   3.111 -1.2002 -2.2692  1.5005
   87MOL   C22743399   6.734   4.090   2.895  1.0583 -0.5473 -0.0608
   87MOL   C22843400   6.687   3.990   2.782  0.2704 -0.2211 -0.0442
   87MOL   O22943401   6.556   3.947   2.810 -0.2646  0.2064  0.1541
   87MOL   C23043402   6.542   3.806   2.823  0.5845  0.4759 -0.1614
   87MOL   C23143403   6.392   3.794   2.799 -1.4010  0.2109  1.2807
   87MOL   C23243404   6.333   3.657   2.805  1.4326  0.0997 -0.2849
   87MOL   C23343405   6.379   3.569   2.684 -0.0458  0.1864  0.0677
   87MOL   C23443406   6.333   3.604   2.546 -0.3519 -0.3280  0.2984
   87MOL   C23543407   6.347   3.485   2.442 -1.1533 -0.1071 -0.7248
   87MOL   H23643408   6.684   4.186   2.889 -0.5080 -1.3907 -0.8349
   87MOL   H23743409   6.835   4.119   2.864  1.5909 -3.6038 -1.4961
   87MOL   H23843410   6.760   3.909   2.778 -0.9826 -1.4099  0.8447
   87MOL   H23943411   6.582   3.773   2.919  1.0041  0.8783 -0.1944
   87MOL   H24043412   6.594   3.750   2.745 -0.6730 -1.8713  0.6206
   87MOL   H24143413   6.386   3.820   2.693  0.0290 -0.7389  0.9441
   87MOL   H24243414   6.340   3.867   2.860 -0.5238  0.8133  1.3224
   87MOL   H24343415   6.373   3.616   2.898 -0.1292  0.4550  0.5697
   87MOL   H24443416   6.226   3.645   2.824  1.2965  0.3369 -0.8976
   87MOL   H24543417   6.488   3.572   2.677 -0.0006  1.0526  1.0339
   87MOL   H24643418   6.354   3.467   2.713 -0.1388  0.3596  0.5942
   87MOL   H24743419   6.229   3.638   2.548 -0.5428 -1.0093  2.0831
   87MOL   H24843420   6.389   3.689   2.506 -2.2118 -0.2094 -2.2076
   87MOL   H24943421   6.273   3.412   2.473 -1.0086  0.5902  1.2903
   87MOL   H25043422   6.317   3.518   2.342  1.5894  0.4273 -1.4149
   87MOL   H25143423   6.451   3.451   2.433 -0.2107  2.7295 -1.2191
   87MOL   C25243424   6.695   4.048   2.642  0.0896 -0.3728  0.1179
   87MOL   C25343425   6.819   4.016   2.555 -0.3423 -0.4159  0.8777
   87MOL   O25443426   6.913   4.077   2.638  0.1053  0.0174  0.2254
   87MOL   C25543427   7.044   4.014   2.643  0.8891 -0.3355  0.1431
   87MOL   C25643428   7.140   4.085   2.746  0.0897 -0.0577 -0.2492
   87MOL   C25743429   7.188   4.218   2.702  0.2728  0.6135 -0.3428
   87MOL   C25843430   7.265   4.292   2.814 -0.4050 -0.3732 -0.0821
   87MOL   C25943431   7.341   4.419   2.768 -0.2008 -0.9123  0.0821
   87MOL   C26043432   7.432   4.472   2.879 -0.0721  0.1950  0.5708
   87MOL   H26143433   6.603   4.023   2.589 -1.5492  0.3006  2.5240
   87MOL   H26243434   6.681   4.156   2.652  1.9818  0.0038 -1.0825
   87MOL   H26343435   6.829   3.908   2.552 -1.5469 -0.5074 -0.6653
   87MOL   H26443436   7.085   3.993   2.544 -0.3540 -0.8810 -0.2779
   87MOL   H26543437   7.014   3.919   2.688  1.6804 -0.3536  0.6241
   87MOL   H26643438   7.229   4.022   2.752  0.2489  0.2622  0.8467
   87MOL   H26743439   7.096   4.080   2.845  0.2917 -0.2198 -0.1670
   87MOL   H26843440   7.251   4.207   2.614  1.0040  0.2754  0.2211
   87MOL   H26943441   7.108   4.278   2.659  0.0826 -0.4506 -1.5163
   87MOL   H27043442   7.193   4.311   2.894 -1.1234 -1.4966 -0.4422
   87MOL   H27143443   7.339   4.223   2.854  0.7834  0.8865 -0.0591
   87MOL   H27243444   7.403   4.406   2.679 -0.5742  2.6731 -0.7866
   87MOL   H27343445   7.286   4.502   2.723  1.7463  0.1174 -0.4836
   87MOL   H27443446   7.370   4.513   2.959 -0.3603 -0.4411  0.6787
   87MOL   H27543447   7.501   4.397   2.918 -1.5503 -1.9015 -0.7537
   87MOL   H27643448   7.502   4.544   2.836  0.7548 -1.2783 -0.6407
   87MOL   C27743449   6.822   4.082   2.416 -0.6999  0.9991 -0.1497
   87MOL   C27843450   6.733   4.013   2.309 -0.0055 -0.0404 -0.5559
   87MOL   O27943451   6.606   4.059   2.354 -0.0422 -0.2094  0.3309
   87MOL   C28043452   6.496   3.985   2.303 -0.2334 -0.1821  0.4931
   87MOL   C28143453   6.372   4.020   2.379 -0.2253 -0.0840 -0.6289
   87MOL   C28243454   6.253   3.939   2.328  0.3181 -0.4850 -0.0163
   87MOL   C28343455   6.124   3.954   2.409  0.3093 -0.7840  0.2837
   87MOL   C28443456   6.022   3.850   2.379 -0.3618 -0.7234  0.1958
   87MOL   C28543457   5.967   3.852   2.234  0.0310 -0.1167  0.5162
   87MOL   H28643458   6.812   4.190   2.431  2.9083  1.4011 -0.1673
   87MOL   H28743459   6.926   4.093   2.386 -1.0361  0.7740 -1.3943
   87MOL   H28843460   6.745   3.905   2.305  1.4706  0.0790  0.3063
   87MOL   H28943461   6.505   3.878   2.323 -0.7690 -0.5834 -1.2617
   87MOL   H29043462   6.483   4.010   2.198 -2.1659 -0.0948  0.7464
   87MOL   H29143463   6.354   4.127   2.372 -0.7909 -0.1690 -0.4803
   87MOL   H29243464   6.389   4.000   2.484  0.5404 -0.6325 -0.8536
   87MOL   H29343465   6.235   3.971   2.226 -3.4156  1.5822  1.2146
   87MOL   H29443466   6.270   3.833   2.306  1.0737 -0.4511  0.4163
   87MOL   H29543467   6.138   3.946   2.517  2.8508  1.1499  0.1478
   87MOL   H29643468   6.081   4.051   2.382  0.9618 -0.6479 -0.2764
   87MOL   H29743469   6.059   3.750   2.403 -2.1700 -1.7940 -1.2562
   87MOL   H29843470   5.940   3.865   2.449 -0.4497  0.3537 -0.1285
   87MOL   H29943471   5.924   3.946   2.198 -0.8804 -1.1196 -1.0524
   87MOL   H30043472   6.034   3.822   2.154 -2.7299 -1.9147 -1.2120
   87MOL   H30143473   5.893   3.772   2.226  1.1672 -1.3162  1.7350
   87MOL   C30243474   6.771   4.063   2.171  0.3521  0.1138  0.0886
   87MOL   C30343475   6.900   3.993   2.109  0.0014 -0.3329 -0.3090
   87MOL   O30443476   6.933   4.067   1.993 -0.5841 -0.0643 -0.5827
   87MOL   C30543477   7.030   4.167   2.012 -0.0992  0.1818  0.3357
   87MOL   C30643478   7.070   4.220   1.874  0.5316  0.1622  0.8366
   87MOL   C30743479   7.188   4.315   1.884  0.3532 -0.6463 -0.3666
   87MOL   C30843480   7.323   4.243   1.896 -1.0229 -0.7659 -0.0165
   87MOL   C30943481   7.437   4.333   1.947  0.0605  0.0729 -0.1707
   87MOL   C31043482   7.574   4.266   1.928 -0.2642 -0.0587  0.1294
   87MOL   H31143483   6.690   4.054   2.099  0.0016  2.3824  0.1679
   87MOL   H31243484   6.780   4.171   2.172  1.3013  0.0427  0.6865
   87MOL   H31343485   6.979   4.005   2.182 -0.7179  0.4279  0.3553
   87MOL   H31443486   7.114   4.122   2.064 -1.0497  0.1286  1.8422
   87MOL   H31543487   6.998   4.244   2.082  0.5018 -2.2713  3.4179
   87MOL   H31643488   6.989   4.278   1.829 -0.2199  0.5764  2.6572
   87MOL   H31743489   7.090   4.141   1.802 -1.8522  1.4822 -1.3668
   87MOL   H31843490   7.197   4.389   1.805  0.6994  0.0847  0.3557
   87MOL   H31943491   7.177   4.370   1.977 -1.3197 -0.2222 -0.7953
   87MOL   H32043492   7.334   4.159   1.964  1.4983 -0.7180 -0.3050
   87MOL   H32143493   7.347   4.203   1.797 -1.7296  0.9008 -0.8932
   87MOL   H32243494   7.453   4.429   1.899  0.7094  0.3088  0.5207
   87MOL   H32343495   7.414   4.361   2.050  0.3422 -1.7594  0.4013
   87MOL   H32443496   7.579   4.170   1.981  0.4523 -0.5684 -0.8538
   87MOL   H32543497   7.598   4.250   1.823 -0.4450 -1.4424  0.2851
   87MOL   H32643498   7.656   4.318   1.976 -1.4063  0.3428  1.7104
   87MOL   C32743499   6.875   3.848   2.062  0.0055 -0.0727 -0.5917
   87MOL   C32843500   6.995   3.783   1.986 -0.2105 -0.1257 -0.8197
   87MOL   O32943501   7.109   3.799   2.059  0.1383 -0.4843  0.2547
   87MOL   C33043502   7.234   3.809   1.987  0.1596 -0.0866 -0.2616
   87MOL   C33143503   7.361   3.806   2.086  1.0569  0.2914  0.1917
   87MOL   C33243504   7.408   3.668   2.118 -0.4374 -0.5918  0.3911
   87MOL   C33343505   7.515   3.661   2.228  0.0930 -0.0694 -0.7367
   87MOL   C33443506   7.655   3.704   2.181 -0.6771  0.1036  0.1686
   87MOL   C33543507   7.767   3.693   2.280  0.4482 -0.3204 -0.3938
   87MOL   H33643508   6.790   3.834   1.995 -1.0502 -1.4635  0.9749
   87MOL   H33743509   6.848   3.779   2.143 -0.7846 -0.6366 -1.3213
   87MOL   H33843510   7.003   3.831   1.888  3.1631  1.9770  0.4056
   87MOL   H33943511   7.228   3.905   1.935 -0.1402 -1.0493 -2.0440
   87MOL   H34043512   7.244   3.738   1.905 -0.3182 -0.2199 -0.2080
   87MOL   H34143513   7.324   3.847   2.180  0.7030 -1.0211  0.6352
   87MOL   H34243514   7.441   3.871   2.049  0.6875  0.6089 -0.0465
   87MOL   H34343515   7.316   3.615   2.146 -1.8650  2.3263  1.3636
   87MOL   H34443516   7.435   3.616   2.026 -0.9385  1.7242 -1.0768
   87MOL   H34543517   7.485   3.722   2.313 -1.7617 -2.0923  0.1076
   87MOL   H34643518   7.507   3.557   2.260  2.0695 -1.0722 -3.2385
   87MOL   H34743519   7.679   3.634   2.101  2.4596  0.4600  0.7577
   87MOL   H34843520   7.654   3.800   2.129 -3.6782  0.3119  0.4789
   87MOL   H34943521   7.749   3.618   2.356  0.0688  0.2567  0.0898
   87MOL   H35043522   0.084   3.669   2.231  0.8200 -1.8303  1.0266
   87MOL   H35143523   7.777   3.792   2.325 -0.0961  0.0175 -0.9984
   87MOL   C35243524   6.970   3.630   1.974  0.2418  0.3573  0.4399
   87MOL   C35343525   6.854   3.588   1.879  0.5758 -0.6214  0.2629
   87MOL   O35443526   6.730   3.596   1.959  0.3035 -0.1251 -0.5358
   87MOL   C35543527   6.621   3.646   1.892 -0.4332 -0.2781  0.0825
   87MOL   C35643528   6.502   3.650   1.993  0.9861 -0.6653 -0.5858
   87MOL   C35743529   6.378   3.700   1.918 -0.9883 -1.1299  0.0437
   87MOL   C35843530   6.256   3.674   2.004  0.8190  0.7231 -0.0813
   87MOL   C35943531   6.209   3.526   2.014  0.2715  0.3212 -0.8662
   87MOL   C36043532   6.084   3.513   2.091  0.1095 -0.2730  0.6453
   87MOL   H36143533   7.060   3.571   1.959 -0.5235 -0.8198  0.4225
   87MOL   H36243534   6.939   3.589   2.070 -1.1278 -0.4494 -0.3410
   87MOL   H36343535   6.847   3.664   1.800  1.3463 -2.4010 -1.5522
   87MOL   H36443536   6.590   3.584   1.808 -1.1484  1.1618 -0.7369
   87MOL   H36543537   6.629   3.750   1.861 -0.1144 -0.8363 -1.7588
   87MOL   H36643538   6.538   3.713   2.074  1.1230  1.4772 -2.2557
   87MOL   H36743539   6.486   3.552   2.038  2.9623 -0.6857  0.1421
   87MOL   H36843540   6.379   3.798   1.870 -1.2935 -1.8142 -1.3833
   87MOL   H36943541   6.360   3.629   1.837 -0.5130 -1.6198  0.3623
   87MOL   H37043542   6.270   3.718   2.103 -0.3411  0.0201  0.4089
   87MOL   H37143543   6.170   3.732   1.971 -0.4643 -0.0650  1.7650
   87MOL   H37243544   6.197   3.495   1.910  3.3480 -0.3206 -1.0756
   87MOL   H37343545   6.284   3.460   2.057 -0.4827  0.8198  1.2540
   87MOL   H37443546   6.120   3.502   2.193  1.1323 -0.1130  0.2992
   87MOL   H37543547   6.016   3.598   2.077  0.6795  0.2886  1.2980
   87MOL   H37643548   6.033   3.420   2.065 -0.2217 -0.1421  0.8151
   87MOL   C37743549   6.886   3.446   1.824  0.1942  0.2841 -0.5786
   87MOL   C37843550   6.794   3.384   1.709 -0.2565 -1.0249 -0.0631
   87MOL   O37943551   6.851   3.275   1.651 -0.4068  0.5544 -0.3295
   87MOL   C38043552   6.846   3.158   1.734 -0.4312  0.4692 -0.7806
   87MOL   C38143553   6.901   3.037   1.660  0.2466  0.4664  0.1629
   87MOL   C38243554   6.820   3.016   1.536 -0.6853 -0.2520  0.3405
   87MOL   C38343555   6.877   2.904   1.447 -0.5339  0.2948 -0.4775
   87MOL   C38443556   6.783   2.868   1.331 -0.1382  0.3922 -0.2937
   87MOL   C38543557   6.823   2.733   1.270 -0.8157  0.2838  0.1189
   87MOL   H38643558   6.992   3.436   1.802  0.0176 -0.2135 -1.2189
   87MOL   H38743559   6.870   3.379   1.908 -0.0632  0.3491 -0.5751
   87MOL   H38843560   6.698   3.353   1.751 -0.1685  0.8753  1.6170
   87MOL   H38943561   6.746   3.149   1.777 -0.9222 -0.0189 -1.9738
   87MOL   H39043562   6.911   3.182   1.818 -0.6329 -0.9840 -0.2053
   87MOL   H39143563   6.903   2.947   1.721 -1.0629  0.6403  0.4644
   87MOL   H39243564   7.000   3.056   1.617 -0.6089  0.0784 -2.0158
   87MOL   H39343565   6.719   2.993   1.570 -0.5307  1.7663  2.2849
   87MOL   H39443566   6.811   3.107   1.476  3.0723  0.2762  0.4444
   87MOL   H39543567   6.971   2.941   1.406  1.3444 -2.6500  0.9025
   87MOL   H39643568   6.890   2.813   1.507 -0.9352  0.7490  0.3049
   87MOL   H39743569   6.685   2.858   1.378 -0.2750  0.0933 -0.6328
   87MOL   H39843570   6.767   2.943   1.254  0.7068  1.1519  0.2703
   87MOL   H39943571   6.740   2.664   1.257 -0.6734  0.4691 -2.0112
   87MOL   H40043572   6.870   2.754   1.174 -0.7146  1.2744  0.3814
   87MOL   H40143573   6.903   2.678   1.320 -1.8674  0.8515  2.4838
   87MOL   C40243574   6.780   3.479   1.587 -0.2493 -0.2821 -0.0000
   87MOL   C40343575   6.700   3.432   1.467  0.2276 -0.7796  0.5979
   87MOL   O40443576   6.711   3.536   1.364  0.3189 -0.1365 -0.3066
   87MOL   C40543577   6.821   3.503   1.279  0.5059  0.3239 -0.1027
   87MOL   C40643578   6.842   3.619   1.183  0.2537 -0.9731 -0.0156
   87MOL   C40743579   6.942   3.594   1.067  1.2896 -0.3008  0.2914
   87MOL   C40843580   6.936   3.712   0.968 -0.0766  0.2973 -0.2009
   87MOL   C40943581   7.024   3.692   0.853  0.0404  0.7267  0.2358
   87MOL   C41043582   7.051   3.821   0.775  0.3794 -1.0116 -0.7563
   87MOL   H41143583   6.878   3.516   1.559  0.2589 -0.6265  1.2952
   87MOL   H41243584   6.728   3.569   1.623 -0.6070  0.0434 -1.3186
   87MOL   H41343585   6.725   3.334   1.428  1.2653  0.4886 -2.0421
   87MOL   H41443586   6.808   3.411   1.222  3.6152 -0.6984  0.7371
   87MOL   H41543587   6.908   3.491   1.344 -2.6144 -0.8154  4.0292
   87MOL   H41643588   6.875   3.707   1.237 -0.2607 -1.1820  0.6345
   87MOL   H41743589   6.747   3.659   1.148  0.1680 -0.8953  0.3041
   87MOL   H41843590   7.043   3.582   1.107  1.6249  1.4728  0.0248
   87MOL   H41943591   6.922   3.499   1.018 -3.3931  0.2839  0.8899
   87MOL   H42043592   6.834   3.739   0.940  0.4669  4.2288  1.2847
   87MOL   H42143593   6.965   3.804   1.019  2.2173 -0.0219 -0.8886
   87MOL   H42243594   7.116   3.647   0.889 -0.0390  1.1370  0.9573
   87MOL   H42343595   6.979   3.624   0.781  1.3734 -0.3964  0.4340
   87MOL   H42443596   7.108   3.805   0.683 -0.3056  0.4100 -1.4434
   87MOL   H42543597   6.960   3.875   0.752  0.8507 -0.2032 -0.7350
   87MOL   H42643598   7.126   3.883   0.824 -1.0871  1.9445 -2.1235
   87MOL   C42743599   6.554   3.424   1.495  0.0184 -0.2835 -0.0777
   87MOL   C42843600   6.481   3.323   1.405  0.1567  0.0383  0.2708
   87MOL   O42943601   6.353   3.294   1.455  0.0423  0.2171 -0.3777
   87MOL   C43043602   6.348   3.203   1.571 -0.2968  0.2116 -0.3099
   87MOL   C43143603   6.218   3.225   1.646 -1.1474  0.1590 -0.4971
   87MOL   C43243604   6.190   3.119   1.747  1.0133  0.4740  0.2661
   87MOL   C43343605   6.064   3.160   1.841  0.0326  0.6094  0.4276
   87MOL   C43443606   6.006   3.039   1.913  0.2446 -0.0517  0.5112
   87MOL   C43543607   6.099   2.958   2.001  0.0162 -0.2578  0.5406
   87MOL   H43643608   6.536   3.388   1.596 -0.4806  0.4890  0.1089
   87MOL   H43743609   6.493   3.515   1.494 -1.4861 -1.2539  1.1057
   87MOL   H43843610   6.537   3.230   1.398 -0.9868 -0.7672  1.4426
   87MOL   H43943611   6.439   3.205   1.630 -0.3108  0.6759 -0.3090
   87MOL   H44043612   6.353   3.108   1.516  0.1184  0.8403 -1.3662
   87MOL   H44143613   6.135   3.232   1.576 -2.0415 -0.0629  0.5184
   87MOL   H44243614   6.227   3.328   1.682 -4.2637  2.3928 -5.4627
   87MOL   H44343615   6.170   3.019   1.708  1.9255  0.1751  0.5574
   87MOL   H44443616   6.267   3.100   1.822 -0.0829  0.9370  1.5385
   87MOL   H44543617   6.097   3.224   1.923  1.9049  1.2435 -0.7984
   87MOL   H44643618   5.984   3.204   1.781  0.2037  1.4111  0.7900
   87MOL   H44743619   5.926   3.085   1.971  0.5044 -0.9239  1.5920
   87MOL   H44843620   5.952   2.982   1.837 -0.8283  0.1119  1.1352
   87MOL   H44943621   6.179   2.910   1.946 -1.2511  0.0438 -1.6431
   87MOL   H45043622   6.145   3.023   2.076  0.8101 -0.6011  0.3494
   87MOL   H45143623   6.043   2.879   2.052  0.7546 -0.7282  0.6267
   87MOL   C45243624   6.459   3.375   1.258  0.3787 -0.2657 -0.7026
   87MOL   C45343625   6.452   3.274   1.145 -0.9065 -0.7302 -0.3230
   87MOL   O45443626   6.446   3.336   1.023  0.1717  0.1410  0.4525
   87MOL   C45543627   6.563   3.414   0.982  0.3742  0.1061  1.2571
   87MOL   C45643628   6.544   3.446   0.829 -0.4554 -0.0797 -0.7006
   87MOL   C45743629   6.656   3.535   0.776  0.8753 -0.2047 -0.2154
   87MOL   C45843630   6.639   3.566   0.632 -0.6824  0.0298  0.4908
   87MOL   C45943631   6.739   3.675   0.585  0.0607 -0.1574  0.2250
   87MOL   C46043632   6.697   3.749   0.458 -0.4863 -0.6022  0.1394
   87MOL   H46143633   6.376   3.444   1.245 -0.5553 -0.7682  2.3353
   87MOL   H46243634   6.549   3.435   1.243  0.8893 -0.5703  0.9951
   87MOL   H46343635   6.541   3.213   1.153 -0.2807  0.5265  3.2872
   87MOL   H46443636   6.658   3.368   1.006  0.8369 -0.0398 -0.7761
   87MOL   H46543637   6.545   3.510   1.031 -2.5082 -0.0782  0.6293
   87MOL   H46643638   6.448   3.497   0.823  0.0926  1.0415 -0.1421
   87MOL   H46743639   6.527   3.353   0.775 -2.8653  0.0597 -0.2374
   87MOL   H46843640   6.664   3.629   0.832  1.9577  0.1211 -0.8964
   87MOL   H46943641   6.752   3.485   0.787  1.7509  1.2867 -0.8588
   87MOL   H47043642   6.639   3.475   0.571 -0.7953 -1.1478  2.2224
   87MOL   H47143643   6.538   3.608   0.629 -0.5402  0.3725  0.4662
   87MOL   H47243644   6.746   3.736   0.675 -0.0748 -1.0152  0.8259
   87MOL   H47343645   6.836   3.629   0.569  0.6243  1.6693 -1.7957
   87MOL   H47443646   6.772   3.828   0.452 -1.5154  0.3107 -1.0955
   87MOL   H47543647   6.689   3.672   0.381 -2.6690  0.0423 -0.3129
   87MOL   H47643648   6.602   3.795   0.487 -0.5123  0.1344 -1.0372
   87MOL   C47743649   6.335   3.179   1.164  0.4853  0.4635  0.0906
   87MOL   C47843650   6.331   3.085   1.038  0.4182  0.7126  0.3546
   87MOL   O47943651   6.427   2.979   1.054  0.1046 -0.3095 -0.4255
   87MOL   C48043652   6.499   2.957   0.936 -0.3981  0.2765  0.0372
   87MOL   C48143653   6.584   2.824   0.949  0.6464  0.5538 -0.3125
   87MOL   C48243654   6.484   2.711   0.988  0.7174 -0.1550 -0.5830
   87MOL   C48343655   6.527   2.572   0.935  0.4408  0.5968  0.0808
   87MOL   C48443656   6.431   2.459   0.977 -0.6831 -0.7714  0.1431
   87MOL   C48543657   6.426   2.335   0.889 -0.1801  0.4044  0.0665
   87MOL   H48643658   6.346   3.119   1.254  0.0584 -0.4590 -0.4618
   87MOL   H48743659   6.237   3.227   1.171  1.1524  1.9191 -0.1366
   87MOL   H48843660   6.247   3.015   1.033  1.1850 -0.3856  2.3735
   87MOL   H48943661   6.562   3.045   0.925 -1.1275  0.8909  0.7641
   87MOL   H49043662   6.440   2.945   0.845  1.5310 -0.5329 -1.1498
   87MOL   H49143663   6.665   2.833   1.022  1.0779  2.0358 -0.9518
   87MOL   H49243664   6.620   2.801   0.849 -1.1811 -1.8939 -0.4498
   87MOL   H49343665   6.457   2.708   1.094 -0.3111  1.4197 -0.7876
   87MOL   H49443666   6.388   2.738   0.943  0.7654  0.1184 -0.5219
   87MOL   H49543667   6.531   2.584   0.827 -0.2515 -0.2527 -0.0477
   87MOL   H49643668   6.630   2.555   0.965  0.3423  1.5629  0.9887
   87MOL   H49743669   6.446   2.430   1.081  2.3178 -0.5840 -0.1933
   87MOL   H49843670   6.334   2.506   0.991  0.5954  1.9700  0.0815
   87MOL   H49943671   6.360   2.260   0.932  2.2612 -2.1318 -0.4846
   87MOL   H50043672   6.393   2.370   0.791  0.3269 -0.7907 -0.5327
   87MOL   H50143673   6.528   2.298   0.875  0.6111  2.2048  0.8868
   87MOL   H50243674   6.351   3.139   0.945 -1.6992  2.9042  1.1306
   88MOL     C143675   3.744   3.819   5.678 -0.2191  0.3737 -0.0331
   88MOL     C243676   3.667   3.698   5.748  0.1035  0.0878  0.5442
   88MOL     O343677   3.584   3.633   5.652 -0.4148  0.0429 -0.0861
   88MOL     C443678   3.656   3.556   5.556  0.7123 -0.0513 -0.2754
   88MOL     C543679   3.550   3.520   5.449 -0.4210  0.3094  0.0070
   88MOL     C643680   3.495   3.643   5.367  0.8905  0.1847 -0.4136
   88MOL     C743681   3.403   3.622   5.250 -0.1508  0.6793  0.2006
   88MOL     C843682   3.305   3.741   5.231 -0.5612 -0.2571  0.4187
   88MOL     C943683   3.224   3.732   5.108  0.1094  0.2010  0.4008
   88MOL    H1043684   3.831   3.785   5.621  0.9275  0.4424  1.6314
   88MOL    H1143685   3.679   3.880   5.616 -0.9178 -0.1426  0.1790
   88MOL    H1243686   3.727   3.626   5.805  0.2315 -2.0264 -2.1740
   88MOL    H1343687   3.712   3.479   5.608  1.3696 -0.8520 -2.1186
   88MOL    H1443688   3.729   3.621   5.507  1.4027 -0.5278  0.1062
   88MOL    H1543689   3.473   3.474   5.510  0.3244  0.7762  1.3224
   88MOL    H1643690   3.604   3.450   5.385 -0.9307 -0.8519  0.8414
   88MOL    H1743691   3.458   3.716   5.439  0.4462 -1.0396  0.6188
   88MOL    H1843692   3.583   3.694   5.330  2.8813 -0.4215  3.2260
   88MOL    H1943693   3.460   3.601   5.160 -0.9987  0.3735 -0.2749
   88MOL    H2043694   3.336   3.540   5.276  0.8514  0.0222  0.7346
   88MOL    H2143695   3.352   3.839   5.223  0.9793 -1.0715 -0.9223
   88MOL    H2243696   3.245   3.745   5.322 -1.3219 -1.5022 -0.0240
   88MOL    H2343697   3.180   3.633   5.097  0.0822  0.2317  0.2193
   88MOL    H2443698   3.152   3.812   5.091  2.8457  2.5238 -0.6450
   88MOL    H2543699   3.293   3.740   5.024  0.0069 -0.5108  0.2413
   88MOL    H2643700   3.793   3.887   5.748  0.6834 -0.4176  0.1197
   88MOL    C2743701   3.571   3.756   5.854  0.4093  0.4142 -0.0964
   88MOL    C2843702   3.522   3.643   5.949  0.0864 -0.0224  0.1119
   88MOL    O2943703   3.471   3.713   6.057  0.7582  0.5176 -0.3903
   88MOL    C3043704   3.506   3.653   6.185  0.0243 -0.2948  0.3354
   88MOL    C3143705   3.465   3.753   6.295  0.5691 -0.8969  0.0291
   88MOL    C3243706   3.324   3.810   6.277  0.6189  0.1548 -0.3269
   88MOL    C3343707   3.264   3.879   6.409 -0.5399 -0.2364  0.7028
   88MOL    C3443708   3.112   3.924   6.416  0.0080  0.5365 -0.2903
   88MOL    C3543709   3.061   4.014   6.301 -0.7524 -0.1539  0.1905
   88MOL    H3643710   3.631   3.827   5.910  1.0226 -0.1449 -0.0388
   88MOL    H3743711   3.483   3.807   5.814 -0.0426  0.0762  0.4635
   88MOL    H3843712   3.594   3.570   5.987 -1.5029 -0.4070  2.5023
   88MOL    H3943713   3.613   3.636   6.195 -0.4730 -3.1929  1.3065
   88MOL    H4043714   3.453   3.563   6.214 -0.5497  0.3662  1.3693
   88MOL    H4143715   3.535   3.837   6.298 -1.1500  0.5439  0.3550
   88MOL    H4243716   3.462   3.695   6.387 -1.2021 -1.5699 -0.4458
   88MOL    H4343717   3.318   3.877   6.192  0.0005  1.3567  0.6531
   88MOL    H4443718   3.263   3.722   6.255 -0.1460  0.0054  2.1846
   88MOL    H4543719   3.272   3.813   6.496 -0.4066  0.3888  1.1739
   88MOL    H4643720   3.325   3.967   6.430 -1.0898 -0.4453  3.3521
   88MOL    H4743721   3.054   3.831   6.415  0.5568  0.1791  0.5877
   88MOL    H4843722   3.101   3.962   6.517  1.0941  2.8541 -1.0161
   88MOL    H4943723   3.083   3.957   6.211 -1.0195 -0.4212  0.2906
   88MOL    H5043724   2.953   4.032   6.301 -0.5918  0.8745 -0.6554
   88MOL    H5143725   3.110   4.111   6.305 -0.1416 -0.4704  0.3360
   88MOL    C5243726   3.399   3.567   5.892 -0.4731  0.7293  0.5570
   88MOL    C5343727   3.274   3.640   5.822 -0.2900  0.6615  0.5313
   88MOL    O5443728   3.169   3.545   5.799  0.4460 -0.4779  0.2905
   88MOL    C5543729   3.192   3.443   5.697  0.4288  0.3319  0.2464
   88MOL    C5643730   3.061   3.363   5.673 -0.0160 -0.3621  0.4093
   88MOL    C5743731   3.065   3.253   5.566  0.0472 -0.0798  0.0710
   88MOL    C5843732   2.926   3.190   5.526 -0.3135 -0.7524  0.1040
   88MOL    C5943733   2.814   3.288   5.475 -0.4908 -0.2622 -0.0076
   88MOL    C6043734   2.675   3.229   5.436 -0.4590 -0.1852 -0.3938
   88MOL    H6143735   3.365   3.499   5.970 -1.9584 -1.3852 -1.8320
   88MOL    H6243736   3.448   3.508   5.814  1.9536  0.2656  2.3670
   88MOL    H6343737   3.302   3.683   5.726 -1.3433  0.3465  0.0739
   88MOL    H6443738   3.264   3.366   5.722 -1.4725 -1.1488  1.3223
   88MOL    H6543739   3.219   3.484   5.600  0.0447 -0.4532 -0.1919
   88MOL    H6643740   2.993   3.435   5.629  0.0882 -1.2059 -1.1438
   88MOL    H6743741   3.009   3.335   5.765 -1.0341  1.4954  0.4320
   88MOL    H6843742   3.116   3.288   5.476  1.4766 -0.0818  0.8579
   88MOL    H6943743   3.136   3.175   5.596 -1.5181 -0.8397  1.9149
   88MOL    H7043744   2.947   3.122   5.443 -0.9039  2.0935 -2.5045
   88MOL    H7143745   2.881   3.129   5.604 -2.3202  0.2426 -0.2356
   88MOL    H7243746   2.815   3.370   5.548 -0.7325 -0.5132  0.2816
   88MOL    H7343747   2.854   3.339   5.388  0.5854 -1.0702  0.0038
   88MOL    H7443748   2.600   3.305   5.418  0.8170  1.1234 -0.2928
   88MOL    H7543749   2.686   3.169   5.345  0.2766  0.8202 -0.9767
   88MOL    H7643750   2.629   3.164   5.511 -0.1275 -1.8740 -1.6107
   88MOL    C7743751   3.197   3.747   5.894 -0.5611 -0.8611  0.3285
   88MOL    C7843752   3.120   3.851   5.803  0.1834  0.3900 -0.0889
   88MOL    O7943753   3.206   3.936   5.727 -0.2160 -0.0199 -0.0867
   88MOL    C8043754   3.219   3.919   5.585  0.5422  0.3658 -0.5029
   88MOL    C8143755   3.333   4.007   5.542 -0.3506 -0.1434  0.1402
   88MOL    C8243756   3.309   4.158   5.538 -0.0062  0.0162 -0.2827
   88MOL    C8343757   3.423   4.232   5.463  0.4680 -0.7026  0.5830
   88MOL    C8443758   3.378   4.378   5.441  0.8404  0.0551  0.1702
   88MOL    C8543759   3.307   4.403   5.305  0.5161  0.5583 -0.3235
   88MOL    H8643760   3.268   3.809   5.949  0.1196  0.7074 -2.1819
   88MOL    H8743761   3.130   3.701   5.965 -2.4298  2.0642  0.5581
   88MOL    H8843762   3.054   3.797   5.734  2.4037 -2.7951  0.1739
   88MOL    H8943763   3.124   3.937   5.534  0.9948  1.4557 -0.9754
   88MOL    H9043764   3.239   3.814   5.566 -3.6144 -0.3895 -1.2405
   88MOL    H9143765   3.363   3.975   5.443 -1.2949  1.1318 -0.5718
   88MOL    H9243766   3.420   3.976   5.600  0.2165 -0.1416 -0.7143
   88MOL    H9343767   3.219   4.177   5.480  0.9515  0.8317 -1.5242
   88MOL    H9443768   3.305   4.195   5.640 -0.3833 -1.4384  0.2408
   88MOL    H9543769   3.516   4.228   5.521  0.6237  2.0230  0.5829
   88MOL    H9643770   3.438   4.184   5.367 -0.2726  0.9805 -0.3971
   88MOL    H9743771   3.315   4.412   5.523  1.2572 -0.1172  0.5652
   88MOL    H9843772   3.465   4.443   5.445  0.3840  0.5457  2.8414
   88MOL    H9943773   3.368   4.363   5.225 -0.2225 -1.3544  0.0466
   88MOL   H10043774   3.209   4.355   5.301  1.0272 -0.3093 -2.8950
   88MOL   H10143775   3.304   4.512   5.300  0.0431  0.4718 -2.1300
   88MOL   C10243776   3.035   3.949   5.884  0.4744  0.9984 -0.0616
   88MOL   C10343777   2.919   4.015   5.812 -0.2640 -0.2255  0.7910
   88MOL   O10443778   2.815   3.917   5.782  0.0303  0.2431  0.0419
   88MOL   C10543779   2.797   3.890   5.647 -0.9788 -0.8102 -0.5177
   88MOL   C10643780   2.671   3.791   5.638  0.1896 -0.6391 -0.0549
   88MOL   C10743781   2.632   3.766   5.488 -0.1115 -0.2071  0.4957
   88MOL   C10843782   2.717   3.656   5.423 -0.0737  0.6485  0.5100
   88MOL   C10943783   2.693   3.631   5.275  0.3719 -0.1501 -0.1903
   88MOL   C11043784   2.563   3.557   5.253 -0.0524  0.6141  0.4603
   88MOL   H11143785   2.992   3.897   5.969 -2.4733  0.4178 -1.8431
   88MOL   H11243786   3.108   4.026   5.909 -0.5559  1.9626  0.0215
   88MOL   H11343787   2.949   4.067   5.721 -0.6503 -0.1619  0.6959
   88MOL   H11443788   2.878   3.829   5.608  0.0748 -0.6339  1.3534
   88MOL   H11543789   2.786   3.982   5.590 -0.4893  0.8661  2.0407
   88MOL   H11643790   2.591   3.844   5.689  0.1145 -1.1679  0.3796
   88MOL   H11743791   2.687   3.698   5.691  1.1855 -0.2584  0.3301
   88MOL   H11843792   2.529   3.734   5.474  0.2828 -0.5822 -1.6008
   88MOL   H11943793   2.645   3.862   5.437  0.9527 -0.6157 -0.0275
   88MOL   H12043794   2.821   3.686   5.437  0.1357  0.5427 -0.7473
   88MOL   H12143795   2.716   3.565   5.484 -0.9191  0.0559 -0.3683
   88MOL   H12243796   2.684   3.733   5.237 -0.3586  0.3410  1.2701
   88MOL   H12343797   2.778   3.582   5.226  0.2232  0.7947 -1.4180
   88MOL   H12443798   2.529   3.583   5.153  0.2476  0.1878  0.2481
   88MOL   H12543799   2.567   3.449   5.267  0.0683  0.8149  2.0333
   88MOL   H12643800   2.492   3.587   5.330 -1.8770 -1.3725 -0.3700
   88MOL   C12743801   2.856   4.120   5.903  0.1100  0.3441  0.0770
   88MOL   C12843802   2.765   4.211   5.823  0.2739 -0.3088  0.3733
   88MOL   O12943803   2.848   4.292   5.748 -0.2819 -0.0323  0.3584
   88MOL   C13043804   2.836   4.296   5.609  0.4925 -0.4720  0.4476
   88MOL   C13143805   2.924   4.416   5.565  0.0884 -0.2868 -0.0464
   88MOL   C13243806   2.922   4.439   5.412  0.5995  0.5031 -0.7705
   88MOL   C13343807   2.986   4.573   5.364 -0.0495 -0.8606  0.4449
   88MOL   C13443808   2.981   4.610   5.209  0.6589 -0.0759 -0.5790
   88MOL   C13543809   2.834   4.621   5.156  0.8863 -0.6714  0.3717
   88MOL   H13643810   2.797   4.063   5.976  2.7171 -0.9992  1.1981
   88MOL   H13743811   2.932   4.177   5.957 -0.8433  0.7058  1.0652
   88MOL   H13843812   2.687   4.175   5.756 -1.7898  3.0830  0.8290
   88MOL   H13943813   2.731   4.299   5.582 -0.1268  1.2499  2.8484
   88MOL   H14043814   2.878   4.202   5.572 -0.9279 -0.1509 -2.0993
   88MOL   H14143815   3.027   4.401   5.596 -0.1885  1.9944  2.1828
   88MOL   H14243816   2.904   4.512   5.612  0.4848 -0.1903 -0.0740
   88MOL   H14343817   2.970   4.352   5.367 -1.6588 -1.0463 -0.2117
   88MOL   H14443818   2.818   4.428   5.382  0.7518 -1.1390 -0.7043
   88MOL   H14543819   2.948   4.656   5.424 -2.2034 -2.2638  1.0861
   88MOL   H14643820   3.089   4.561   5.396 -0.2724 -2.6273  0.5415
   88MOL   H14743821   3.024   4.710   5.199 -1.4029  0.9076  0.0554
   88MOL   H14843822   3.044   4.537   5.159 -0.0977  0.3668 -2.2270
   88MOL   H14943823   2.837   4.619   5.048 -1.6231  0.7641  0.2275
   88MOL   H15043824   2.775   4.538   5.192  0.6315 -0.9542 -0.6995
   88MOL   H15143825   2.779   4.711   5.184  1.5517 -0.1641  0.0670
   88MOL   C15243826   2.698   4.308   5.925 -0.4485 -0.5013  0.0571
   88MOL   C15343827   2.613   4.422   5.863  0.0939 -0.0776 -0.1361
   88MOL   O15443828   2.476   4.396   5.849  0.3360  0.2041  0.5480
   88MOL   C15543829   2.438   4.313   5.746  0.9438  0.0396  0.3171
   88MOL   C15643830   2.289   4.307   5.747  0.1786 -0.5997 -0.2745
   88MOL   C15743831   2.232   4.243   5.881  0.3779  0.0755  0.7279
   88MOL   C15843832   2.070   4.235   5.878  0.9095 -0.0924 -0.4923
   88MOL   C15943833   1.992   4.362   5.879  0.5732  0.4278 -0.2784
   88MOL   C16043834   1.998   4.442   6.017  0.5531 -0.3005 -0.0189
   88MOL   H16143835   2.632   4.260   5.998 -1.5554 -3.4800 -2.8045
   88MOL   H16243836   2.777   4.346   5.990  2.0710  0.0345 -3.2072
   88MOL   H16343837   2.654   4.445   5.765 -1.9418  1.4668 -0.6476
   88MOL   H16443838   2.479   4.213   5.764 -2.3313 -1.7752 -1.9259
   88MOL   H16543839   2.476   4.341   5.648  1.5630  0.7030  0.7393
   88MOL   H16643840   2.249   4.256   5.660 -0.3726  0.1396 -0.4652
   88MOL   H16743841   2.247   4.408   5.738  0.9228 -0.1041  1.6449
   88MOL   H16843842   2.278   4.145   5.894  1.7533  0.3142 -2.0340
   88MOL   H16943843   2.268   4.306   5.963 -0.1952 -0.5622  1.4747
   88MOL   H17043844   2.037   4.183   5.788  0.4536 -1.7354  0.5863
   88MOL   H17143845   2.057   4.180   5.972 -0.3515 -0.0379 -0.6363
   88MOL   H17243846   2.024   4.423   5.795 -1.0323  0.1611 -1.0951
   88MOL   H17343847   1.889   4.333   5.861 -0.0962  2.7638 -0.2970
   88MOL   H17443848   1.977   4.380   6.104 -1.5974 -1.5964 -1.4121
   88MOL   H17543849   2.089   4.499   6.037  0.2916  0.7162 -1.6123
   88MOL   H17643850   1.926   4.523   6.022 -1.7221 -2.2781 -0.3108
   88MOL   C17743851   2.629   4.552   5.950  0.0586  0.1346 -0.0533
   88MOL   C17843852   2.518   4.661   5.922  0.6218 -0.8908  0.1532
   88MOL   O17943853   2.487   4.734   6.042 -0.0720 -0.1057  0.2946
   88MOL   C18043854   2.359   4.784   6.060  0.3313 -0.4600  0.2121
   88MOL   C18143855   2.375   4.883   6.180 -0.1816  0.4050 -1.1422
   88MOL   C18243856   2.417   4.812   6.312 -0.2885  0.1738 -0.5802
   88MOL   C18343857   2.407   4.907   6.432  0.0435 -0.1802 -0.0211
   88MOL   C18443858   2.453   4.857   6.569  0.6593  0.7482  0.3310
   88MOL   C18543859   2.394   4.956   6.669  1.0663 -0.1969  0.7488
   88MOL   H18643860   2.609   4.525   6.054  1.6628  0.8182  0.4433
   88MOL   H18743861   2.733   4.586   5.947  0.5072 -0.9813  1.7839
   88MOL   H18843862   2.425   4.612   5.892  0.9901 -0.6621 -1.3648
   88MOL   H18943863   2.296   4.699   6.086 -1.2951  0.9091  0.8087
   88MOL   H19043864   2.329   4.837   5.969 -1.3196 -0.9253  0.4754
   88MOL   H19143865   2.284   4.940   6.202  0.6075  0.6286  1.7603
   88MOL   H19243866   2.442   4.964   6.151  1.9906  0.6081  3.9175
   88MOL   H19343867   2.351   4.727   6.329 -0.8245  0.9667  1.4893
   88MOL   H19443868   2.520   4.779   6.301 -0.0498  0.7372 -0.1041
   88MOL   H19543869   2.461   4.998   6.407 -0.2311 -0.0786 -0.2547
   88MOL   H19643870   2.301   4.934   6.434  0.3571  1.4283 -2.6016
   88MOL   H19743871   2.399   4.764   6.584  0.7881  0.6299  0.0566
   88MOL   H19843872   2.555   4.827   6.595 -0.6069 -1.7782  2.6330
   88MOL   H19943873   2.428   4.932   6.770  3.6838 -3.5457 -0.8261
   88MOL   H20043874   2.431   5.057   6.651 -0.3570  0.4914  1.6355
   88MOL   H20143875   2.287   4.949   6.690  0.9012 -0.7871 -0.2541
   88MOL   C20243876   2.565   4.762   5.816 -1.0118  0.1469  0.7515
   88MOL   C20343877   2.558   4.724   5.668  1.4248  0.0766  0.0527
   88MOL   O20443878   2.605   4.845   5.612 -0.2117  0.5399  0.0296
   88MOL   C20543879   2.738   4.840   5.553  0.1101 -0.5296 -0.7517
   88MOL   C20643880   2.774   4.969   5.484  0.0148 -0.9768  0.2912
   88MOL   C20743881   2.897   4.962   5.402  0.3180  0.2985  0.2403
   88MOL   C20843882   2.903   5.088   5.317  0.1603  0.3867 -0.5245
   88MOL   C20943883   3.039   5.111   5.248 -0.7464 -0.2196  0.0263
   88MOL   C21043884   3.024   5.213   5.131 -0.1275 -0.7889 -0.0567
   88MOL   H21143885   2.515   4.859   5.827 -1.0153  0.2603 -0.2081
   88MOL   H21243886   2.666   4.797   5.835 -0.1938 -1.7373 -0.0239
   88MOL   H21343887   2.617   4.634   5.648  0.8231  0.2044 -2.6013
   88MOL   H21443888   2.722   4.761   5.480  0.6584 -1.8071  0.4815
   88MOL   H21543889   2.810   4.807   5.628 -1.0025  1.6543  1.3391
   88MOL   H21643890   2.790   5.045   5.560  0.3595 -1.5489  0.7906
   88MOL   H21743891   2.687   5.002   5.426  1.5269 -0.8404 -1.9797
   88MOL   H21843892   2.987   4.961   5.464  1.4343  0.6459 -1.3331
   88MOL   H21943893   2.892   4.869   5.346 -0.2096  0.8608 -0.6637
   88MOL   H22043894   2.828   5.075   5.239 -0.0949  0.8701 -0.3613
   88MOL   H22143895   2.879   5.180   5.370 -1.1963 -1.4835  2.2154
   88MOL   H22243896   3.118   5.146   5.316 -0.4920  1.3657 -1.0579
   88MOL   H22343897   3.069   5.015   5.206 -1.1447  0.8678 -2.8607
   88MOL   H22443898   3.120   5.220   5.079  0.3245  0.3187  0.9020
   88MOL   H22543899   2.963   5.179   5.047  1.1652 -1.2894 -0.8182
   88MOL   H22643900   2.992   5.310   5.169  1.8231 -0.1115 -0.0818
   88MOL   C22743901   2.413   4.703   5.616 -0.2454 -0.0821 -0.2083
   88MOL   C22843902   2.409   4.668   5.469 -0.5209 -0.4146 -0.4800
   88MOL   O22943903   2.444   4.534   5.456 -0.0247 -0.2783  0.4313
   88MOL   C23043904   2.480   4.503   5.324 -0.3314  0.0366 -0.1018
   88MOL   C23143905   2.515   4.354   5.296 -0.1133  0.1488 -0.3567
   88MOL   C23243906   2.380   4.278   5.302 -0.1517  0.4841  0.6292
   88MOL   C23343907   2.386   4.123   5.291  0.0761  0.2536  0.3640
   88MOL   C23443908   2.444   4.072   5.151  0.6703 -0.8220  0.5495
   88MOL   C23543909   2.407   3.918   5.151  0.1840  0.1878  0.2926
   88MOL   H23643910   2.364   4.625   5.674 -0.6294  0.8565  0.7610
   88MOL   H23743911   2.353   4.793   5.635  0.1966  0.0819  0.4042
   88MOL   H23843912   2.476   4.730   5.410  0.4860 -1.9396 -0.9711
   88MOL   H23943913   2.565   4.564   5.292 -0.4067  0.5261  0.6201
   88MOL   H24043914   2.397   4.530   5.260 -1.8236 -1.1916  1.2932
   88MOL   H24143915   2.586   4.327   5.373 -1.9859 -1.0005  1.0260
   88MOL   H24243916   2.577   4.326   5.210 -1.7931 -2.4315 -0.8030
   88MOL   H24343917   2.344   4.307   5.400 -1.0019 -0.9349  0.7554
   88MOL   H24443918   2.311   4.318   5.228  1.1477 -0.8858 -1.3928
   88MOL   H24543919   2.450   4.086   5.371 -1.5473 -0.8782  1.1754
   88MOL   H24643920   2.286   4.082   5.303  0.3330 -1.1547 -2.0430
   88MOL   H24743921   2.389   4.121   5.071 -2.0784 -0.1206  2.7407
   88MOL   H24843922   2.550   4.091   5.139  0.4311 -0.6775 -1.3898
   88MOL   H24943923   2.461   3.862   5.075 -1.0138 -2.5931  1.4215
   88MOL   H25043924   2.409   3.876   5.251  0.9289  2.4032  1.2437
   88MOL   H25143925   2.303   3.896   5.126 -0.9068  1.2332  3.6500
   88MOL   C25243926   2.260   4.683   5.430 -0.0437 -0.6932 -0.5486
   88MOL   C25343927   2.201   4.828   5.434 -0.2559 -0.6508  0.2086
   88MOL   O25443928   2.082   4.815   5.360  0.0311  0.0511  0.5864
   88MOL   C25543929   1.967   4.763   5.431  0.2272 -0.6414 -0.4100
   88MOL   C25643930   1.840   4.750   5.344 -0.8152 -0.3882  0.8051
   88MOL   C25743931   1.713   4.716   5.422 -0.1801  0.1029  0.0593
   88MOL   C25843932   1.598   4.694   5.326  0.4294  0.0312  0.0919
   88MOL   C25943933   1.502   4.588   5.386 -0.4297  0.2072 -0.2387
   88MOL   C26043934   1.388   4.558   5.290  0.2062  0.2792 -0.1717
   88MOL   H26143935   2.234   4.638   5.334  3.3860 -2.2053 -0.8402
   88MOL   H26243936   2.199   4.624   5.499  0.6256 -1.5814 -0.7112
   88MOL   H26343937   2.187   4.870   5.534  1.5541 -0.4328  0.3812
   88MOL   H26443938   1.951   4.837   5.509  2.3962 -1.4192  0.8022
   88MOL   H26543939   1.982   4.669   5.483  0.6904 -0.3026  0.0766
   88MOL   H26643940   1.850   4.671   5.270 -1.1975 -0.0057  0.3364
   88MOL   H26743941   1.824   4.847   5.297 -1.2080 -1.7394 -1.9524
   88MOL   H26843942   1.736   4.625   5.478 -1.4501  1.1187  2.3137
   88MOL   H26943943   1.696   4.791   5.500  1.8192 -0.0356  0.6477
   88MOL   H27043944   1.533   4.780   5.312  3.1156  2.4414  2.0257
   88MOL   H27143945   1.629   4.646   5.233 -1.2335  0.3047 -0.6275
   88MOL   H27243946   1.553   4.493   5.403 -0.9314 -0.9427 -4.6665
   88MOL   H27343947   1.457   4.631   5.475  1.8081 -1.2310  1.6439
   88MOL   H27443948   1.416   4.523   5.191  0.7270  2.2155 -0.7324
   88MOL   H27543949   1.320   4.483   5.330 -1.4649  1.5515 -0.5788
   88MOL   H27643950   1.336   4.652   5.271 -2.3365 -1.1161 -0.3432
   88MOL   C27743951   2.288   4.934   5.364  0.2361 -0.7754  0.4606
   88MOL   C27843952   2.241   5.078   5.366  0.2875 -0.0170  0.3564
   88MOL   O27943953   2.342   5.170   5.316  0.2620 -0.4221  0.0369
   88MOL   C28043954   2.418   5.235   5.412  0.2844  0.9751 -0.5310
   88MOL   C28143955   2.522   5.317   5.348  0.7405  0.6587 -0.3863
   88MOL   C28243956   2.630   5.364   5.445  0.2660 -1.3738 -0.8380
   88MOL   C28343957   2.726   5.464   5.377  0.2682 -0.0230 -0.2995
   88MOL   C28443958   2.662   5.610   5.370 -0.5061 -1.0903  0.6345
   88MOL   C28543959   2.754   5.732   5.358 -0.7284 -0.0383 -0.7089
   88MOL   H28643960   2.377   4.950   5.425  0.8189  2.5381 -1.1589
   88MOL   H28743961   2.319   4.895   5.267 -0.3490  1.2169 -0.5425
   88MOL   H28843962   2.223   5.098   5.472  0.3649  3.1996 -0.1706
   88MOL   H28943963   2.457   5.158   5.479  1.1382 -2.0592 -4.3308
   88MOL   H29043964   2.349   5.295   5.472 -0.6563  0.4358 -1.0581
   88MOL   H29143965   2.470   5.401   5.301 -0.5441  0.8301  1.2976
   88MOL   H29243966   2.568   5.272   5.261  0.7677  1.1345 -0.6206
   88MOL   H29343967   2.570   5.412   5.523 -0.9049 -2.1425 -1.2515
   88MOL   H29443968   2.698   5.292   5.490  1.7244  0.2382 -0.4401
   88MOL   H29543969   2.822   5.448   5.425  1.0136  0.1811 -1.7162
   88MOL   H29643970   2.747   5.433   5.274 -2.5518  2.1894 -1.6219
   88MOL   H29743971   2.594   5.634   5.288 -1.1465 -0.4240  1.3418
   88MOL   H29843972   2.594   5.627   5.453 -0.5566 -0.1899  0.4255
   88MOL   H29943973   2.810   5.742   5.451 -1.3684 -0.8831 -0.2219
   88MOL   H30043974   2.829   5.729   5.278 -0.5127 -1.0465 -0.4746
   88MOL   H30143975   2.687   5.818   5.354 -0.7744 -0.0436 -0.0655
   88MOL   C30243976   2.120   5.105   5.277 -0.1906 -0.9581  0.4069
   88MOL   C30343977   2.095   5.255   5.249  0.0542 -0.4492 -0.1396
   88MOL   O30443978   2.089   5.335   5.364 -0.5037  0.1594  0.0078
   88MOL   C30543979   2.122   5.469   5.339  0.1543  0.0290  0.3938
   88MOL   C30643980   2.108   5.565   5.462 -0.8516  0.0880  0.5990
   88MOL   C30743981   2.218   5.546   5.569  0.3046 -0.1024 -0.1379
   88MOL   C30843982   2.237   5.670   5.659  0.2979  0.4013  0.2300
   88MOL   C30943983   2.113   5.706   5.741  0.5311 -0.2944 -0.5899
   88MOL   C31043984   2.148   5.826   5.832 -0.0729  0.4119  0.0735
   88MOL   H31143985   2.142   5.068   5.177 -0.7890 -1.9645  0.6461
   88MOL   H31243986   2.028   5.067   5.321 -1.2574 -0.1795 -1.0957
   88MOL   H31343987   2.176   5.283   5.181 -0.6963 -0.1627 -0.9267
   88MOL   H31443988   2.052   5.509   5.265 -0.3453  0.4947  1.1067
   88MOL   H31543989   2.224   5.481   5.302  0.4612 -3.1244  0.1322
   88MOL   H31643990   2.010   5.543   5.505 -1.5405 -1.8591 -1.8918
   88MOL   H31743991   2.118   5.667   5.425 -0.6923  0.5024  1.7627
   88MOL   H31843992   2.189   5.458   5.627 -0.7416 -0.1469 -0.7140
   88MOL   H31943993   2.313   5.514   5.526  0.2795 -0.4259  0.0442
   88MOL   H32043994   2.317   5.655   5.732 -1.8307 -0.6845  2.4212
   88MOL   H32143995   2.272   5.750   5.593  0.9663 -0.0344  0.0554
   88MOL   H32243996   2.024   5.724   5.682  0.0142 -2.7566 -0.6120
   88MOL   H32343997   2.079   5.618   5.795  2.5634 -0.3303  0.6889
   88MOL   H32443998   2.072   5.837   5.910  0.1889 -1.0858  0.5545
   88MOL   H32543999   2.247   5.814   5.875  0.2052  2.8321  0.2016
   88MOL   H32644000   2.154   5.919   5.776 -0.1777  0.4093  0.0595
   88MOL   C32744001   1.955   5.260   5.177  0.2933  0.0792  0.6277
   88MOL   C32844002   1.967   5.222   5.030  0.2028 -0.1767 -0.4635
   88MOL   O32944003   1.844   5.180   4.987  0.2127  0.5708  0.9095
   88MOL   C33044004   1.834   5.035   4.993  0.1085 -0.0986  0.0559
   88MOL   C33144005   1.718   4.991   4.900 -0.4973 -0.5336 -0.3533
   88MOL   C33244006   1.755   4.865   4.819 -0.5054  0.5510 -0.2691
   88MOL   C33344007   1.644   4.811   4.728  0.7483 -0.7530  0.2682
   88MOL   C33444008   1.506   4.792   4.788  0.3391 -0.2179  0.3852
   88MOL   C33544009   1.390   4.847   4.701 -0.6889  0.4922 -0.0756
   88MOL   H33644010   1.908   5.359   5.178  0.8366  0.4570 -2.9938
   88MOL   H33744011   1.872   5.201   5.217 -1.1070  0.6212 -1.3668
   88MOL   H33844012   2.038   5.140   5.020  2.7996  1.6902  1.7848
   88MOL   H33944013   1.824   5.008   5.098 -0.2928  1.3813  0.4183
   88MOL   H34044014   1.926   4.998   4.947 -0.8965 -3.5339  0.6968
   88MOL   H34144015   1.709   5.069   4.824  1.0344  0.4589  0.4421
   88MOL   H34244016   1.617   4.997   4.941  0.2224  1.6712  1.1813
   88MOL   H34344017   1.842   4.883   4.756  1.1015  0.4232  1.8367
   88MOL   H34444018   1.798   4.794   4.889  2.7775  3.2249  0.5423
   88MOL   H34544019   1.634   4.864   4.633  3.5257  2.0408  1.4412
   88MOL   H34644020   1.668   4.711   4.693 -0.2085  0.0223 -2.7773
   88MOL   H34744021   1.496   4.685   4.805 -1.3805 -0.1170  0.0393
   88MOL   H34844022   1.496   4.820   4.893  1.7877 -0.9666  0.7364
   88MOL   H34944023   1.294   4.834   4.751  0.0111  1.5998  1.6159
   88MOL   H35044024   1.408   4.955   4.699 -0.5219  0.5018  1.1382
   88MOL   H35144025   1.399   4.798   4.604  0.7079  2.6748 -1.1005
   88MOL   C35244026   2.010   5.338   4.934  0.5047  0.7592 -0.5767
   88MOL   C35344027   2.035   5.298   4.783  0.2196 -0.1011  0.0447
   88MOL   O35444028   2.172   5.243   4.785 -0.0177  0.2468  0.5851
   88MOL   C35544029   2.174   5.125   4.705 -0.3140  0.5260 -0.4634
   88MOL   C35644030   2.322   5.090   4.688  0.1430  0.2030  0.2558
   88MOL   C35744031   2.382   5.068   4.830  0.2928 -0.7913 -0.4562
   88MOL   C35844032   2.543   5.053   4.837 -0.4197  0.3599  0.3425
   88MOL   C35944033   2.589   5.063   4.981 -0.1089  1.0906  0.1188
   88MOL   C36044034   2.542   4.938   5.055  0.0258 -0.3542 -0.5587
   88MOL   H36144035   1.945   5.421   4.961  0.0052  0.6631 -1.4574
   88MOL   H36244036   2.105   5.377   4.970  0.2069  0.1102  0.9461
   88MOL   H36344037   1.958   5.228   4.751 -0.7417  0.3506  1.3567
   88MOL   H36444038   2.128   5.149   4.609 -0.2985  1.3433 -0.2759
   88MOL   H36544039   2.109   5.050   4.750 -0.9847  2.1095  1.2908
   88MOL   H36644040   2.368   5.176   4.640 -0.0060  1.3747  2.1416
   88MOL   H36744041   2.338   5.010   4.615 -1.6986 -1.3276  1.4700
   88MOL   H36844042   2.357   5.139   4.909  0.0093  0.4165 -1.6062
   88MOL   H36944043   2.338   4.979   4.874 -0.0912  0.2419  1.2721
   88MOL   H37044044   2.572   4.961   4.786  0.3499 -1.4288  3.8133
   88MOL   H37144045   2.600   5.129   4.783  1.0621 -1.0382 -0.1181
   88MOL   H37244046   2.697   5.058   4.987 -0.2782 -1.0297  2.2932
   88MOL   H37344047   2.568   5.159   5.028  0.7872  1.2319  0.2313
   88MOL   H37444048   2.602   4.941   5.146  0.8484 -1.9209 -1.0303
   88MOL   H37544049   2.440   4.958   5.086  0.4963 -0.9769  1.4587
   88MOL   H37644050   2.550   4.853   4.988  0.0339 -1.0732  0.3486
   88MOL   C37744051   2.032   5.420   4.689 -0.3880  0.6021  0.9282
   88MOL   C37844052   1.888   5.476   4.673  0.4439  0.3639 -0.0002
   88MOL   O37944053   1.833   5.374   4.597  0.2279 -0.0391 -0.7336
   88MOL   C38044054   1.701   5.350   4.624 -0.8223  0.2082  0.0719
   88MOL   C38144055   1.657   5.250   4.519  0.4584 -0.5531  0.2009
   88MOL   C38244056   1.755   5.128   4.503 -0.2638  0.0990 -0.2742
   88MOL   C38344057   1.704   5.041   4.380 -0.1534  0.2554  0.2763
   88MOL   C38444058   1.759   5.098   4.244  0.5204  0.3407 -0.4614
   88MOL   C38544059   1.716   5.024   4.123 -0.1284 -0.1912  0.7079
   88MOL   H38644060   2.088   5.500   4.739 -0.6830  0.7137  1.0806
   88MOL   H38744061   2.081   5.413   4.592 -2.2661  0.4530 -0.0260
   88MOL   H38844062   1.829   5.497   4.761 -0.3913  1.1999 -0.7488
   88MOL   H38944063   1.636   5.436   4.610 -2.2482 -1.1273 -1.8379
   88MOL   H39044064   1.677   5.329   4.728  0.6649  2.9368  0.9857
   88MOL   H39144065   1.663   5.300   4.422  0.5898 -0.1005  0.4400
   88MOL   H39244066   1.552   5.225   4.533  0.4712  0.2055  1.7700
   88MOL   H39344067   1.858   5.157   4.483 -1.3808  3.5568 -1.3203
   88MOL   H39444068   1.745   5.068   4.594  1.2468 -0.4784 -0.4791
   88MOL   H39544069   1.726   4.935   4.393  1.0375  0.4788  0.0694
   88MOL   H39644070   1.596   5.044   4.363  0.0707 -0.2958 -1.2873
   88MOL   H39744071   1.720   5.200   4.242 -0.1807  0.0565 -1.5913
   88MOL   H39844072   1.866   5.109   4.260  0.1019  3.4249  0.5985
   88MOL   H39944073   1.756   5.066   4.030  1.6529 -0.0963  1.4988
   88MOL   H40044074   1.754   4.922   4.126 -0.9303 -0.4739  1.2006
   88MOL   H40144075   1.609   5.006   4.127 -0.6043  2.7030  2.6603
   88MOL   C40244076   1.896   5.603   4.587 -0.2945  0.1763 -0.1963
   88MOL   C40344077   1.980   5.724   4.651  0.5023  0.3769  0.4377
   88MOL   O40444078   1.927   5.740   4.787  0.5054  0.3622 -0.7126
   88MOL   C40544079   2.016   5.816   4.867  0.0933  0.5686 -0.9244
   88MOL   C40644080   1.966   5.817   5.009 -0.3072 -0.2818 -0.5300
   88MOL   C40744081   2.059   5.894   5.104 -0.1831  0.0931 -0.0279
   88MOL   C40844082   2.015   5.905   5.255  0.4245  0.4446  0.8958
   88MOL   C40944083   2.113   5.978   5.351 -0.5072  0.1734 -0.3811
   88MOL   C41044084   2.075   5.964   5.496  0.2655  0.0641  0.0569
   88MOL   H41144085   1.803   5.643   4.547  0.7507  2.5796 -0.2993
   88MOL   H41244086   1.948   5.585   4.493 -0.3859  3.1173 -0.8632
   88MOL   H41344087   2.084   5.693   4.648  0.3032 -0.3789  1.1730
   88MOL   H41444088   2.020   5.921   4.840  1.7518  1.4287  2.3666
   88MOL   H41544089   2.113   5.767   4.861  0.7713  1.8019 -0.2961
   88MOL   H41644090   1.937   5.721   5.052 -0.7849  1.4294  3.1207
   88MOL   H41744091   1.873   5.871   5.027 -0.5857 -0.8327 -0.2830
   88MOL   H41844092   2.152   5.838   5.097 -0.5035 -0.2116 -2.2717
   88MOL   H41944093   2.072   5.995   5.066  0.0491 -0.5140 -1.5992
   88MOL   H42044094   1.914   5.945   5.264 -0.2728 -1.2432  0.7462
   88MOL   H42144095   2.012   5.801   5.288 -1.4938  0.1140 -0.2870
   88MOL   H42244096   2.215   5.940   5.338 -0.6241  0.3913 -2.0656
   88MOL   H42344097   2.110   6.083   5.322 -2.2617  0.3458  0.3566
   88MOL   H42444098   2.151   6.006   5.562  0.9910 -0.7479 -0.2533
   88MOL   H42544099   1.985   6.022   5.517 -0.1378 -0.3363 -0.5589
   88MOL   H42644100   2.042   5.862   5.515  0.7758 -0.3688 -1.3497
   88MOL   C42744101   1.959   5.852   4.563 -0.1281 -0.0921  0.6040
   88MOL   C42844102   2.091   5.927   4.542 -0.7031 -0.6403  0.4477
   88MOL   O42944103   2.156   5.860   4.428  0.2441  0.4748  0.0030
   88MOL   C43044104   2.297   5.857   4.437  0.6903  0.4148 -0.3863
   88MOL   C43144105   2.360   5.821   4.306 -0.6478 -0.0211 -0.1819
   88MOL   C43244106   2.291   5.897   4.195 -0.4443 -0.5117  0.0803
   88MOL   C43344107   2.369   5.902   4.062  0.5762  1.2088 -0.0951
   88MOL   C43444108   2.336   5.782   3.968  0.2901  0.1301  0.2297
   88MOL   C43544109   2.423   5.788   3.843 -0.3173  0.2091  0.1855
   88MOL   H43644110   1.914   5.835   4.465  1.7832  0.6715 -0.4161
   88MOL   H43744111   1.890   5.922   4.609 -1.5726 -0.3196 -1.1511
   88MOL   H43844112   2.149   5.941   4.633 -0.1571  0.1400 -0.0052
   88MOL   H43944113   2.320   5.795   4.523 -2.5226 -2.0903 -1.2402
   88MOL   H44044114   2.331   5.960   4.446  1.0344  0.2000  0.7590
   88MOL   H44144115   2.347   5.715   4.287  0.4756  0.1334 -1.9236
   88MOL   H44244116   2.468   5.813   4.312 -0.8210 -2.4743 -0.0102
   88MOL   H44344117   2.192   5.852   4.190  0.8130 -3.3139 -0.4825
   88MOL   H44444118   2.279   6.001   4.227  0.6981 -0.3723  0.0797
   88MOL   H44544119   2.341   5.993   4.010 -1.4639 -0.1587 -1.4608
   88MOL   H44644120   2.477   5.907   4.075  0.6181 -4.3039  3.5492
   88MOL   H44744121   2.342   5.689   4.023  0.3447  1.2379  2.1386
   88MOL   H44844122   2.234   5.799   3.933  0.9431 -1.6977 -2.7155
   88MOL   H44944123   2.522   5.772   3.884 -0.1540 -1.9401 -1.0067
   88MOL   H45044124   2.397   5.697   3.790  2.5819  0.6801 -2.1816
   88MOL   H45144125   2.414   5.880   3.784 -3.5161  0.1664  0.5225
   88MOL   C45244126   2.069   6.075   4.496 -0.0357 -0.0835 -0.2600
   88MOL   C45344127   2.048   6.175   4.614  0.0156  0.7935 -0.2919
   88MOL   O45444128   1.975   6.290   4.568 -0.9375  0.4421 -0.1253
   88MOL   C45544129   1.836   6.269   4.569  0.1498  0.5599  0.2393
   88MOL   C45644130   1.769   6.382   4.483  0.4787  0.1578 -0.1362
   88MOL   C45744131   1.622   6.391   4.521 -0.4537  0.6131 -0.0901
   88MOL   C45844132   1.549   6.481   4.424  0.5230  0.2013 -0.1748
   88MOL   C45944133   1.408   6.528   4.473  0.3849 -0.0585 -0.1386
   88MOL   C46044134   1.332   6.601   4.359 -0.3764  0.2888 -0.1835
   88MOL   H46144135   2.159   6.099   4.439  1.9801 -1.9941  1.9493
   88MOL   H46244136   1.982   6.093   4.433 -1.6112  0.1429  1.9177
   88MOL   H46344137   1.994   6.141   4.702  0.9128  1.4900  0.5277
   88MOL   H46444138   1.812   6.283   4.674 -0.3743 -1.1283  0.3611
   88MOL   H46544139   1.812   6.167   4.538  0.2579  0.5169  0.2979
   88MOL   H46644140   1.788   6.339   4.385 -1.8381  0.3311 -0.6829
   88MOL   H46744141   1.825   6.475   4.476 -0.1685  0.5451 -0.2297
   88MOL   H46844142   1.572   6.294   4.515  1.2341 -0.1922 -1.7793
   88MOL   H46944143   1.609   6.436   4.619  1.1866 -2.8976  1.8459
   88MOL   H47044144   1.614   6.569   4.418  0.1191  0.3434 -2.8383
   88MOL   H47144145   1.547   6.440   4.324 -0.5051 -0.1821  0.0027
   88MOL   H47244146   1.359   6.442   4.518 -0.0075 -0.3983 -1.1877
   88MOL   H47344147   1.431   6.594   4.556  1.7735 -0.3558 -0.2687
   88MOL   H47444148   1.313   6.531   4.278  0.9089  0.0135 -0.2529
   88MOL   H47544149   1.237   6.642   4.392 -0.4443  1.6067 -1.9403
   88MOL   H47644150   1.394   6.683   4.322  1.0609 -1.2690 -1.3065
   88MOL   C47744151   2.181   6.229   4.668 -0.4346  0.1986 -0.0029
   88MOL   C47844152   2.169   6.322   4.790 -0.3067  0.2596 -0.0688
   88MOL   O47944153   2.139   6.232   4.903 -0.4239  0.3226  0.8055
   88MOL   C48044154   2.121   6.290   5.030  0.4759 -0.2480 -0.2769
   88MOL   C48144155   1.971   6.320   5.042 -0.5615 -0.2006 -0.2992
   88MOL   C48244156   1.878   6.209   5.028 -0.1454 -0.0241 -0.5181
   88MOL   C48344157   1.728   6.245   5.053  0.4001  0.0166  0.6336
   88MOL   C48444158   1.621   6.130   5.035 -0.3754 -0.0901 -0.5088
   88MOL   C48544159   1.586   6.107   4.885 -0.3098 -0.5040 -0.4621
   88MOL   H48644160   2.242   6.145   4.699 -1.7046 -1.1600 -1.0627
   88MOL   H48744161   2.237   6.279   4.589 -2.0155 -2.0510 -2.6270
   88MOL   H48844162   2.266   6.372   4.802 -1.4144  2.5611 -0.4118
   88MOL   H48944163   2.181   6.381   5.031  2.7246 -1.6717  0.3968
   88MOL   H49044164   2.148   6.232   5.119  0.2650  0.1881  0.0703
   88MOL   H49144165   1.936   6.397   4.972  0.1932  0.9178  0.5415
   88MOL   H49244166   1.956   6.361   5.142  0.6194 -0.4280 -0.0232
   88MOL   H49344167   1.890   6.177   4.925  2.9143 -0.9313  0.0811
   88MOL   H49444168   1.904   6.129   5.097 -2.1872  0.1158  0.4559
   88MOL   H49544169   1.715   6.285   5.153  0.4407  0.4396  0.4688
   88MOL   H49644170   1.701   6.323   4.982  2.2680 -1.6987 -2.0543
   88MOL   H49744171   1.669   6.047   5.087  0.6398 -0.2584 -1.7036
   88MOL   H49844172   1.528   6.157   5.084 -0.4467  0.1312 -0.7687
   88MOL   H49944173   1.676   6.087   4.828  0.4641 -1.2069  0.9703
   88MOL   H50044174   1.528   6.018   4.864 -2.5327  0.4232  1.5678
   88MOL   H50144175   1.530   6.192   4.847 -1.7761 -2.2315 -2.2259
   88MOL   H50244176   2.091   6.392   4.760 -1.6365 -0.5789  1.3915
   89MOL     C144177   0.448   5.450   1.111  0.0149 -0.3136 -0.8366
   89MOL     C244178   0.391   5.407   1.241  0.4677 -0.1222 -0.3217
   89MOL     O344179   0.496   5.354   1.320 -0.6461 -0.0834 -1.2507
   89MOL     C444180   0.588   5.448   1.375  0.9282 -0.2321 -0.1901
   89MOL     C544181   0.689   5.361   1.442  0.4931 -0.2875  0.4282
   89MOL     C644182   0.828   5.422   1.451  0.2353  0.2460  0.6050
   89MOL     C744183   0.917   5.352   1.556 -0.4952  0.0715  0.6098
   89MOL     C844184   1.063   5.394   1.551 -0.6472 -0.2208 -0.1817
   89MOL     C944185   1.146   5.313   1.449 -0.2740 -0.5929 -0.2414
   89MOL    H1044186   0.488   5.364   1.058  0.3276 -0.4016 -0.4580
   89MOL    H1144187   0.372   5.507   1.058 -0.3169 -0.1833 -0.2271
   89MOL    H1244188   0.350   5.489   1.299  0.4144 -1.3983  1.4999
   89MOL    H1344189   0.534   5.497   1.456  2.3399 -0.1014  0.7052
   89MOL    H1444190   0.637   5.519   1.308 -0.3578  0.8755  0.0133
   89MOL    H1544191   0.709   5.277   1.375 -0.3409  0.6147 -0.9973
   89MOL    H1644192   0.660   5.331   1.542  1.0332 -0.2544  0.5937
   89MOL    H1744193   0.878   5.411   1.355  0.5887 -0.8384  0.9093
   89MOL    H1844194   0.807   5.525   1.480 -0.9291 -0.4253  2.1793
   89MOL    H1944195   0.875   5.378   1.653 -0.3864 -1.2143  1.0168
   89MOL    H2044196   0.907   5.245   1.537 -2.0399  0.4176 -0.6849
   89MOL    H2144197   1.108   5.395   1.650  0.3730 -0.3197 -0.6439
   89MOL    H2244198   1.068   5.495   1.512  0.3086 -0.8717 -1.7919
   89MOL    H2344199   1.253   5.316   1.472 -0.3223 -1.0086  0.0541
   89MOL    H2444200   1.136   5.204   1.448 -1.5910 -0.5003  1.1916
   89MOL    H2544201   1.130   5.344   1.346  2.6369 -0.0722 -0.5931
   89MOL    H2644202   0.528   5.523   1.121 -0.3939  0.1875 -1.1906
   89MOL    C2744203   0.286   5.298   1.222  0.0451 -0.0697 -0.4351
   89MOL    C2844204   0.220   5.252   1.349  0.3773 -0.4410 -0.2784
   89MOL    O2944205   0.119   5.344   1.400 -0.2260 -0.4125 -0.0815
   89MOL    C3044206   0.148   5.412   1.521  0.0020  0.6776  0.0922
   89MOL    C3144207   0.030   5.484   1.571  0.3566 -0.3582 -0.1596
   89MOL    C3244208   0.061   5.598   1.668 -0.5895 -0.4556 -0.2581
   89MOL    C3344209   7.727   5.680   1.725 -0.5122 -0.5058 -0.1261
   89MOL    C3444210   0.001   5.803   1.807  0.4471  0.1811 -0.2387
   89MOL    C3544211   7.655   5.876   1.865  0.0481  0.0050 -0.1542
   89MOL    H3644212   0.203   5.327   1.158  1.1265  0.3199 -1.6940
   89MOL    H3744213   0.342   5.214   1.182  1.2491  0.7144 -0.4150
   89MOL    H3844214   0.302   5.233   1.417 -0.1648 -0.8334  0.2707
   89MOL    H3944215   0.219   5.488   1.487 -0.4152  0.6532 -0.8232
   89MOL    H4044216   0.199   5.356   1.600 -0.0074  3.2047  1.9352
   89MOL    H4144217   7.730   5.420   1.615 -1.0335  0.9412 -0.6812
   89MOL    H4244218   7.759   5.529   1.484 -1.3505 -0.7105  0.5731
   89MOL    H4344219   0.112   5.554   1.754  0.1142  0.0286 -0.4253
   89MOL    H4444220   0.135   5.655   1.613  0.1138 -2.4046 -1.3811
   89MOL    H4544221   7.670   5.720   1.641  1.7903  0.7167 -1.1661
   89MOL    H4644222   7.655   5.623   1.783  0.7498 -1.4193  0.5946
   89MOL    H4744223   0.059   5.768   1.893  0.6392  0.8415 -0.0966
   89MOL    H4844224   0.060   5.874   1.750  0.2484  0.7812  0.2906
   89MOL    H4944225   7.665   5.950   1.944 -0.0630 -1.4405  1.2576
   89MOL    H5044226   7.601   5.929   1.788  0.4829 -0.9603 -1.1350
   89MOL    H5144227   7.582   5.809   1.911  0.2355  0.4964  0.8719
   89MOL    C5244228   0.135   5.125   1.332  0.3060  0.5017 -0.1558
   89MOL    C5344229   0.104   5.058   1.474  0.3619  0.4521 -0.3794
   89MOL    O5444230   7.754   4.992   1.473 -0.3836  0.1286 -0.0841
   89MOL    C5544231   7.650   5.069   1.525  0.0105 -0.2791 -0.4003
   89MOL    C5644232   7.526   4.991   1.521  0.1139 -0.2811  0.1102
   89MOL    C5744233   7.487   4.942   1.377  0.0284  0.1396 -0.3214
   89MOL    C5844234   7.359   4.871   1.394  0.2884  0.0639 -0.2324
   89MOL    C5944235   7.308   4.804   1.264 -0.7556  0.7201  0.4798
   89MOL    C6044236   7.173   4.744   1.282 -0.4406 -0.4571  0.1537
   89MOL    H6144237   0.190   5.045   1.282  0.2628  0.5002 -0.2022
   89MOL    H6244238   0.044   5.146   1.275 -0.3210  6.0459  2.4793
   89MOL    H6344239   0.099   5.141   1.545 -1.9769  1.0648 -1.1945
   89MOL    H6444240   7.645   5.151   1.453  0.5813  0.4669  0.4059
   89MOL    H6544241   7.677   5.109   1.622  0.2794  1.1363 -1.0465
   89MOL    H6644242   7.445   5.054   1.559  0.9744  1.8386 -1.4893
   89MOL    H6744243   7.528   4.909   1.593 -2.6618  0.3095  0.9163
   89MOL    H6844244   7.482   5.033   1.318  0.1960 -0.3104 -1.0323
   89MOL    H6944245   7.564   4.876   1.336  1.3299  0.4410  1.5467
   89MOL    H7044246   7.392   4.792   1.462  1.7115  0.6709 -0.2027
   89MOL    H7144247   7.290   4.945   1.436 -0.4718 -0.0234 -1.3060
   89MOL    H7244248   7.307   4.877   1.183  1.4917  0.9643  0.6292
   89MOL    H7344249   7.384   4.730   1.238 -1.3015  0.5530 -0.6870
   89MOL    H7444250   7.151   4.696   1.187 -2.5800  0.1269  0.3198
   89MOL    H7544251   7.185   4.653   1.341  0.7933 -0.2356  0.2558
   89MOL    H7644252   7.097   4.815   1.313  0.0383  0.4351 -0.6851
   89MOL    C7744253   0.207   4.952   1.514 -0.5102 -0.4464  0.5057
   89MOL    C7844254   0.302   4.997   1.619  0.0282  0.2265  0.8934
   89MOL    O7944255   0.416   4.907   1.624  0.0042 -0.3760  0.3974
   89MOL    C8044256   0.545   4.961   1.595 -0.0742 -0.2799  0.5785
   89MOL    C8144257   0.572   4.951   1.444  0.2152  0.0493  0.4825
   89MOL    C8244258   0.726   4.970   1.403  0.4257  0.1136 -0.5010
   89MOL    C8344259   0.805   4.845   1.401 -0.5009 -0.7484 -0.1321
   89MOL    C8444260   0.956   4.869   1.374 -0.5391  1.0981  0.2395
   89MOL    C8544261   1.023   4.745   1.439  0.6689  0.2859  0.6352
   89MOL    H8644262   0.256   4.909   1.427 -1.6564 -0.6765 -0.0360
   89MOL    H8744263   0.171   4.859   1.559  1.8657 -1.4376  0.4178
   89MOL    H8844264   0.335   5.097   1.590 -0.0701  0.7015  2.3447
   89MOL    H8944265   0.605   4.888   1.650  1.8565  0.1528 -0.9140
   89MOL    H9044266   0.562   5.063   1.630  0.0038  0.1585 -0.7427
   89MOL    H9144267   0.506   5.019   1.390 -0.8148 -1.0330  0.3721
   89MOL    H9244268   0.550   4.847   1.421  2.7754 -0.3636 -0.2171
   89MOL    H9344269   0.736   4.992   1.297 -0.6555  2.6850 -0.1217
   89MOL    H9444270   0.769   5.049   1.466 -0.8794  0.8468 -0.5159
   89MOL    H9544271   0.789   4.815   1.505  2.6533  1.2732  1.0226
   89MOL    H9644272   0.759   4.777   1.330  1.4692 -0.6524 -1.5281
   89MOL    H9744273   0.964   4.878   1.266 -0.6345 -0.8991  0.0315
   89MOL    H9844274   0.985   4.967   1.411  1.4059  2.0708 -3.6551
   89MOL    H9944275   1.131   4.751   1.427  0.7414 -2.5333 -0.5422
   89MOL   H10044276   1.019   4.749   1.548  0.1207 -0.8477  0.6665
   89MOL   H10144277   0.978   4.652   1.405 -0.6432  0.8163  0.8825
   89MOL   C10244278   0.242   5.013   1.753 -0.3897  0.8054 -0.3832
   89MOL   C10344279   0.332   5.103   1.845 -0.2402  0.3310  0.1031
   89MOL   O10444280   0.336   5.242   1.807 -0.6049 -0.1901  0.0448
   89MOL   C10544281   0.439   5.323   1.857  0.0026 -0.4621  0.0595
   89MOL   C10644282   0.477   5.449   1.780 -0.8857 -0.2535  0.0927
   89MOL   C10744283   0.612   5.503   1.811 -0.6215  0.4902 -0.5845
   89MOL   C10844284   0.635   5.626   1.718  0.3018 -0.4372 -0.0954
   89MOL   C10944285   0.775   5.695   1.737  0.0908 -0.1978 -0.0778
   89MOL   C11044286   0.793   5.809   1.634 -0.2062 -0.7569  0.1910
   89MOL   H11144287   0.142   5.057   1.752 -0.2584  1.1169 -0.0837
   89MOL   H11244288   0.216   4.917   1.797  0.5262  1.3287  1.3445
   89MOL   H11344289   0.428   5.054   1.846  1.0773  2.7675 -0.9364
   89MOL   H11444290   0.526   5.259   1.871 -0.2611 -0.6652  0.7942
   89MOL   H11544291   0.415   5.347   1.960 -0.5539  1.6060 -0.5210
   89MOL   H11644292   0.390   5.514   1.794 -1.8428 -1.3185 -0.8372
   89MOL   H11744293   0.472   5.422   1.675  2.0532  0.1355 -0.1867
   89MOL   H11844294   0.609   5.524   1.918 -4.7059 -2.0503 -0.0954
   89MOL   H11944295   0.690   5.427   1.803  0.5471  1.6450 -0.2759
   89MOL   H12044296   0.636   5.589   1.616 -0.5534  2.1802 -1.0874
   89MOL   H12144297   0.559   5.703   1.730  0.3191 -0.3289 -0.7001
   89MOL   H12244298   0.770   5.727   1.841 -2.2227 -0.0179 -0.2187
   89MOL   H12344299   0.866   5.634   1.735  1.2601  1.5219 -0.4845
   89MOL   H12444300   0.795   5.767   1.534 -1.7648  2.5785 -1.3280
   89MOL   H12544301   0.720   5.889   1.649 -0.0915 -0.4796 -0.7334
   89MOL   H12644302   0.895   5.846   1.645 -0.5512 -0.1421  1.4661
   89MOL   C12744303   0.276   5.095   1.988 -0.3456  0.5332 -0.2437
   89MOL   C12844304   0.279   4.961   2.063 -0.3354 -0.9617  0.4458
   89MOL   O12944305   0.179   4.874   2.016  0.0949  0.6234 -0.7281
   89MOL   C13044306   0.223   4.742   1.979 -0.3458  0.3903  0.3470
   89MOL   C13144307   0.097   4.653   1.953 -0.4903 -0.1322 -0.4860
   89MOL   C13244308   0.062   4.659   1.803  0.0582 -0.3443 -0.6823
   89MOL   C13344309   7.703   4.592   1.761 -0.2646  0.6399 -0.1395
   89MOL   C13444310   7.680   4.615   1.611 -1.1182  0.7333  0.4183
   89MOL   C13544311   7.544   4.555   1.571  0.4358  0.6379  0.6445
   89MOL   H13644312   0.335   5.159   2.054 -0.3130 -1.1581  1.4278
   89MOL   H13744313   0.179   5.146   1.987 -0.4348  0.4860  2.5313
   89MOL   H13844314   0.375   4.909   2.056 -0.5685 -1.3329 -0.0353
   89MOL   H13944315   0.272   4.707   2.069 -1.6509  0.7474  1.2074
   89MOL   H14044316   0.290   4.729   1.893 -0.9778  0.0401 -0.1007
   89MOL   H14144317   0.011   4.678   2.015 -0.1582  1.2317 -0.5566
   89MOL   H14244318   0.123   4.551   1.981  1.8762  0.3388 -0.7966
   89MOL   H14344319   0.057   4.766   1.781 -0.0769 -0.6005 -1.9274
   89MOL   H14444320   0.137   4.625   1.732  1.8947  1.4248  0.3374
   89MOL   H14544321   7.713   4.486   1.786  2.2014  0.9892  0.5105
   89MOL   H14644322   7.626   4.634   1.826 -0.8287  0.3275 -0.6032
   89MOL   H14744323   7.675   4.724   1.606 -2.5746  0.6429 -0.4391
   89MOL   H14844324   7.768   4.597   1.550 -1.7037  1.6740 -0.7405
   89MOL   H14944325   7.520   4.591   1.471  0.1090  1.3211  0.9712
   89MOL   H15044326   7.548   4.446   1.566 -0.2982  0.6305  0.1821
   89MOL   H15144327   7.468   4.583   1.643  1.1262  0.1003  1.6023
   89MOL   C15244328   0.262   4.976   2.213 -0.0910 -0.2093 -0.3626
   89MOL   C15344329   0.392   5.004   2.295 -0.1255 -0.3042  0.3451
   89MOL   O15444330   0.431   5.141   2.283 -0.5645  0.0160 -0.6514
   89MOL   C15544331   0.563   5.162   2.229  0.3854 -0.0214 -0.1508
   89MOL   C15644332   0.635   5.281   2.290 -0.2797 -0.4041  0.3268
   89MOL   C15744333   0.750   5.317   2.191 -0.1078  0.9375  0.1823
   89MOL   C15844334   0.842   5.433   2.251  0.0258 -0.0539  0.0111
   89MOL   C15944335   0.964   5.467   2.161 -0.4851 -0.0965  0.5029
   89MOL   C16044336   0.924   5.509   2.023 -0.3391 -0.1158  0.2187
   89MOL   H16144337   0.181   5.046   2.232 -0.1224 -0.5682  0.8076
   89MOL   H16244338   0.218   4.886   2.255  0.9075 -1.1061 -1.2100
   89MOL   H16344339   0.468   4.943   2.246  1.2328  0.9654  0.7992
   89MOL   H16444340   0.555   5.162   2.120 -2.5284  0.2265  0.0245
   89MOL   H16544341   0.631   5.080   2.248 -0.2578 -0.8670 -1.4166
   89MOL   H16644342   0.671   5.273   2.393 -0.1855  2.2137  0.5459
   89MOL   H16744343   0.568   5.366   2.301  1.4797  1.1400 -0.5264
   89MOL   H16844344   0.810   5.229   2.168 -2.3365 -1.1150  2.0197
   89MOL   H16944345   0.701   5.341   2.096 -1.3451 -0.0069  0.5764
   89MOL   H17044346   0.789   5.524   2.278 -1.8136 -1.1079  0.0277
   89MOL   H17144347   0.892   5.399   2.342 -0.3891  2.2939  1.1409
   89MOL   H17244348   1.039   5.537   2.198  0.7241  0.1172 -2.2504
   89MOL   H17344349   1.026   5.378   2.151 -1.0784 -0.6464  1.6016
   89MOL   H17444350   0.881   5.426   1.967 -1.3375  0.8448 -0.4868
   89MOL   H17544351   0.852   5.591   2.026 -1.1536 -0.7041 -1.8675
   89MOL   H17644352   1.008   5.539   1.960  0.9548 -0.8643  1.5772
   89MOL   C17744353   0.389   4.982   2.448  0.4413  0.3099 -0.1352
   89MOL   C17844354   0.355   4.829   2.482 -0.0330 -0.2656  0.0001
   89MOL   O17944355   0.484   4.765   2.486 -0.3699  0.3107  0.2133
   89MOL   C18044356   0.486   4.633   2.454  0.5757 -0.1028 -0.2831
   89MOL   C18144357   0.565   4.548   2.546 -0.0960  0.6030 -0.5719
   89MOL   C18244358   0.556   4.398   2.526 -0.2784 -0.1958  0.3051
   89MOL   C18344359   0.646   4.317   2.617 -0.3262  0.6010 -0.2070
   89MOL   C18444360   0.626   4.166   2.625  0.5194 -0.5216 -0.6225
   89MOL   C18544361   0.499   4.120   2.694  0.1855 -0.0157 -0.2377
   89MOL   H18644362   0.482   5.015   2.495  0.1535 -0.9953  1.3620
   89MOL   H18744363   0.314   5.054   2.480 -1.2701 -1.7359  0.5832
   89MOL   H18844364   0.296   4.781   2.404  1.7969  0.0317 -1.5913
   89MOL   H18944365   0.528   4.631   2.353  0.7602  1.6986 -0.2476
   89MOL   H19044366   0.388   4.589   2.439  0.9453 -1.9210  2.2794
   89MOL   H19144367   0.525   4.569   2.645 -0.5082  3.7623 -1.3578
   89MOL   H19244368   0.668   4.583   2.557  0.5150 -1.0147 -1.0009
   89MOL   H19344369   0.448   4.379   2.533 -0.5418  0.7721 -0.9746
   89MOL   H19444370   0.571   4.375   2.421 -0.1070 -1.7075  0.6525
   89MOL   H19544371   0.748   4.339   2.583 -0.7510  2.8118 -0.1436
   89MOL   H19644372   0.646   4.361   2.717 -1.6432 -1.3405  0.6801
   89MOL   H19744373   0.615   4.112   2.530 -0.8621 -1.3880  0.0119
   89MOL   H19844374   0.705   4.112   2.677 -0.5179 -1.1401  0.3425
   89MOL   H19944375   0.414   4.151   2.634  2.1152  3.0809 -1.5386
   89MOL   H20044376   0.494   4.012   2.692 -0.5094 -0.0125  0.8672
   89MOL   H20144377   0.492   4.158   2.797  1.4937  1.2691 -0.5986
   89MOL   C20244378   0.282   4.804   2.619 -0.1465 -0.1207  0.5013
   89MOL   C20344379   0.160   4.888   2.651 -0.1312 -0.1909 -0.4163
   89MOL   O20444380   0.105   4.833   2.772  0.1543  0.4652 -0.4390
   89MOL   C20544381   0.175   4.870   2.893  0.2610  0.4649  0.0277
   89MOL   C20644382   0.107   4.782   2.998  0.0673  0.6588 -0.2604
   89MOL   C20744383   7.736   4.831   3.013  0.0766  0.1927 -0.1577
   89MOL   C20844384   7.646   4.730   3.090  0.3371 -0.5313 -1.0535
   89MOL   C20944385   7.497   4.776   3.083  0.6546  0.0297  0.2140
   89MOL   C21044386   7.468   4.916   3.149 -0.0569 -0.4111 -0.1327
   89MOL   H21144387   0.244   4.702   2.610  1.9990 -0.6632 -3.5857
   89MOL   H21244388   0.348   4.808   2.705 -0.4825  1.7713  0.7061
   89MOL   H21344389   0.186   4.993   2.663 -1.6695  0.0268  1.1843
   89MOL   H21444390   0.170   4.979   2.901  0.9763  0.5621 -0.7092
   89MOL   H21544391   0.278   4.833   2.889  0.3828  0.4573  2.6855
   89MOL   H21644392   0.159   4.787   3.093  0.1137 -0.9449 -0.1992
   89MOL   H21744393   0.120   4.681   2.959 -1.4974  1.0161 -1.7949
   89MOL   H21844394   7.737   4.928   3.063 -1.2873  0.7628 -1.2308
   89MOL   H21944395   7.689   4.846   2.916  1.6186 -1.4903 -1.2094
   89MOL   H22044396   7.655   4.626   3.057 -0.9191 -0.7600 -0.7122
   89MOL   H22144397   7.672   4.729   3.197 -1.5595 -0.2459 -0.5866
   89MOL   H22244398   7.462   4.780   2.980  2.0078  1.1889 -0.2147
   89MOL   H22344399   7.454   4.691   3.136  3.9920 -3.1409 -1.9160
   89MOL   H22444400   7.524   5.001   3.109  0.2533 -0.7928 -0.5109
   89MOL   H22544401   7.361   4.926   3.135 -0.0364 -1.1476 -0.8949
   89MOL   H22644402   7.483   4.918   3.257  2.2629 -0.9174 -0.4117
   89MOL   C22744403   0.047   4.887   2.545 -0.5016 -0.3717 -0.1252
   89MOL   C22844404   7.714   4.987   2.575  0.0217 -0.1407 -0.1859
   89MOL   O22944405   7.674   5.066   2.468  0.3529  0.6175  0.3712
   89MOL   C23044406   7.762   5.168   2.440  0.2097 -0.0090  0.5855
   89MOL   C23144407   7.695   5.250   2.326  0.0672 -0.0088 -0.2207
   89MOL   C23244408   7.674   5.165   2.199  0.5747 -0.4118 -0.3812
   89MOL   C23344409   7.657   5.250   2.075 -0.1459 -0.3488  0.2978
   89MOL   C23444410   7.643   5.178   1.938 -0.5900  0.3571 -0.2443
   89MOL   C23544411   7.524   5.085   1.929  1.0301  0.1583  0.7890
   89MOL   H23644412   0.067   4.901   2.439 -1.8872 -1.0212 -0.4789
   89MOL   H23744413   0.013   4.783   2.544 -1.3319 -0.1259  1.0928
   89MOL   H23844414   7.760   5.047   2.654  0.4140 -0.1679 -0.3960
   89MOL   H23944415   0.071   5.125   2.389 -0.5463 -0.1805 -0.5590
   89MOL   H24044416   0.009   5.227   2.528 -0.7777  2.1744 -0.5736
   89MOL   H24144417   7.760   5.336   2.307 -1.7016  1.0563 -1.5966
   89MOL   H24244418   7.604   5.297   2.363 -0.0754 -1.0089  0.7123
   89MOL   H24344419   7.753   5.091   2.184 -0.6655 -1.8584  0.0907
   89MOL   H24444420   7.588   5.100   2.215  0.5151  0.3110  2.6164
   89MOL   H24544421   7.575   5.322   2.075 -1.6110 -1.9968  0.1844
   89MOL   H24644422   7.747   5.309   2.054  0.4428 -0.5829  2.0900
   89MOL   H24744423   7.641   5.256   1.862 -0.4654 -0.2741 -0.9019
   89MOL   H24844424   7.727   5.112   1.917 -1.3529 -0.2665 -1.3606
   89MOL   H24944425   7.514   5.017   2.014 -0.2998  0.7525  1.1171
   89MOL   H25044426   7.430   5.136   1.914 -1.5191 -4.0756  1.6110
   89MOL   H25144427   7.547   5.017   1.847  0.4101  0.9986 -0.0940
   89MOL   C25244428   7.584   4.922   2.623  0.0506 -0.6494 -0.0787
   89MOL   C25344429   7.468   5.015   2.678  0.4744 -0.0226 -0.1394
   89MOL   O25444430   7.515   5.087   2.794 -0.2286 -0.5470  1.0244
   89MOL   C25544431   7.537   5.231   2.793 -1.2160  0.4931  0.0336
   89MOL   C25644432   7.582   5.276   2.936  0.0893 -1.0669 -0.2923
   89MOL   C25744433   7.726   5.231   2.962 -0.5036  0.1212 -0.0902
   89MOL   C25844434   7.771   5.255   3.106 -0.5190 -0.4208 -0.3652
   89MOL   C25944435   0.134   5.215   3.137 -0.3003  0.3125  0.3249
   89MOL   C26044436   0.153   5.221   3.291  0.1683  0.0056 -0.9023
   89MOL   H26144437   7.544   4.870   2.536  0.9168 -1.9888  0.3201
   89MOL   H26244438   7.607   4.838   2.688  2.6997 -0.2802 -0.4818
   89MOL   H26344439   7.429   5.083   2.603 -0.7639  1.1309  1.5134
   89MOL   H26444440   7.440   5.280   2.779 -0.4363  2.0603 -0.0185
   89MOL   H26544441   7.598   5.264   2.709 -0.6159 -0.5531  0.0570
   89MOL   H26644442   7.507   5.237   3.005 -0.4105  1.0401  0.3987
   89MOL   H26744443   7.557   5.381   2.954 -1.4017 -1.7764  1.9711
   89MOL   H26844444   7.746   5.128   2.933 -0.8048  0.2985 -0.9484
   89MOL   H26944445   0.011   5.290   2.894 -0.0369  0.1376  0.3527
   89MOL   H27044446   7.760   5.361   3.128 -0.2975 -0.2231 -1.2122
   89MOL   H27144447   7.709   5.192   3.170  2.7890 -2.1476  1.2541
   89MOL   H27244448   0.153   5.111   3.109 -0.8847  0.0636  0.8334
   89MOL   H27344449   0.208   5.266   3.076 -1.2952  1.1204 -0.1983
   89MOL   H27444450   0.078   5.164   3.346 -0.4438  0.7077 -1.0052
   89MOL   H27544451   0.252   5.182   3.315 -0.5615 -3.2764 -2.9809
   89MOL   H27644452   0.158   5.322   3.333 -0.0849  0.4389 -1.9060
   89MOL   C27744453   7.352   4.924   2.732  0.9681  0.7554 -1.1345
   89MOL   C27844454   7.226   4.924   2.644 -0.5247 -0.2471  0.1755
   89MOL   O27944455   7.265   4.862   2.525  0.1904 -0.1962  0.0246
   89MOL   C28044456   7.209   4.904   2.406  0.1575  0.1138  0.0384
   89MOL   C28144457   7.268   5.034   2.360 -0.0868 -0.5694  0.3719
   89MOL   C28244458   7.206   5.086   2.223  0.4830  0.0011 -0.1124
   89MOL   C28344459   7.256   5.224   2.188 -0.3725 -0.7965 -0.1887
   89MOL   C28444460   7.201   5.276   2.054 -0.1021  0.1535  1.5707
   89MOL   C28544461   7.270   5.405   2.010  0.2138  1.0132 -0.0635
   89MOL   H28644462   7.395   4.824   2.744  1.9274  1.3135  0.3039
   89MOL   H28744463   7.332   4.946   2.837 -0.6889 -1.8951 -0.8552
   89MOL   H28844464   7.204   5.030   2.630  1.7397  0.1689 -0.5166
   89MOL   H28944465   7.100   4.891   2.409  0.1828 -0.4407 -1.2477
   89MOL   H29044466   7.239   4.832   2.330  2.7813 -1.8819  2.8286
   89MOL   H29144467   7.375   5.022   2.345 -0.0084 -0.8989  1.1528
   89MOL   H29244468   7.251   5.117   2.429  0.1948 -0.4627  0.3125
   89MOL   H29344469   7.221   5.023   2.135 -1.1895 -0.4954 -0.0677
   89MOL   H29444470   7.099   5.106   2.236  0.5616 -0.8231  2.1425
   89MOL   H29544471   7.216   5.291   2.265 -0.9272  0.6003 -1.6598
   89MOL   H29644472   7.365   5.227   2.192 -0.4110 -0.6157  0.9548
   89MOL   H29744473   7.224   5.194   1.985 -1.9115  1.4314 -0.6221
   89MOL   H29844474   7.093   5.287   2.064 -0.7338 -3.0228 -0.8516
   89MOL   H29944475   7.239   5.441   1.912 -1.0887 -0.3526 -0.1716
   89MOL   H30044476   7.247   5.487   2.079 -1.0081  0.5780  0.0627
   89MOL   H30144477   7.377   5.385   2.007  0.1313  0.5094  0.3111
   89MOL   C30244478   7.116   4.825   2.694 -0.3312  0.2728 -0.2185
   89MOL   C30344479   7.084   4.861   2.850  0.3458  0.3651  0.2240
   89MOL   O30444480   6.981   4.777   2.898  0.0967 -0.1079 -0.7611
   89MOL   C30544481   7.005   4.642   2.925 -0.2435  0.1673 -0.6344
   89MOL   C30644482   6.877   4.573   2.961  1.0898  0.4990 -0.3637
   89MOL   C30744483   6.839   4.595   3.105  0.2121 -0.3089 -1.0438
   89MOL   C30844484   6.704   4.552   3.155  0.1346  0.3721  0.4981
   89MOL   C30944485   6.702   4.546   3.303 -0.1052  0.5178  0.1442
   89MOL   C31044486   6.558   4.523   3.349 -0.0227  0.4572 -0.4158
   89MOL   H31144487   7.025   4.840   2.635 -0.6683 -0.4370  0.1081
   89MOL   H31244488   7.157   4.725   2.687 -1.5568 -0.2836  0.4076
   89MOL   H31344489   7.175   4.845   2.908  0.6891 -1.9511 -0.8885
   89MOL   H31444490   7.090   4.629   2.992  0.8339  2.1772 -1.5583
   89MOL   H31544491   7.025   4.586   2.834 -1.3022  0.9580 -1.3798
   89MOL   H31644492   6.894   4.466   2.947  0.0886  0.2699  0.1036
   89MOL   H31744493   6.801   4.620   2.898  0.2484 -0.4235 -0.0620
   89MOL   H31844494   6.916   4.534   3.153  0.7783  1.1817 -0.0014
   89MOL   H31944495   6.862   4.695   3.145  2.2210 -1.9387  2.0972
   89MOL   H32044496   6.635   4.619   3.104 -0.3501 -0.5760 -0.1072
   89MOL   H32144497   6.684   4.458   3.104  0.2684  2.0957 -2.8466
   89MOL   H32244498   6.769   4.469   3.340  0.6795  1.2826  0.3145
   89MOL   H32344499   6.737   4.635   3.354 -0.9946  0.1954  1.3445
   89MOL   H32444500   6.553   4.507   3.457 -0.9331  1.1547 -0.3502
   89MOL   H32544501   6.487   4.603   3.330  0.2429  0.3759 -1.7868
   89MOL   H32644502   6.521   4.445   3.282  0.2101  1.1318 -1.3447
   89MOL   C32744503   7.027   4.999   2.872  0.6140 -0.1097 -0.4041
   89MOL   C32844504   7.006   5.039   3.020  0.1943 -0.1931  0.3909
   89MOL   O32944505   7.003   5.181   3.022 -0.2345  0.3030 -0.0093
   89MOL   C33044506   7.136   5.241   3.031 -0.0565  0.4851 -0.6070
   89MOL   C33144507   7.151   5.376   2.959  0.1839  0.5035 -0.2563
   89MOL   C33244508   7.139   5.361   2.807  0.3749 -0.1274  0.0025
   89MOL   C33344509   7.154   5.505   2.743 -0.7693 -0.0175 -0.4114
   89MOL   C33444510   7.155   5.509   2.595 -0.2013  0.0588  0.5052
   89MOL   C33544511   7.277   5.458   2.522  0.0668 -0.1068 -0.1043
   89MOL   H33644512   6.938   5.020   2.812 -0.4830 -0.3168  1.1173
   89MOL   H33744513   7.088   5.074   2.822 -0.0758  0.0668 -0.9891
   89MOL   H33844514   7.079   4.992   3.085 -0.3146 -0.3404  0.8625
   89MOL   H33944515   7.209   5.178   2.980  1.6012  1.4325  0.5336
   89MOL   H34044516   7.166   5.249   3.136  2.8543  0.4151 -1.3855
   89MOL   H34144517   7.248   5.420   2.981  2.0074 -2.8267 -1.1810
   89MOL   H34244518   7.075   5.438   3.008  0.1248 -1.4864  2.3145
   89MOL   H34344519   7.217   5.291   2.778 -0.8955 -0.4039 -2.9274
   89MOL   H34444520   7.042   5.312   2.793  0.9305 -1.0831 -0.4801
   89MOL   H34544521   7.080   5.577   2.778 -0.9615 -0.0203 -0.8170
   89MOL   H34644522   7.242   5.550   2.789 -0.7867 -1.1557  0.7987
   89MOL   H34744523   7.074   5.457   2.544  0.6059 -1.2206  0.5133
   89MOL   H34844524   7.138   5.614   2.568 -3.1597 -0.5759 -0.3527
   89MOL   H34944525   7.285   5.509   2.426 -1.8318  2.3890  1.0171
   89MOL   H35044526   7.366   5.483   2.579 -0.2230  0.5542  0.0526
   89MOL   H35144527   7.278   5.350   2.507 -1.2029 -0.3709  1.5871
   89MOL   C35244528   6.862   5.003   3.067  0.5692 -0.3784 -0.6424
   89MOL   C35344529   6.862   5.013   3.223  0.7887 -0.5114  0.0612
   89MOL   O35444530   6.946   4.910   3.258 -0.5393  0.8008  0.1624
   89MOL   C35544531   7.008   4.910   3.386  0.0835  0.3014 -0.9002
   89MOL   C35644532   7.134   4.825   3.367 -0.0953 -0.4207  0.5797
   89MOL   C35744533   7.211   4.801   3.496 -0.7871 -0.6509 -0.4714
   89MOL   C35844534   7.315   4.687   3.483 -0.7089 -0.2559 -0.1333
   89MOL   C35944535   7.381   4.656   3.627 -0.4996  0.0795  0.0256
   89MOL   C36044536   7.520   4.590   3.623  0.1589  0.5328 -0.2863
   89MOL   H36144537   6.788   5.077   3.038 -0.6621 -1.1429  0.5033
   89MOL   H36244538   6.817   4.909   3.034 -1.0933 -0.2736  1.2109
   89MOL   H36344539   6.907   5.109   3.249 -1.0846 -0.0228  1.6401
   89MOL   H36444540   6.943   4.866   3.462  0.4844  0.2126 -0.6052
   89MOL   H36544541   7.040   5.012   3.410 -1.4832  0.6017 -0.0224
   89MOL   H36644542   7.194   4.859   3.283  1.1267 -2.1662  0.7151
   89MOL   H36744543   7.106   4.729   3.324 -2.2349 -0.2098  1.4368
   89MOL   H36844544   7.255   4.895   3.528 -0.4179 -0.5324 -1.3191
   89MOL   H36944545   7.130   4.770   3.562  0.1469 -1.9089  0.1047
   89MOL   H37044546   7.271   4.602   3.432 -0.2338 -0.5389 -0.0793
   89MOL   H37144547   7.394   4.716   3.414 -0.3841  1.4762  0.9449
   89MOL   H37244548   7.390   4.758   3.664  2.1017  0.5752 -1.8589
   89MOL   H37344549   7.315   4.588   3.682 -0.8532  0.4267  0.0300
   89MOL   H37444550   7.575   4.585   3.717 -2.4124 -1.7957  1.1544
   89MOL   H37544551   7.502   4.492   3.580 -1.3687  0.4237  0.5336
   89MOL   H37644552   7.585   4.641   3.553  1.0412  0.0469  0.1711
   89MOL   C37744553   6.728   4.997   3.282 -0.0764 -0.8206  0.4874
   89MOL   C37844554   6.618   5.104   3.263 -0.1103  0.1864  0.1866
   89MOL   O37944555   6.628   5.213   3.350  0.2627  0.1500 -0.1930
   89MOL   C38044556   6.714   5.319   3.313 -0.2002 -0.2048  0.3202
   89MOL   C38144557   6.703   5.428   3.416  0.1455  0.6168  0.2567
   89MOL   C38244558   6.570   5.506   3.422  0.0331  0.0217 -0.7214
   89MOL   C38344559   6.560   5.620   3.524 -0.4065  0.2823 -0.1184
   89MOL   C38444560   6.427   5.689   3.504 -0.0957  0.0789 -0.0810
   89MOL   C38544561   6.410   5.823   3.576  0.2653  0.1833 -0.3314
   89MOL   H38644562   6.690   4.898   3.255 -0.1624 -0.4903 -0.6059
   89MOL   H38744563   6.739   4.993   3.391  3.1284  1.2206  0.3035
   89MOL   H38844564   6.616   5.139   3.160  0.7004 -0.2562  0.0172
   89MOL   H38944565   6.690   5.349   3.211  1.2045  1.4200  0.4448
   89MOL   H39044566   6.817   5.283   3.318 -1.2044 -3.5313 -1.2217
   89MOL   H39144567   6.782   5.502   3.410 -1.8761  3.1356  3.0438
   89MOL   H39244568   6.724   5.381   3.512 -0.3929 -1.8644 -0.7965
   89MOL   H39344569   6.552   5.539   3.320 -1.7170  1.3832  0.0153
   89MOL   H39444570   6.497   5.432   3.454 -0.3825  0.8056  0.1859
   89MOL   H39544571   6.576   5.587   3.626 -0.8981 -2.9211 -1.0330
   89MOL   H39644572   6.637   5.693   3.500  0.5628 -0.6698  0.0414
   89MOL   H39744573   6.401   5.697   3.398  1.8548 -0.7392 -0.6611
   89MOL   H39844574   6.346   5.625   3.540 -0.2791 -0.4033 -1.2987
   89MOL   H39944575   6.315   5.859   3.535  0.6735  0.9767 -0.5840
   89MOL   H40044576   6.403   5.821   3.685 -0.2219 -0.5109 -0.3754
   89MOL   H40144577   6.498   5.883   3.555  0.3055 -0.1098 -0.9911
   89MOL   C40244578   6.469   5.065   3.285  0.2065 -0.4918  0.2867
   89MOL   C40344579   6.367   5.126   3.184  0.1427 -0.2505 -0.1465
   89MOL   O40444580   6.413   5.084   3.054  0.0855 -0.1742 -0.2082
   89MOL   C40544581   6.420   4.946   3.020  0.3038  0.0363 -0.3383
   89MOL   C40644582   6.420   4.935   2.868  0.5684  0.4823 -0.4467
   89MOL   C40744583   6.565   4.951   2.818 -0.0692 -0.0421 -0.0288
   89MOL   C40844584   6.570   4.998   2.670 -0.0137 -0.1499 -0.5356
   89MOL   C40944585   6.705   4.977   2.601  0.1985  0.2036  0.7047
   89MOL   C41044586   6.695   5.004   2.452  0.5728  1.2243  0.3690
   89MOL   H41144587   6.443   5.094   3.387  0.7743 -1.8233  0.8159
   89MOL   H41244588   6.473   4.957   3.274  1.7701 -0.5227  0.9690
   89MOL   H41344589   6.269   5.082   3.205 -0.3118  1.5734  1.7885
   89MOL   H41444590   6.342   4.893   3.074  0.3138 -1.8175 -2.1037
   89MOL   H41544591   6.511   4.895   3.048  0.0094 -2.1034 -3.1041
   89MOL   H41644592   6.359   5.014   2.824  1.7108  1.8820  0.4222
   89MOL   H41744593   6.376   4.844   2.826  0.9832  1.9744 -4.2924
   89MOL   H41844594   6.619   5.025   2.877  2.1814 -1.8093  0.2291
   89MOL   H41944595   6.614   4.854   2.832 -1.4345 -0.7720 -0.2444
   89MOL   H42044596   6.487   4.948   2.621 -0.4382  0.8287 -0.8108
   89MOL   H42144597   6.543   5.103   2.680  1.5209  0.0553  1.8673
   89MOL   H42244598   6.780   5.041   2.647  1.2646  0.7430 -1.7405
   89MOL   H42344599   6.731   4.872   2.620  0.6285  0.3265  0.7925
   89MOL   H42444600   6.670   4.913   2.398 -0.8933  1.6663  0.3015
   89MOL   H42544601   6.611   5.070   2.431 -0.5478 -0.7072 -1.3283
   89MOL   H42644602   6.793   5.034   2.415  1.4972 -0.8849  1.0328
   89MOL   C42744603   6.352   5.276   3.204 -0.8374  0.4921  0.5213
   89MOL   C42844604   6.225   5.341   3.151 -0.5794 -0.6446 -0.3456
   89MOL   O42944605   6.126   5.306   3.247  0.0270  0.5835  0.1969
   89MOL   C43044606   6.023   5.224   3.195  0.0189 -0.1462  0.3703
   89MOL   C43144607   5.970   5.159   3.322  0.0311  0.2231  1.1240
   89MOL   C43244608   5.851   5.071   3.301 -0.5561  0.5506  1.2957
   89MOL   C43344609   5.797   5.035   3.433  0.8077 -0.4504 -0.3926
   89MOL   C43444610   5.661   4.960   3.423 -0.3899  0.0040 -0.4481
   89MOL   C43544611   5.578   4.968   3.549  0.4230  0.0797  0.5010
   89MOL   H43644612   6.356   5.291   3.312  0.3940  2.9172  0.1664
   89MOL   H43744613   6.443   5.319   3.163  0.3398  2.0071  4.5362
   89MOL   H43844614   6.221   5.310   3.046  0.7839 -0.2219 -0.5299
   89MOL   H43944615   6.056   5.147   3.126  0.2711 -1.2648  1.7077
   89MOL   H44044616   5.943   5.279   3.147  0.5063  0.1768 -0.0793
   89MOL   H44144617   5.938   5.247   3.379  1.2294  0.0727  2.0542
   89MOL   H44244618   6.048   5.108   3.379 -1.0638 -0.2641  2.1806
   89MOL   H44344619   5.775   5.122   3.242 -0.9753 -1.8017 -0.2864
   89MOL   H44444620   5.884   4.987   3.239 -3.6718  1.2253 -1.3827
   89MOL   H44544621   5.858   4.968   3.494 -0.3593 -1.0391  0.1308
   89MOL   H44644622   5.783   5.125   3.491 -0.7072  0.0579 -1.5240
   89MOL   H44744623   5.604   4.993   3.337 -0.0428  1.9825  0.0522
   89MOL   H44844624   5.678   4.855   3.399 -1.0380  0.2440 -2.0044
   89MOL   H44944625   5.563   5.074   3.570  0.8503  0.6047 -1.6600
   89MOL   H45044626   5.478   4.928   3.536  0.6323 -1.2225  2.6512
   89MOL   H45144627   5.633   4.923   3.632  0.8210  1.7573  1.1620
   89MOL   C45244628   6.236   5.494   3.151  0.9136  0.1379  0.1139
   89MOL   C45344629   6.303   5.559   3.020  0.6750  0.1591 -0.0543
   89MOL   O45444630   6.323   5.694   3.055  0.1241  0.0570  0.5724
   89MOL   C45544631   6.457   5.730   3.070 -0.5369  0.4371 -0.4442
   89MOL   C45644632   6.454   5.880   3.109 -0.0315  0.2723 -0.3287
   89MOL   C45744633   6.589   5.943   3.115  0.1501 -0.0788 -0.0258
   89MOL   C45844634   6.604   6.098   3.107 -0.3178 -0.7743  0.4894
   89MOL   C45944635   6.747   6.143   3.098 -0.4515  0.9809  0.2029
   89MOL   C46044636   6.756   6.289   3.050  0.1282  0.2493  0.1054
   89MOL   H46144637   6.136   5.536   3.164  0.8507  0.9471 -2.6675
   89MOL   H46244638   6.297   5.513   3.239  3.8530  0.6625 -1.9700
   89MOL   H46344639   6.398   5.508   3.001  1.3272  1.4538 -0.3060
   89MOL   H46444640   6.502   5.714   2.972  0.2954 -0.6396  0.1114
   89MOL   H46544641   6.500   5.671   3.151 -2.6564  0.9239  1.0820
   89MOL   H46644642   6.398   5.894   3.201  0.7183  0.0829  0.1591
   89MOL   H46744643   6.408   5.941   3.030  0.9546  2.2561  0.5920
   89MOL   H46844644   6.640   5.917   3.207  0.5742 -1.8431 -0.7399
   89MOL   H46944645   6.653   5.896   3.040 -0.1403 -2.0865  0.9667
   89MOL   H47044646   6.545   6.142   3.028 -0.3251  0.4368  1.1642
   89MOL   H47144647   6.564   6.133   3.202  3.4110 -0.0666  1.8812
   89MOL   H47244648   6.796   6.130   3.194  0.9113  2.3941 -0.2743
   89MOL   H47344649   6.806   6.080   3.030  0.1651  2.4796 -0.6880
   89MOL   H47444650   6.693   6.360   3.103 -2.2081 -1.5686 -0.2015
   89MOL   H47544651   6.858   6.327   3.059  0.6490 -0.6442 -1.6995
   89MOL   H47644652   6.728   6.312   2.947  1.1169 -1.5749 -0.5932
   89MOL   C47744653   6.221   5.552   2.891  0.3439 -0.0814 -0.1400
   89MOL   C47844654   6.305   5.608   2.775  1.1062 -0.1773  0.2932
   89MOL   O47944655   6.224   5.614   2.656  0.2863  0.0157 -0.1659
   89MOL   C48044656   6.301   5.653   2.543  0.9584 -0.1537 -0.5585
   89MOL   C48144657   6.191   5.689   2.438  0.2788 -0.0167 -0.3698
   89MOL   C48244658   6.251   5.738   2.300 -0.0708  0.9295 -0.8658
   89MOL   C48344659   6.156   5.798   2.199  0.1171  0.6093  0.3677
   89MOL   C48444660   6.043   5.703   2.158  0.1478 -0.0323  0.5577
   89MOL   C48544661   5.949   5.789   2.069  0.2936 -0.0058 -0.5796
   89MOL   H48644662   6.199   5.446   2.883  2.4223 -0.6420  1.2739
   89MOL   H48744663   6.126   5.606   2.901  0.7365  0.5591  0.1482
   89MOL   H48844664   6.327   5.711   2.800  1.0173 -0.0740 -0.0607
   89MOL   H48944665   6.372   5.572   2.529  2.1315  0.6067  0.8554
   89MOL   H49044666   6.353   5.746   2.565 -2.9971  1.9737  0.2799
   89MOL   H49144667   6.116   5.762   2.471 -1.2394 -0.5293 -2.5978
   89MOL   H49244668   6.122   5.606   2.426 -1.3007  1.4230 -1.6657
   89MOL   H49344669   6.327   5.815   2.313  0.3604  0.5314 -1.0142
   89MOL   H49444670   6.312   5.659   2.256  0.0381  1.5317 -1.8214
   89MOL   H49544671   6.121   5.888   2.250 -0.2734  0.4657  0.3541
   89MOL   H49644672   6.216   5.824   2.112  1.4168 -3.2072  0.0247
   89MOL   H49744673   6.073   5.617   2.098  0.0944 -0.6547  1.4219
   89MOL   H49844674   5.993   5.659   2.244 -0.7571  0.2297  0.1671
   89MOL   H49944675   5.890   5.855   2.132  1.8753 -0.9967  2.0504
   89MOL   H50044676   5.995   5.850   1.993  1.9513 -0.8411 -0.2690
   89MOL   H50144677   5.875   5.719   2.029  1.2037 -1.0389 -0.4798
   89MOL   H50244678   6.393   5.551   2.747  0.3282  0.6774 -4.3015
   90MOL     C144679   7.759   4.243   6.389 -0.2136  0.4049  0.2238
   90MOL     C244680   7.635   4.224   6.473  0.0846  0.6246 -0.2064
   90MOL     O344681   7.521   4.200   6.398  0.7415 -0.3574  0.0640
   90MOL     C444682   7.493   4.063   6.370 -0.7430 -0.1426 -0.2091
   90MOL     C544683   7.359   4.062   6.300  0.4914 -0.3097 -0.3332
   90MOL     C644684   7.241   4.114   6.386  0.2263 -0.3066 -0.8287
   90MOL     C744685   7.105   4.084   6.320  0.3457 -0.4615  0.6153
   90MOL     C844686   6.989   4.105   6.425 -0.5074 -0.2878 -0.2318
   90MOL     C944687   6.850   4.055   6.379 -0.1442 -0.0439 -0.4830
   90MOL    H1044688   0.067   4.186   6.425  0.3686 -0.5797 -2.5830
   90MOL    H1144689   7.744   4.213   6.285 -0.5065  1.7879 -0.1390
   90MOL    H1244690   7.652   4.146   6.547  0.9784  1.7721  0.8246
   90MOL    H1344691   7.497   4.001   6.460 -0.4415  1.1747  0.6939
   90MOL    H1444692   7.572   4.028   6.304  1.1898  1.6226  1.0940
   90MOL    H1544693   7.334   3.959   6.276  3.7988 -1.0360 -1.0258
   90MOL    H1644694   7.358   4.116   6.206  0.0625 -0.0735 -0.1931
   90MOL    H1744695   7.253   4.067   6.483  1.1743 -1.1898 -1.3576
   90MOL    H1844696   7.262   4.219   6.405  0.2985 -0.4645 -0.0416
   90MOL    H1944697   7.086   4.146   6.232  1.1328 -3.0267 -1.4475
   90MOL    H2044698   7.100   3.982   6.281  0.1111  0.2538 -1.2674
   90MOL    H2144699   6.988   4.208   6.459  1.1108 -1.0486  2.2373
   90MOL    H2244700   7.016   4.053   6.517 -2.1196  0.0261  0.4386
   90MOL    H2344701   6.775   4.065   6.457  0.1056 -0.6089 -0.1718
   90MOL    H2444702   6.819   4.107   6.288 -0.5265 -1.0642 -0.9415
   90MOL    H2544703   6.867   3.953   6.347 -1.7251  0.1264 -1.9410
   90MOL    H2644704   0.019   4.346   6.389 -2.0269  1.1124 -1.8458
   90MOL    C2744705   7.605   4.342   6.571  0.4746  0.3811  0.0426
   90MOL    C2844706   7.493   4.327   6.673  0.1574 -0.9406 -0.1145
   90MOL    O2944707   7.542   4.240   6.779 -0.1443 -0.1088 -0.0691
   90MOL    C3044708   7.449   4.130   6.805 -0.4104  0.0774  0.2004
   90MOL    C3144709   7.518   4.048   6.913  0.6628 -0.4375 -0.5561
   90MOL    C3244710   7.658   3.996   6.879 -0.3908  0.8509 -0.3870
   90MOL    C3344711   7.721   3.912   6.995 -0.5160 -0.0423 -0.4354
   90MOL    C3444712   0.082   3.848   6.959  0.3306  0.1624  0.1960
   90MOL    C3544713   0.081   3.726   6.857 -0.2857  0.9146  0.8781
   90MOL    H3644714   7.691   4.372   6.631  1.5069  2.6747 -2.4815
   90MOL    H3744715   7.578   4.427   6.508 -2.2219 -1.6337 -1.6356
   90MOL    H3844716   7.419   4.284   6.605  1.6886  0.4694 -2.7323
   90MOL    H3944717   7.448   4.063   6.720 -0.6399  0.4589 -0.0970
   90MOL    H4044718   7.347   4.153   6.834  0.1570  3.8463 -0.5746
   90MOL    H4144719   7.459   3.960   6.938  0.3764  0.2052  1.0837
   90MOL    H4244720   7.513   4.104   7.007  0.8058  0.2761 -0.9750
   90MOL    H4344721   7.640   3.940   6.788 -1.9135 -2.8016  2.0470
   90MOL    H4444722   7.723   4.082   6.863  0.6272 -0.0871 -1.3712
   90MOL    H4544723   7.738   3.973   7.084 -1.6688  0.0617 -0.2757
   90MOL    H4644724   7.658   3.834   7.040  0.2495  0.3495  1.3649
   90MOL    H4744725   0.138   3.931   6.917 -1.6139  0.5298 -1.7884
   90MOL    H4844726   0.131   3.809   7.048  0.6850 -1.8307 -0.8232
   90MOL    H4944727   0.179   3.683   6.835 -0.4867  1.3626 -1.0301
   90MOL    H5044728   0.013   3.647   6.888 -0.0044  0.5705  0.6261
   90MOL    H5144729   0.034   3.760   6.764 -3.1060 -0.7576  1.6526
   90MOL    C5244730   7.449   4.461   6.740 -0.4764  0.1216  0.0737
   90MOL    C5344731   7.340   4.457   6.837  1.3612 -0.4906  0.2312
   90MOL    O5444732   7.330   4.586   6.893 -0.2896 -0.1740  0.0945
   90MOL    C5544733   7.382   4.588   7.026  0.3723 -0.1215 -0.7479
   90MOL    C5644734   7.380   4.723   7.092  0.2452 -0.2011 -0.3473
   90MOL    C5744735   7.477   4.749   7.207 -0.1600  0.7491  0.0799
   90MOL    C5844736   7.466   4.660   7.327  1.2594  0.3690 -0.0881
   90MOL    C5944737   7.536   4.724   7.448 -0.1021  0.4656 -0.3110
   90MOL    C6044738   7.507   4.650   7.575  0.2862  0.7171  0.2971
   90MOL    H6144739   7.424   4.548   6.679 -0.5704  1.6915  2.3045
   90MOL    H6244740   7.533   4.483   6.805  0.8817 -1.2217 -1.1941
   90MOL    H6344741   7.364   4.381   6.912  0.3221 -0.4431  0.6197
   90MOL    H6444742   7.485   4.553   7.027  0.0770 -0.9610  0.4995
   90MOL    H6544743   7.331   4.522   7.096  1.5831  0.5899  0.8282
   90MOL    H6644744   7.280   4.733   7.136  0.3367  1.6687 -0.5305
   90MOL    H6744745   7.388   4.806   7.023 -3.1919 -0.3742 -1.0827
   90MOL    H6844746   7.579   4.752   7.168  0.1761  3.3175  1.0406
   90MOL    H6944747   7.453   4.849   7.243  0.7404  1.5406 -1.4494
   90MOL    H7044748   7.359   4.654   7.346  1.4476 -0.8083  0.6056
   90MOL    H7144749   7.513   4.567   7.295  2.4543  0.4079  1.5031
   90MOL    H7244750   7.642   4.739   7.427 -0.4099  1.3127 -1.2493
   90MOL    H7344751   7.497   4.825   7.457 -1.0915  0.0272  0.4022
   90MOL    H7444752   7.541   4.546   7.576 -0.3919  0.4902  0.9259
   90MOL    H7544753   7.544   4.709   7.659  0.1595  1.4120 -0.1348
   90MOL    H7644754   7.400   4.634   7.589  0.7322 -0.6506  2.4492
   90MOL    C7744755   7.200   4.423   6.773  0.4208 -0.3449 -0.2876
   90MOL    C7844756   7.081   4.393   6.880 -0.0412  0.0404 -0.8336
   90MOL    O7944757   6.979   4.310   6.829 -0.2551 -0.0291 -0.2648
   90MOL    C8044758   6.973   4.164   6.841  0.4674 -0.1295 -0.3505
   90MOL    C8144759   6.854   4.101   6.776  0.6652 -0.1761 -0.4824
   90MOL    C8244760   6.847   3.950   6.801  0.1557  0.1114  0.8286
   90MOL    C8344761   6.719   3.879   6.744 -0.4484  0.3010 -0.4299
   90MOL    C8444762   6.713   3.727   6.752 -0.3808 -0.7098  0.5158
   90MOL    C8544763   6.598   3.653   6.674 -0.4561 -0.5522 -0.5353
   90MOL    H8644764   7.223   4.336   6.711  1.9209 -1.8878  2.3539
   90MOL    H8744765   7.172   4.496   6.697 -0.0684 -0.6867 -0.4394
   90MOL    H8844766   7.126   4.330   6.958  1.4912  2.2458  0.1347
   90MOL    H8944767   6.979   4.142   6.948  0.6885 -1.8321 -0.7017
   90MOL    H9044768   7.070   4.129   6.805 -0.0859 -1.2541 -0.7804
   90MOL    H9144769   6.853   4.129   6.670  0.4389  1.9084  0.0467
   90MOL    H9244770   6.768   4.149   6.823  1.2803  0.7373 -0.2727
   90MOL    H9344771   6.938   3.909   6.757 -0.1217 -0.9616  1.2580
   90MOL    H9444772   6.855   3.930   6.907  2.2700  1.1162  0.8764
   90MOL    H9544773   6.629   3.931   6.776 -1.1377 -0.4763 -1.0921
   90MOL    H9644774   6.725   3.892   6.636  3.7599 -1.3264 -0.4891
   90MOL    H9744775   6.811   3.689   6.721  0.3758  0.6478  1.2434
   90MOL    H9844776   6.707   3.706   6.859  1.2001 -0.9990  0.5637
   90MOL    H9944777   6.496   3.674   6.708  0.2903  0.7788  0.9330
   90MOL   H10044778   6.604   3.662   6.565  0.9072 -0.5085 -0.4614
   90MOL   H10144779   6.615   3.546   6.686 -1.5360 -0.7329 -0.5569
   90MOL   C10244780   7.016   4.516   6.946  0.1348 -0.9974  0.4720
   90MOL   C10344781   6.927   4.479   7.070 -0.1091 -0.3219  0.0744
   90MOL   O10444782   7.012   4.423   7.174  0.2194  0.5520  0.3382
   90MOL   C10544783   6.960   4.315   7.250 -0.1712  0.0790  0.0592
   90MOL   C10644784   7.050   4.309   7.377 -0.2547 -0.6201 -0.3732
   90MOL   C10744785   7.202   4.309   7.354  0.3118 -0.5812 -0.0010
   90MOL   C10844786   7.255   4.173   7.325  0.0053 -0.9204  0.5928
   90MOL   C10944787   7.403   4.187   7.287 -0.2042 -0.5667 -0.4113
   90MOL   C11044788   7.463   4.055   7.258 -0.5635  0.1214  0.6432
   90MOL   H11144789   7.083   4.593   6.983 -1.1182  0.7725 -0.8908
   90MOL   H11244790   6.955   4.568   6.872  1.5003  0.2880  0.2430
   90MOL   H11344791   6.854   4.406   7.037 -0.2974  0.1881 -0.6705
   90MOL   H11444792   6.970   4.225   7.189 -0.4733  2.3428 -3.4894
   90MOL   H11544793   6.855   4.334   7.271  0.1777  0.6080  1.3592
   90MOL   H11644794   7.020   4.233   7.449  0.2563  0.7950  1.3633
   90MOL   H11744795   7.022   4.399   7.432 -1.5406 -1.6587  0.6897
   90MOL   H11844796   7.224   4.375   7.271  0.2829 -2.6989 -1.7225
   90MOL   H11944797   7.262   4.345   7.438 -0.6706  3.4771 -0.9174
   90MOL   H12044798   7.246   4.105   7.410  1.4819 -1.2744  0.4838
   90MOL   H12144799   7.199   4.124   7.245  1.3943 -0.0575 -0.9456
   90MOL   H12244800   7.409   4.247   7.196  0.5051  1.0603  0.6662
   90MOL   H12344801   7.455   4.250   7.360  0.9668 -2.0032  0.0061
   90MOL   H12444802   7.458   3.991   7.346 -0.3949  0.2307  0.7335
   90MOL   H12544803   7.415   4.006   7.173  1.3086  0.5982 -0.7200
   90MOL   H12644804   7.571   4.059   7.242 -0.7677  1.4981 -0.4592
   90MOL   C12744805   6.842   4.592   7.121 -0.3796  0.2059 -0.3339
   90MOL   C12844806   6.694   4.597   7.075 -0.2357  0.2522  0.2254
   90MOL   O12944807   6.696   4.626   6.937 -0.2304  0.3012 -0.0646
   90MOL   C13044808   6.663   4.516   6.850  0.0775  0.6971  0.0104
   90MOL   C13144809   6.671   4.564   6.704  0.4723 -0.4951 -0.1395
   90MOL   C13244810   6.635   4.465   6.596 -0.0459 -0.1232  0.0120
   90MOL   C13344811   6.654   4.534   6.461 -0.2043  0.7594  0.1982
   90MOL   C13444812   6.640   4.435   6.344 -0.6282 -0.2929 -0.4249
   90MOL   C13544813   6.488   4.405   6.313 -0.0887 -0.3397 -0.1270
   90MOL   H13644814   6.843   4.570   7.228 -0.1690  0.5166 -0.2715
   90MOL   H13744815   6.891   4.689   7.110 -1.0355  0.7752  1.4792
   90MOL   H13844816   6.654   4.497   7.091 -1.8021  0.9225  0.5316
   90MOL   H13944817   6.558   4.496   6.869 -0.4375  1.1855 -2.1241
   90MOL   H14044818   6.716   4.426   6.880  0.6164  0.8502 -0.4620
   90MOL   H14144819   6.775   4.592   6.689 -0.2907  0.8494 -3.3675
   90MOL   H14244820   6.611   4.655   6.694  0.2821 -0.6196 -0.1304
   90MOL   H14344821   6.686   4.369   6.608 -0.4589 -0.2386  0.8689
   90MOL   H14444822   6.527   4.448   6.598 -0.3811  1.8831  0.1132
   90MOL   H14544823   6.596   4.624   6.440  0.1854  1.3399  1.5330
   90MOL   H14644824   6.751   4.583   6.455 -0.0517  0.2373 -1.7327
   90MOL   H14744825   6.694   4.472   6.257 -0.3648  0.5991  0.1107
   90MOL   H14844826   6.690   4.341   6.371 -1.5971  0.3463  4.0444
   90MOL   H14944827   6.469   4.345   6.224 -0.9718 -0.3674  0.0852
   90MOL   H15044828   6.436   4.352   6.392 -2.4155  0.3298 -1.1799
   90MOL   H15144829   6.431   4.495   6.291  0.0396 -0.9152 -2.9932
   90MOL   C15244830   6.604   4.705   7.145  0.3465 -0.1913  0.0252
   90MOL   C15344831   6.458   4.689   7.103 -0.2356  0.2485  0.3623
   90MOL   O15444832   6.397   4.597   7.196 -0.6685 -0.1050  0.1596
   90MOL   C15544833   6.274   4.544   7.161 -0.0367  0.3985 -0.6290
   90MOL   C15644834   6.291   4.390   7.174 -0.1250  0.0217 -0.4151
   90MOL   C15744835   6.363   4.327   7.049 -0.1241  0.0165  0.1778
   90MOL   C15844836   6.344   4.171   7.039 -0.7245 -0.0837 -0.4129
   90MOL   C15944837   6.430   4.112   6.926  0.4342 -0.1153 -0.0806
   90MOL   C16044838   6.389   4.155   6.786 -0.3123 -0.0715 -0.1898
   90MOL   H16144839   6.623   4.725   7.250 -3.8144 -1.5895  1.1252
   90MOL   H16244840   6.630   4.804   7.107  0.8789  0.4869  2.0814
   90MOL   H16344841   6.453   4.649   7.002  1.0751  0.0078  0.3833
   90MOL   H16444842   6.253   4.567   7.056  2.5670  0.0984 -1.2443
   90MOL   H16544843   6.196   4.585   7.226  1.0724  1.5665 -0.0216
   90MOL   H16644844   6.194   4.342   7.178 -0.3602  0.6300  2.1435
   90MOL   H16744845   6.342   4.357   7.264 -0.4402  0.1957 -0.1740
   90MOL   H16844846   6.317   4.369   6.959 -0.4334  2.3356  1.3891
   90MOL   H16944847   6.470   4.350   7.056  0.5696 -2.6598 -0.9526
   90MOL   H17044848   6.367   4.134   7.139  0.8370  2.7978  0.3408
   90MOL   H17144849   6.240   4.146   7.019 -1.1930  2.5138 -1.4650
   90MOL   H17244850   6.535   4.134   6.944  0.6447 -0.1254 -1.2231
   90MOL   H17344851   6.433   4.003   6.930 -0.3055 -0.1709 -0.7054
   90MOL   H17444852   6.467   4.126   6.716 -1.2720 -1.7413 -0.5936
   90MOL   H17544853   6.303   4.099   6.748  1.1724 -1.2031 -1.9698
   90MOL   H17644854   6.358   4.260   6.784 -0.3164 -0.0718 -0.1373
   90MOL   C17744855   6.377   4.822   7.129 -0.0794  0.5014 -0.2412
   90MOL   C17844856   6.375   4.906   7.000 -0.0573  0.0070  0.2121
   90MOL   O17944857   6.310   4.828   6.896  0.0254 -0.2192 -0.4596
   90MOL   C18044858   6.362   4.840   6.766  0.0842 -0.0751 -0.1256
   90MOL   C18144859   6.273   4.772   6.665  0.0789  0.1002  0.0310
   90MOL   C18244860   6.325   4.769   6.520 -0.7587 -0.5244  0.0856
   90MOL   C18344861   6.249   4.670   6.430 -0.4592  0.5145  0.1017
   90MOL   C18444862   6.118   4.723   6.386 -0.5296  0.3681  0.0852
   90MOL   C18544863   6.062   4.633   6.269  0.8137  0.1574  0.4226
   90MOL   H18644864   6.272   4.805   7.151 -0.6339  2.8360 -0.8986
   90MOL   H18744865   6.424   4.883   7.206 -0.7250  2.2912 -1.2266
   90MOL   H18844866   6.477   4.929   6.969 -0.2289 -0.9923 -1.1378
   90MOL   H18944867   6.460   4.792   6.758  1.5880  2.4654  2.3421
   90MOL   H19044868   6.400   4.939   6.743 -0.2808  0.2465  0.6496
   90MOL   H19144869   6.171   4.808   6.678 -0.8856 -1.7437 -2.0343
   90MOL   H19244870   6.280   4.668   6.698  0.1346  0.5690  1.5170
   90MOL   H19344871   6.327   4.869   6.476  0.8955  0.6968  2.8719
   90MOL   H19444872   6.430   4.746   6.537 -0.5456 -1.0069 -1.7383
   90MOL   H19544873   6.308   4.660   6.339 -1.7902 -0.0232 -0.7165
   90MOL   H19644874   6.248   4.569   6.472  0.6456  0.8804  1.0338
   90MOL   H19744875   6.050   4.712   6.470 -0.5089  0.8448  0.1679
   90MOL   H19844876   6.118   4.828   6.357  1.0268  0.2339 -0.4198
   90MOL   H19944877   6.080   4.527   6.284  3.0386  0.3154 -0.8899
   90MOL   H20044878   5.954   4.643   6.276  0.8860  1.1787  0.1210
   90MOL   H20144879   6.100   4.676   6.176  0.8510 -0.4535  0.1532
   90MOL   C20244880   6.292   5.030   7.014  0.4797 -0.2333  0.1675
   90MOL   C20344881   6.349   5.143   7.103 -0.2871 -0.0065 -0.1029
   90MOL   O20444882   6.253   5.250   7.096  0.2669  0.3949 -0.2416
   90MOL   C20544883   6.234   5.319   7.215 -0.2988  0.1194 -0.4999
   90MOL   C20644884   6.144   5.225   7.312 -0.1624  0.2908  0.4370
   90MOL   C20744885   6.002   5.186   7.248  0.0319 -0.5923 -0.1320
   90MOL   C20844886   5.922   5.085   7.325  0.3202  0.2553  0.2578
   90MOL   C20944887   5.973   4.939   7.328 -0.2620 -0.0316  1.2713
   90MOL   C21044888   5.860   4.850   7.377 -0.4295 -0.0973  0.2823
   90MOL   H21144889   6.270   5.063   6.912  1.9668  0.3976  0.0298
   90MOL   H21244890   6.193   5.008   7.053  0.8619  0.2793  1.4728
   90MOL   H21344891   6.348   5.100   7.203 -0.0581 -0.2339 -0.1993
   90MOL   H21444892   6.177   5.408   7.188 -0.0710 -0.0408 -1.5543
   90MOL   H21544893   6.322   5.349   7.272 -0.0525 -1.2571 -0.1295
   90MOL   H21644894   6.130   5.285   7.402 -2.7098  1.5574 -0.7463
   90MOL   H21744895   6.202   5.137   7.341 -1.0304 -1.4108 -2.8010
   90MOL   H21844896   5.949   5.280   7.232 -1.4214 -1.1496  1.2334
   90MOL   H21944897   6.016   5.149   7.146 -1.1998  1.8952 -1.2442
   90MOL   H22044898   5.923   5.117   7.430 -1.1296 -0.5027  0.5018
   90MOL   H22144899   5.817   5.082   7.299  0.6328 -0.6998 -0.9083
   90MOL   H22244900   6.008   4.910   7.229 -0.6717  1.2091  0.7497
   90MOL   H22344901   6.049   4.927   7.404 -1.6045  0.2382  2.6811
   90MOL   H22444902   5.875   4.743   7.359  0.9238  0.2587 -0.7813
   90MOL   H22544903   5.858   4.867   7.485  1.2263  2.4863 -0.0495
   90MOL   H22644904   5.765   4.870   7.327 -1.5489  0.0933  2.4409
   90MOL   C22744905   6.488   5.197   7.068 -0.2348 -0.1636 -0.6126
   90MOL   C22844906   6.598   5.117   7.134  0.6537  0.5049  0.1648
   90MOL   O22944907   6.712   5.140   7.052  0.2194  0.0390 -0.5114
   90MOL   C23044908   6.742   5.041   6.950 -0.1135 -0.0113  0.0009
   90MOL   C23144909   6.873   5.048   6.888 -0.0598  0.1672  0.0716
   90MOL   C23244910   6.904   4.954   6.771  0.7476  0.6903  0.6254
   90MOL   C23344911   6.810   4.974   6.648  0.2742 -0.1686  0.5361
   90MOL   C23444912   6.816   5.120   6.587 -0.2147 -0.6400  0.2374
   90MOL   C23544913   6.704   5.141   6.484 -0.0037  0.2620 -0.4464
   90MOL   H23644914   6.501   5.191   6.960  1.2207 -0.9660 -0.4149
   90MOL   H23744915   6.490   5.304   7.088  1.2001  0.2214 -2.6664
   90MOL   H23844916   6.586   5.009   7.149  1.8046  0.2658 -0.5702
   90MOL   H23944917   6.664   5.051   6.874 -1.3057 -0.8760  1.0907
   90MOL   H24044918   6.742   4.939   6.988  1.3039 -0.0860 -0.1562
   90MOL   H24144919   6.932   5.020   6.975  0.2478 -1.2909 -0.5897
   90MOL   H24244920   6.900   5.150   6.863 -0.4532  0.3658  0.4465
   90MOL   H24344921   7.007   4.974   6.742  0.5065  0.1604 -0.6144
   90MOL   H24444922   6.893   4.854   6.811 -1.8234 -0.6805 -3.1929
   90MOL   H24544923   6.840   4.915   6.561 -1.9129  0.2122 -0.4947
   90MOL   H24644924   6.711   4.932   6.666  0.8872 -2.2892 -0.8637
   90MOL   H24744925   6.783   5.185   6.668 -2.7000 -0.3710 -0.9251
   90MOL   H24844926   6.920   5.137   6.559 -0.6449  1.4640 -0.1743
   90MOL   H24944927   6.715   5.235   6.431  0.1640  0.3537 -0.2496
   90MOL   H25044928   6.702   5.066   6.405 -1.3343 -0.7504  0.5333
   90MOL   H25144929   6.603   5.142   6.526  0.0695 -0.1187 -0.2610
   90MOL   C25244930   6.615   5.167   7.279 -0.0249 -0.4207  0.1102
   90MOL   C25344931   6.701   5.077   7.366  0.5700  0.3869  0.1860
   90MOL   O25444932   6.736   5.143   7.488  0.2836 -0.7588  0.1366
   90MOL   C25544933   6.651   5.121   7.593  0.2532  0.6259  0.0081
   90MOL   C25644934   6.715   5.170   7.722 -1.2051 -0.4803 -0.3054
   90MOL   C25744935   6.843   5.093   7.766  0.0031  0.6974  0.0443
   90MOL   C25844936   6.824   4.945   0.036 -0.1480 -0.0823 -0.2204
   90MOL   C25944937   6.754   4.947   0.171  0.0647 -0.4585  0.4719
   90MOL   C26044938   6.725   4.816   0.248  0.2574 -0.1677 -0.6039
   90MOL   H26144939   6.656   5.268   7.279 -0.1124 -0.3754  2.1117
   90MOL   H26244940   6.521   5.185   7.330 -1.0286  0.0728 -1.8436
   90MOL   H26344941   6.656   4.979   7.377  3.6473 -1.2637 -1.1842
   90MOL   H26444942   6.619   5.017   7.594  2.0977  0.0423  1.5634
   90MOL   H26544943   6.557   5.171   7.569  0.7492  0.8187 -1.5918
   90MOL   H26644944   6.637   5.167   0.021 -0.4167  1.2375  0.5951
   90MOL   H26744945   6.748   5.274   7.719 -0.2426 -0.8223 -2.1669
   90MOL   H26844946   6.905   5.103   7.678 -0.3733  2.6038 -0.0286
   90MOL   H26944947   6.898   5.149   0.065  1.4989  0.1735 -0.6495
   90MOL   H27044948   6.771   4.882   7.742  2.5123 -0.1920 -2.1698
   90MOL   H27144949   6.921   4.897   0.047 -0.4203 -0.5141  0.3260
   90MOL   H27244950   6.825   5.001   0.235 -0.7960  2.3121 -0.8383
   90MOL   H27344951   6.666   5.010   0.165  0.3227 -0.0014  1.3336
   90MOL   H27444952   6.667   4.744   0.191 -1.9492  0.8353  0.3318
   90MOL   H27544953   6.820   4.770   0.276 -0.6160 -1.0025  1.0455
   90MOL   H27644954   6.680   4.837   0.345 -1.3669 -3.1345 -0.6672
   90MOL   C27744955   6.836   5.036   7.300 -0.2984 -0.2078  0.8278
   90MOL   C27844956   6.944   4.948   7.381  0.9757 -0.4827  0.0633
   90MOL   O27944957   6.880   4.817   7.413 -0.3211 -0.3986  0.2564
   90MOL   C28044958   6.956   4.747   7.510 -0.1854 -0.5186 -0.2209
   90MOL   C28144959   6.870   4.641   7.576 -0.5386 -0.1420  1.0215
   90MOL   C28244960   6.939   4.569   7.695  0.0622  0.3668  0.1456
   90MOL   C28344961   6.857   4.471   7.771 -0.1071  0.3259  0.2591
   90MOL   C28444962   6.877   4.328   7.725  0.1729  0.1564  0.1040
   90MOL   C28544963   6.776   4.242   0.013  0.5444 -0.4938  0.7894
   90MOL   H28644964   6.813   4.971   7.215  0.8010 -0.2858  0.5867
   90MOL   H28744965   6.876   5.127   7.255 -1.6153  0.3234  0.7033
   90MOL   H28844966   6.957   4.998   7.476 -0.1606  1.3373 -0.7070
   90MOL   H28944967   6.985   4.825   7.581  1.3438 -0.4608 -0.8888
   90MOL   H29044968   7.045   4.707   7.462 -0.6431 -1.4607 -0.2948
   90MOL   H29144969   6.835   4.578   7.495 -3.6851  0.0282  2.1589
   90MOL   H29244970   6.783   4.698   7.609  0.8660  2.8473 -0.1928
   90MOL   H29344971   7.039   4.532   7.671 -0.5388  1.5644 -4.6589
   90MOL   H29444972   6.959   4.656   7.758  0.7311  1.6533 -1.7903
   90MOL   H29544973   6.874   4.480   0.101 -2.3077 -1.3185  0.7825
   90MOL   H29644974   6.754   4.506   7.762 -0.6407 -1.3469 -0.3327
   90MOL   H29744975   6.865   4.311   7.618  0.7310  0.9201 -0.0876
   90MOL   H29844976   6.977   4.298   7.758  0.1096 -0.0520  0.1026
   90MOL   H29944977   6.779   4.266   0.120 -0.5146  0.2182  0.6748
   90MOL   H30044978   6.674   4.258   7.753  0.6920 -0.8766  0.2190
   90MOL   H30144979   6.788   4.134   0.012  0.2679 -0.5380  1.6613
   90MOL   C30244980   7.077   4.921   7.297 -0.2771  0.1353  0.8147
   90MOL   C30344981   7.174   5.038   7.293 -0.7914 -0.1596 -0.0212
   90MOL   O30444982   7.273   5.024   7.192 -0.3459 -0.1688 -0.5882
   90MOL   C30544983   7.231   5.068   7.062 -0.4305 -0.0883  0.5355
   90MOL   C30644984   7.346   5.107   6.961 -0.1685  0.7892 -0.4901
   90MOL   C30744985   7.286   5.171   6.832  0.6791  0.1267  0.5595
   90MOL   C30844986   7.392   5.185   6.723 -0.5900  0.0619  0.1389
   90MOL   C30944987   7.335   5.249   6.597 -0.4559  0.1981  0.5817
   90MOL   C31044988   7.432   5.263   6.482  0.4610 -0.4105  0.5104
   90MOL   H31144989   7.144   4.841   7.330  0.6936  0.1110 -1.0947
   90MOL   H31244990   7.044   4.891   7.197  1.1421  0.5986  0.1924
   90MOL   H31344991   7.117   5.131   7.285  1.3275  1.2139  0.4544
   90MOL   H31444992   7.168   5.157   7.061 -1.8991 -1.0978  1.3502
   90MOL   H31544993   7.175   4.983   7.024  0.6526 -0.5816  0.0197
   90MOL   H31644994   7.410   5.022   6.939 -2.9433 -1.4360 -0.2212
   90MOL   H31744995   7.410   5.179   7.011 -1.7626  0.5296  2.0130
   90MOL   H31844996   7.204   5.105   6.804 -2.3756  2.1809  4.1576
   90MOL   H31944997   7.242   5.268   6.856 -0.9356  0.3347 -3.0432
   90MOL   H32044998   7.481   5.231   6.768 -1.3176  0.7116  0.9414
   90MOL   H32144999   7.426   5.088   6.688  3.8768  2.4375 -2.5833
   90MOL   H32245000   7.239   5.203   6.572 -1.0442  1.7948 -0.1939
   90MOL   H32345001   7.306   5.351   6.624  0.0833  0.7971 -1.0561
   90MOL   H32445002   7.460   5.161   6.458 -2.0928 -1.0195 -0.1135
   90MOL   H32545003   7.393   5.315   6.394  0.7886 -0.7002  0.1965
   90MOL   H32645004   7.528   5.312   6.497 -0.5942  1.3834  1.7757
   90MOL   C32745005   7.243   5.043   7.432 -0.0991  0.1791 -0.0255
   90MOL   C32845006   7.339   5.162   7.446  0.0587 -0.6991  0.5739
   90MOL   O32945007   7.327   5.216   7.582 -0.0422  0.0202 -0.4027
   90MOL   C33045008   7.229   5.314   7.598  0.1645 -0.4514 -0.2538
   90MOL   C33145009   7.189   5.327   7.747  0.7958  0.0278  0.3338
   90MOL   C33245010   7.304   5.352   0.072 -0.3197  0.1929  0.0216
   90MOL   C33345011   7.275   5.435   0.197  0.3946  0.4526 -0.4199
   90MOL   C33445012   7.396   5.438   0.297  0.3820  0.5468 -0.1556
   90MOL   C33545013   7.341   5.487   0.437 -0.8504  0.5643  0.1180
   90MOL   H33645014   7.294   4.948   7.448 -2.3970 -0.6365  3.0301
   90MOL   H33745015   7.171   5.052   7.513 -0.2025  0.1591 -0.1152
   90MOL   H33845016   7.319   5.248   7.384  1.4960  0.7239  2.0161
   90MOL   H33945017   7.145   5.282   7.536  0.0179 -2.2133  0.8428
   90MOL   H34045018   7.264   5.412   7.565 -0.8754 -0.2408 -0.7369
   90MOL   H34145019   7.122   5.246   7.775 -3.3633  2.6159 -1.5502
   90MOL   H34245020   7.115   5.407   7.751 -0.4833 -0.9498 -2.3522
   90MOL   H34345021   7.353   5.260   0.107 -0.6988  0.0985  0.3071
   90MOL   H34445022   7.383   5.403   0.016  1.1793 -1.0964  0.8964
   90MOL   H34545023   7.241   5.534   0.168  0.2459  1.2351  2.2857
   90MOL   H34645024   7.190   5.397   0.253  0.9715 -0.0882  0.1003
   90MOL   H34745025   7.422   5.332   0.301 -1.2097  0.1716  0.6637
   90MOL   H34845026   7.474   5.503   0.257  0.5598  0.8893  0.7518
   90MOL   H34945027   7.299   5.587   0.424  1.4101  1.3347 -1.6647
   90MOL   H35045028   7.273   5.420   0.489 -1.3016  1.3671  0.5754
   90MOL   H35145029   7.421   5.516   0.506 -1.2996 -0.5410  1.1184
   90MOL   C35245030   7.486   5.143   7.421  0.0595 -0.0188  0.1950
   90MOL   C35345031   7.574   5.266   7.383  0.6709  0.1464 -0.1660
   90MOL   O35445032   7.540   5.300   7.255  0.0911 -0.1868 -0.0950
   90MOL   C35545033   7.567   5.435   7.217 -0.1340  0.5586 -0.6563
   90MOL   C35645034   7.458   5.482   7.120  0.1368 -0.0059  0.3690
   90MOL   C35745035   7.460   5.638   7.086  0.2674 -0.1636  0.1716
   90MOL   C35845036   7.373   5.679   6.962 -0.3428  0.1912  0.3982
   90MOL   C35945037   7.239   5.715   7.013  0.9301  0.0840 -0.4137
   90MOL   C36045038   7.133   5.694   6.896  0.2835 -0.9213 -0.2932
   90MOL   H36145039   7.524   5.095   7.512  0.6197 -0.1595 -0.1086
   90MOL   H36245040   7.494   5.070   7.340 -0.9868  0.4437 -0.3293
   90MOL   H36345041   7.544   5.348   7.448 -0.9261  0.4656 -1.2591
   90MOL   H36445042   7.672   5.450   7.192 -0.1356  0.3492 -0.7973
   90MOL   H36545043   7.572   5.497   7.306 -1.8996 -1.8124  1.1498
   90MOL   H36645044   7.360   5.458   7.161  0.7359  0.2089  1.9496
   90MOL   H36745045   7.468   5.424   7.028 -4.0331 -0.2753 -0.0207
   90MOL   H36845046   7.438   5.696   7.176  1.9544  0.1813  0.3768
   90MOL   H36945047   7.565   5.656   7.062  0.9461 -2.2213  1.5575
   90MOL   H37045048   7.415   5.758   6.901 -0.4701  0.9010  1.2184
   90MOL   H37145049   7.359   5.604   6.885  0.4912 -0.9254  1.3193
   90MOL   H37245050   7.216   5.652   7.099 -0.4792 -0.5735 -1.2614
   90MOL   H37345051   7.250   5.821   7.036 -0.8896 -0.6221  4.2120
   90MOL   H37445052   7.059   5.772   6.913  0.9448 -0.1239 -1.0366
   90MOL   H37545053   7.174   5.705   6.795  0.6676  0.9075  0.0372
   90MOL   H37645054   7.088   5.595   6.901 -0.3563 -0.6769 -0.9901
   90MOL   C37745055   7.727   5.255   7.392  0.5544  0.5359  0.2240
   90MOL   C37845056   7.772   5.251   7.538 -0.4201  0.4647 -0.9234
   90MOL   O37945057   0.001   5.390   7.569 -0.0762  0.2952 -0.0135
   90MOL   C38045058   7.714   5.432   7.692 -0.3734 -0.7228 -0.1732
   90MOL   C38145059   7.727   5.581   7.718 -0.0390  0.1116 -0.0418
   90MOL   C38245060   7.646   5.626   0.060  0.2982  1.4645 -0.0637
   90MOL   C38345061   7.648   5.782   0.072 -0.1688 -0.7689 -0.5828
   90MOL   C38445062   7.571   5.839   0.200  0.5356 -0.1088  0.0359
   90MOL   C38545063   7.591   5.985   0.228 -0.8623  0.2211  0.6805
   90MOL   H38645064   7.753   5.165   7.336 -0.4103  1.1197 -1.1864
   90MOL   H38745065   0.004   5.337   7.345 -1.0753  0.5605 -1.7318
   90MOL   H38845066   7.699   5.205   7.604 -0.3020  0.3913 -0.8431
   90MOL   H38945067   7.749   5.373   7.777  0.0704 -0.4539 -0.1678
   90MOL   H39045068   7.609   5.406   7.677 -0.7774  0.2434  0.8729
   90MOL   H39145069   7.680   5.624   7.630 -0.5216 -0.2219  0.0508
   90MOL   H39245070   0.055   5.609   7.726  0.4226 -2.0668  2.6866
   90MOL   H39345071   7.544   5.590   0.048  0.0844  1.3160  1.9752
   90MOL   H39445072   7.676   5.578   0.153  0.9653  0.5401 -0.7486
   90MOL   H39545073   7.750   5.819   0.062 -0.3381 -0.0404  0.2929
   90MOL   H39645074   7.586   5.809   7.764 -1.1174 -0.1563  0.2889
   90MOL   H39745075   7.465   5.844   0.176  0.6016 -0.5385 -0.3499
   90MOL   H39845076   7.586   5.786   0.295  0.6866  0.7309  0.4845
   90MOL   H39945077   7.582   6.053   0.144 -0.8212 -1.7107 -0.9274
   90MOL   H40045078   7.518   6.006   0.306 -1.8465 -0.3334 -0.0801
   90MOL   H40145079   7.691   5.990   0.272 -0.3942 -0.7054 -0.2767
   90MOL   C40245080   0.126   5.181   7.566 -0.2444  1.0762  0.9041
   90MOL   C40345081   0.133   5.028   7.550 -0.3430 -0.0275 -0.2795
   90MOL   O40445082   0.083   4.969   7.669 -0.2281 -0.3949 -0.4749
   90MOL   C40545083   7.732   4.909   7.672  0.4250 -0.2182  0.8781
   90MOL   C40645084   7.663   4.953   0.030  0.0075 -0.2255  0.1832
   90MOL   C40745085   7.698   4.866   0.143 -0.8149  0.0085  0.1367
   90MOL   C40845086   7.607   4.890   0.260  0.0762 -0.2569 -0.0935
   90MOL   C40945087   7.631   4.812   0.388  0.1584 -0.0585  0.2167
   90MOL   C41045088   7.624   4.659   0.374 -0.0181  0.5668  0.3821
   90MOL   H41145089   0.170   5.207   7.663  3.3507 -0.9568 -0.0825
   90MOL   H41245090   0.207   5.227   7.510 -0.6293  1.4611  0.6606
   90MOL   H41345091   0.076   5.003   7.460  1.2236 -0.0671 -1.2687
   90MOL   H41445092   7.736   4.800   7.668 -2.2169 -0.3327  0.3394
   90MOL   H41545093   7.672   4.944   7.587 -1.3246 -1.2204  1.6836
   90MOL   H41645094   7.557   4.958   0.006 -0.2774 -3.6288  0.4255
   90MOL   H41745095   7.689   5.058   0.046  0.5649 -0.0099 -2.0827
   90MOL   H41845096   7.693   4.760   0.117  0.0205 -0.3744  1.5054
   90MOL   H41945097   0.024   4.886   0.171 -0.7355  0.5001 -0.4906
   90MOL   H42045098   7.615   4.995   0.288  1.8826  0.0234 -1.5883
   90MOL   H42145099   7.507   4.865   0.226  0.7241  0.0768 -2.2729
   90MOL   H42245100   7.724   4.847   0.434  0.4320 -0.2682 -0.1706
   90MOL   H42345101   7.557   4.843   0.461  0.4613  1.5079 -0.1224
   90MOL   H42445102   7.543   4.639   0.304 -2.3560  1.5590  2.7307
   90MOL   H42545103   7.716   4.616   0.335 -0.8053 -0.7330 -0.1151
   90MOL   H42645104   7.601   4.607   0.467 -0.0570  1.2872  0.7741
   90MOL   C42745105   0.275   4.969   7.526  0.1423  0.4439 -0.3109
   90MOL   C42845106   0.330   4.991   7.380  0.2043 -0.6234  0.4191
   90MOL   O42945107   0.457   4.927   7.377  0.7459  0.1565  0.2901
   90MOL   C43045108   0.572   4.994   7.438  0.4939  0.5992 -0.0979
   90MOL   C43145109   0.705   4.920   7.419  0.7116  0.5949  1.0198
   90MOL   C43245110   0.700   4.770   7.464 -0.5421 -0.6425  0.5541
   90MOL   C43345111   0.832   4.687   7.451  0.1721  0.0636 -0.3185
   90MOL   C43445112   0.797   4.551   7.523  0.1602  0.4659 -0.7643
   90MOL   C43545113   0.679   4.467   7.477  0.0978  0.5167  0.7548
   90MOL   H43645114   0.338   5.010   7.605  0.2568 -1.3455  0.5460
   90MOL   H43745115   0.274   4.860   7.531  0.8672  0.3642 -1.5858
   90MOL   H43845116   0.350   5.096   7.364 -3.8449 -0.1288 -2.0217
   90MOL   H43945117   0.562   4.997   7.546 -2.3923 -0.5754 -0.3144
   90MOL   H44045118   0.595   5.093   7.397  3.5568  0.0862  0.2745
   90MOL   H44145119   0.789   4.970   7.468  1.3932 -0.0541  0.5146
   90MOL   H44245120   0.724   4.925   7.312 -0.7078  2.8152  0.8343
   90MOL   H44345121   0.660   4.788   7.563 -1.7384 -0.8564  0.1166
   90MOL   H44445122   0.622   4.728   7.401  0.2983  0.2843 -1.1675
   90MOL   H44545123   0.852   4.668   7.346  0.9082 -0.7992 -0.0343
   90MOL   H44645124   0.918   4.730   7.503 -0.6547  0.1128  1.0232
   90MOL   H44745125   0.884   4.485   7.525  1.4042  2.0778 -0.4732
   90MOL   H44845126   0.797   4.575   7.629  1.6796 -0.7504 -0.4701
   90MOL   H44945127   0.687   4.432   7.374  1.9813 -0.2727  1.1527
   90MOL   H45045128   0.664   4.374   7.532 -0.4292 -0.2234 -0.6192
   90MOL   H45145129   0.580   4.513   7.486 -0.2430  0.4712 -2.3383
   90MOL   C45245130   0.245   4.950   7.261 -0.1930  0.2262  0.2037
   90MOL   C45345131   0.314   4.995   7.129 -0.1353  0.5391  0.4405
   90MOL   O45445132   0.315   5.134   7.127  0.1289  0.3238  0.0623
   90MOL   C45545133   0.414   5.204   7.054  0.5304 -0.1071 -0.1435
   90MOL   C45645134   0.425   5.342   7.121 -1.0302  0.2081 -0.0643
   90MOL   C45745135   0.286   5.416   7.117 -0.0274 -0.5321  0.3353
   90MOL   C45845136   0.287   5.525   7.228  0.0688  0.5217 -0.3554
   90MOL   C45945137   0.161   5.614   7.232 -0.2421 -0.6174  0.5752
   90MOL   C46045138   0.162   5.725   7.347  0.0562  0.4078  0.0326
   90MOL   H46145139   0.237   4.841   7.263  0.6671  0.1779  2.8169
   90MOL   H46245140   0.150   5.002   7.251  0.2899  0.8912 -1.1633
   90MOL   H46345141   0.413   4.950   7.121 -0.8822 -0.5836 -3.4537
   90MOL   H46445142   0.394   5.215   6.947  0.6595 -2.2224 -0.4070
   90MOL   H46545143   0.507   5.150   7.069  0.4472  0.4342  2.6487
   90MOL   H46645144   0.499   5.404   7.070 -1.1600  0.7445  0.3929
   90MOL   H46745145   0.448   5.318   7.225 -0.0607  0.6446 -0.1745
   90MOL   H46845146   0.280   5.464   7.020  2.7563  0.1367  0.4527
   90MOL   H46945147   0.204   5.345   7.125  1.2392 -2.0130  0.4287
   90MOL   H47045148   0.295   5.482   7.328 -0.3217 -1.5681 -1.1962
   90MOL   H47145149   0.377   5.583   7.210 -0.6421  0.7403 -3.4562
   90MOL   H47245150   0.137   5.664   7.138 -0.8858 -1.8729  0.0667
   90MOL   H47345151   0.069   5.561   7.255 -2.3892  2.4649 -0.4925
   90MOL   H47445152   0.108   5.687   7.433  1.3400  0.9602  1.0871
   90MOL   H47545153   0.261   5.733   7.392 -1.1811  1.7087  2.6333
   90MOL   H47645154   0.122   5.820   7.310 -0.8331  0.4825  1.1822
   90MOL   C47745155   0.232   4.943   7.001 -0.1557 -0.8543 -0.3045
   90MOL   C47845156   0.089   4.982   6.977 -0.9162 -0.1170  0.1639
   90MOL   O47945157   0.055   4.938   6.849  0.2369 -0.4518  0.2941
   90MOL   C48045158   7.694   4.916   6.829  0.6250  0.4417 -0.2567
   90MOL   C48145159   7.675   4.888   6.678 -0.1112  0.5761 -0.7311
   90MOL   C48245160   0.007   4.799   6.625  0.0802  0.1107  0.9349
   90MOL   C48345161   7.755   4.775   6.470 -0.9984  0.3341 -0.2900
   90MOL   C48445162   0.064   4.668   6.400 -0.2364 -0.1665  0.0677
   90MOL   C48545163   0.214   4.694   6.395  0.6095 -0.1069 -0.5085
   90MOL   H48645164   0.285   4.974   6.910 -0.8272 -2.1036 -1.1421
   90MOL   H48745165   0.241   4.835   7.008  1.2632 -0.6724  0.7541
   90MOL   H48845166   0.028   4.938   7.056 -1.3196 -0.0649 -0.1194
   90MOL   H48945167   7.621   4.989   6.864 -0.2683 -1.0597  1.0812
   90MOL   H49045168   7.660   4.831   6.887 -1.5244  1.3239 -0.1797
   90MOL   H49145169   7.673   4.985   6.627 -3.0130  1.8495  1.6217
   90MOL   H49245170   7.582   4.834   6.659  1.0976 -1.7359 -0.1698
   90MOL   H49345171   0.104   4.849   6.633  0.3790 -0.6806  2.4476
   90MOL   H49445172   0.022   4.712   6.689  3.1085 -0.6970 -0.7219
   90MOL   H49545173   7.651   4.746   6.464 -1.1514  1.0128 -1.1760
   90MOL   H49645174   7.760   4.865   6.408  1.9504 -0.0005 -0.6177
   90MOL   H49745175   0.049   4.577   6.459 -1.8719 -0.1831 -0.3533
   90MOL   H49845176   0.038   4.650   6.296 -1.5946 -1.0659  0.5547
   90MOL   H49945177   0.256   4.730   6.301 -1.2045 -0.8077 -1.6091
   90MOL   H50045178   0.245   4.756   6.480  0.4999 -0.4808 -0.1947
   90MOL   H50145179   0.259   4.596   6.408  0.2694  0.1760  3.5765
   90MOL   H50245180   0.088   5.091   6.983  0.6988 -0.1992  2.5773
   91MOL     C145181   2.039   4.066   6.954  0.1072 -0.0388  0.1000
   91MOL     C245182   1.897   4.077   6.907  0.2541  0.4943  0.3472
   91MOL     O345183   1.828   3.956   6.927 -0.2856 -0.2995 -0.5104
   91MOL     C445184   1.796   3.919   7.067  0.0669 -0.0966 -0.2782
   91MOL     C545185   1.738   3.775   7.065  0.4225  0.3409  0.1034
   91MOL     C645186   1.748   3.702   7.201  0.0270  0.5613  0.6069
   91MOL     C745187   1.708   3.560   7.211 -0.0480 -0.7797  0.7287
   91MOL     C845188   1.580   3.525   7.134 -0.2089  0.3594  0.1613
   91MOL     C945189   1.519   3.387   7.172 -0.0336  0.0474  0.3282
   91MOL    H1045190   2.080   3.971   6.918 -0.4210 -0.4183  0.4844
   91MOL    H1145191   2.089   4.151   6.908 -0.8152  0.2016 -0.4798
   91MOL    H1245192   1.848   4.157   6.962 -2.3145 -1.5246  1.1261
   91MOL    H1345193   1.717   3.987   7.097  0.1535 -0.7169  1.4280
   91MOL    H1445194   1.880   3.910   7.137  0.5993  0.6681 -0.8103
   91MOL    H1545195   1.784   3.730   6.977  1.1705  0.9446  0.1855
   91MOL    H1645196   1.634   3.789   7.037  0.4240  0.5673  0.2030
   91MOL    H1745197   1.850   3.705   7.240 -0.2941  1.1181  1.4132
   91MOL    H1845198   1.678   3.757   7.264 -1.3122 -0.8663  0.4115
   91MOL    H1945199   1.778   3.499   7.154  0.5309 -1.1264  1.8075
   91MOL    H2045200   1.714   3.538   7.317 -0.8184  1.2625  1.2258
   91MOL    H2145201   1.595   3.524   7.027 -0.5766 -0.0197  0.1122
   91MOL    H2245202   1.509   3.607   7.149  2.1895  2.1552  2.2276
   91MOL    H2345203   1.523   3.369   7.279 -0.6521  1.3430  0.5799
   91MOL    H2445204   1.418   3.372   7.136  0.7107  0.7889 -2.1948
   91MOL    H2545205   1.576   3.309   7.123 -2.8037 -0.9943 -1.3259
   91MOL    H2645206   2.050   4.066   7.062  0.9346 -3.1097  0.0780
   91MOL    C2745207   1.899   4.120   6.757  0.1720 -0.1474 -0.0339
   91MOL    C2845208   1.758   4.139   6.688 -0.1134 -0.2556  0.1938
   91MOL    O2945209   1.788   4.190   6.560  0.6217  0.4012  0.2328
   91MOL    C3045210   1.736   4.320   6.535 -0.0037 -0.9266  0.5924
   91MOL    C3145211   1.719   4.339   6.378 -0.5957  0.0052  0.4953
   91MOL    C3245212   1.599   4.254   6.322  0.0112  0.3380 -0.2127
   91MOL    C3345213   1.621   4.226   6.172 -0.2183 -0.0149  0.2333
   91MOL    C3445214   1.539   4.112   6.112  0.1589 -0.5305 -0.4492
   91MOL    C3545215   1.388   4.120   6.149  0.6003  0.7419  0.2167
   91MOL    H3645216   1.951   4.215   6.747  1.8691 -1.1112 -0.6480
   91MOL    H3745217   1.964   4.063   6.691  0.1778  0.1050 -0.2462
   91MOL    H3845218   1.717   4.218   6.752  1.7500  0.6279  0.3226
   91MOL    H3945219   1.807   4.393   6.573 -0.4964 -0.5525  0.8071
   91MOL    H4045220   1.637   4.328   6.580  0.1537  0.7609  0.6524
   91MOL    H4145221   1.807   4.312   6.319  0.3051  1.0129  1.3466
   91MOL    H4245222   1.703   4.445   6.356 -1.5211 -0.5621 -1.7276
   91MOL    H4345223   1.600   4.159   6.376  1.6729  0.2563 -0.3722
   91MOL    H4445224   1.501   4.296   6.345 -0.4118 -0.8450  0.1855
   91MOL    H4545225   1.582   4.315   6.124 -1.9163 -0.7171  0.3044
   91MOL    H4645226   1.724   4.225   6.135 -0.6334  0.9317 -0.9760
   91MOL    H4745227   1.551   4.107   6.003 -2.6507  0.8333 -0.8658
   91MOL    H4845228   1.571   4.017   6.154  1.0658 -0.3499 -0.7232
   91MOL    H4945229   1.345   4.204   6.096 -0.2308 -0.7289 -1.5108
   91MOL    H5045230   1.321   4.043   6.111  0.8198 -0.0718  1.4241
   91MOL    H5145231   1.364   4.136   6.254 -0.2304 -0.3913  0.2061
   91MOL    C5245232   1.667   4.013   6.682 -0.6983  0.2302 -0.2100
   91MOL    C5345233   1.515   4.049   6.665  0.0141 -0.2957  0.0207
   91MOL    O5445234   1.446   3.930   6.620 -0.0726 -0.1839 -0.0488
   91MOL    C5545235   1.474   3.893   6.490  0.4345 -0.0581 -0.2912
   91MOL    C5645236   1.433   3.743   6.468 -0.0111  0.5215  0.1206
   91MOL    C5745237   1.406   3.709   6.321  0.4174 -0.0511 -0.3554
   91MOL    C5845238   1.537   3.696   6.225 -0.5294 -1.0461 -0.7846
   91MOL    C5945239   1.498   3.635   6.089 -0.5236  0.0615  0.1543
   91MOL    C6045240   1.460   3.489   6.085  0.8802 -0.0495 -0.4837
   91MOL    H6145241   1.670   3.973   6.783  1.7459  1.2503  0.1626
   91MOL    H6245242   1.711   3.940   6.613  1.9721  0.2235  1.4178
   91MOL    H6345243   1.497   4.126   6.590 -0.0639 -0.1680  0.1732
   91MOL    H6445244   1.575   3.912   6.455 -0.5270  0.4603 -2.9787
   91MOL    H6545245   1.426   3.973   6.434 -1.2505 -0.1762  0.9302
   91MOL    H6645246   1.349   3.728   6.537  2.2446 -0.1938  2.8134
   91MOL    H6745247   1.504   3.673   6.512 -1.5209 -0.7538  0.5812
   91MOL    H6845248   1.348   3.617   6.314 -0.9414  0.8674 -1.6054
   91MOL    H6945249   1.339   3.790   6.290 -0.4738 -0.6980 -0.1288
   91MOL    H7045250   1.564   3.801   6.212  0.2235 -1.5644 -3.6582
   91MOL    H7145251   1.612   3.640   6.280 -0.2311  0.5525  0.4827
   91MOL    H7245252   1.414   3.695   6.052 -1.8520 -0.6868  1.8699
   91MOL    H7345253   1.575   3.651   6.013 -1.9890  0.7253 -1.2316
   91MOL    H7445254   1.543   3.424   6.115  1.1142  0.3702 -0.2113
   91MOL    H7545255   1.383   3.482   6.162  1.0598 -1.2496 -0.3974
   91MOL    H7645256   1.422   3.456   5.989  0.9718 -0.3481 -0.4177
   91MOL    C7745257   1.456   4.093   6.798  0.3047  0.1492  0.3059
   91MOL    C7845258   1.309   4.136   6.799  0.2049 -0.5470 -0.2280
   91MOL    O7945259   1.316   4.268   6.766 -0.3020 -0.3849 -0.4249
   91MOL    C8045260   1.224   4.296   6.666 -0.9470 -0.4965  0.6936
   91MOL    C8145261   1.208   4.445   6.648 -0.6801 -0.5352  0.3258
   91MOL    C8245262   1.331   4.511   6.579  0.4473 -0.5242  0.4688
   91MOL    C8345263   1.340   4.653   6.633  0.8398 -1.0226 -0.3255
   91MOL    C8445264   1.445   4.741   6.574 -0.4188 -0.4409  0.6239
   91MOL    C8545265   1.587   4.680   6.604 -0.6410  0.4496  0.0393
   91MOL    H8645266   1.515   4.178   6.834 -0.6521  0.6831  0.6571
   91MOL    H8745267   1.477   4.018   6.874 -0.1854 -0.0239  0.2701
   91MOL    H8845268   1.257   4.072   6.729  2.8350  1.7423 -4.4625
   91MOL    H8945269   1.124   4.270   6.698 -1.1482  0.2593  0.6999
   91MOL    H9045270   1.260   4.244   6.577  2.4810 -0.3697  1.9129
   91MOL    H9145271   1.181   4.491   6.743 -1.2505  0.6407 -0.3887
   91MOL    H9245272   1.113   4.459   6.597 -0.4067 -1.7127 -0.5281
   91MOL    H9345273   1.418   4.450   6.602  1.6024  1.3583  1.1663
   91MOL    H9445274   1.330   4.523   6.471  0.0653 -1.1501  0.4004
   91MOL    H9545275   1.242   4.696   6.612  0.6329 -0.8492  0.9809
   91MOL    H9645276   1.350   4.653   6.741  0.8350 -0.0235 -0.3268
   91MOL    H9745277   1.420   4.759   6.469 -2.6486 -0.5279  1.1105
   91MOL    H9845278   1.429   4.829   6.636  1.5542 -0.5607  1.3319
   91MOL    H9945279   1.666   4.753   6.586  0.0215 -0.3657 -0.4033
   91MOL   H10045280   1.602   4.640   6.704 -0.7020 -2.4541 -1.0541
   91MOL   H10145281   1.604   4.594   6.540 -1.3459 -0.7088  1.3762
   91MOL   C10245282   1.239   4.106   6.933  0.0608  0.2640 -0.7697
   91MOL   C10345283   1.217   3.961   6.966 -0.5691  0.7338  0.0827
   91MOL   O10445284   1.169   3.967   7.098 -0.0722 -0.5215 -0.2906
   91MOL   C10545285   1.265   3.932   7.193 -0.4098 -0.0584  0.0679
   91MOL   C10645286   1.196   3.907   7.329 -0.0569 -0.0584  0.2684
   91MOL   C10745287   1.148   4.038   7.387  0.2967 -0.2243 -0.5181
   91MOL   C10845288   1.086   4.038   7.529  0.4866  0.4497  0.2605
   91MOL   C10945289   1.064   4.184   7.580 -0.3810 -0.1608 -0.0102
   91MOL   C11045290   0.936   4.200   7.659  0.5758 -0.0372  0.1224
   91MOL   H11145291   1.289   4.155   7.017  1.8378 -0.8368 -1.1631
   91MOL   H11245292   1.146   4.164   6.935 -1.4742 -2.1431 -0.0965
   91MOL   H11345293   1.315   3.913   6.956 -0.9181 -0.1917  1.0833
   91MOL   H11445294   1.341   4.008   7.213  0.0850 -0.5053 -0.1118
   91MOL   H11545295   1.321   3.840   7.173  1.5682  0.9984  0.6520
   91MOL   H11645296   1.269   3.866   7.398 -0.3562  0.7188  1.0514
   91MOL   H11745297   1.115   3.837   7.311 -0.3739 -0.2190  2.1874
   91MOL   H11845298   1.231   4.108   7.386 -0.8460  1.2308  1.4459
   91MOL   H11945299   1.069   4.079   7.324  0.6444  0.6598 -0.3860
   91MOL   H12045300   0.987   3.994   7.518  0.5603 -0.1294  1.7436
   91MOL   H12145301   1.136   3.969   7.598  1.3880  0.1723 -0.6607
   91MOL   H12245302   1.139   4.213   7.654 -0.7315  1.3371 -0.2267
   91MOL   H12345303   1.057   4.252   7.496  0.7505  0.6126  0.5060
   91MOL   H12445304   0.933   4.129   7.742 -0.1844 -1.3753 -1.0529
   91MOL   H12545305   0.929   4.306   7.685 -0.5220  0.2995 -1.5092
   91MOL   H12645306   0.843   4.197   7.603  0.0353  0.7245  0.9594
   91MOL   C12745307   1.121   3.888   6.876 -0.1760  0.2940 -0.2277
   91MOL   C12845308   1.106   3.739   6.906 -0.3390  0.4045 -0.5651
   91MOL   O12945309   1.194   3.662   6.827  0.2418  0.0589 -0.6262
   91MOL   C13045310   1.334   3.670   6.846 -0.9354 -0.1801  0.1147
   91MOL   C13145311   1.399   3.552   6.768 -0.3877 -0.4681  0.0669
   91MOL   C13245312   1.345   3.417   6.822  0.1536  0.6330  0.2244
   91MOL   C13345313   1.418   3.301   6.764  0.1038  0.6341 -0.2773
   91MOL   C13445314   1.404   3.161   6.834 -0.9891 -0.6256  0.4827
   91MOL   C13545315   1.441   3.046   6.741  0.0037 -0.4405 -0.2766
   91MOL   H13645316   1.033   3.952   6.876 -1.4827 -1.4620 -0.9958
   91MOL   H13745317   1.165   3.896   6.777  2.0670  0.7140  0.7664
   91MOL   H13845318   1.131   3.718   7.010  0.0377  1.1839 -0.4928
   91MOL   H13945319   1.366   3.671   6.950  1.9401  2.5917 -0.6960
   91MOL   H14045320   1.374   3.761   6.801 -1.1186 -0.5604 -0.8276
   91MOL   H14145321   1.506   3.534   6.760 -0.2183 -0.1211  1.4380
   91MOL   H14245322   1.359   3.571   6.668 -0.4488 -0.0391  0.1724
   91MOL   H14345323   1.364   3.410   6.929  1.5601  0.6893 -0.0117
   91MOL   H14445324   1.239   3.411   6.800  0.3083  0.5338 -0.5211
   91MOL   H14545325   1.379   3.279   6.664 -3.3617  1.2804  0.8382
   91MOL   H14645326   1.524   3.322   6.754  0.1486  0.1175 -0.9739
   91MOL   H14745327   1.471   3.156   6.921 -1.2747  0.7007  0.7793
   91MOL   H14845328   1.306   3.143   6.877  0.1433  0.5513  3.7055
   91MOL   H14945329   1.538   3.056   6.693  1.3463  0.8924  2.6190
   91MOL   H15045330   1.445   2.957   6.805 -1.8454 -1.2237 -1.2067
   91MOL   H15145331   1.359   3.030   6.671 -1.2359  0.5265  0.9182
   91MOL   C15245332   0.969   3.675   6.864 -0.5007 -0.2198  0.7251
   91MOL   C15345333   0.953   3.525   6.891  0.0123  0.5312 -0.0145
   91MOL   O15445334   0.941   3.510   7.030  0.7485  0.6060  0.1451
   91MOL   C15545335   1.038   3.422   7.065 -0.0054  0.2545 -0.4575
   91MOL   C15645336   1.024   3.421   7.214  1.2773 -0.5670 -0.9385
   91MOL   C15745337   1.049   3.560   7.286 -0.1628 -0.3924 -0.3153
   91MOL   C15845338   0.993   3.548   7.429 -0.3098 -0.1696 -0.1904
   91MOL   C15945339   1.063   3.646   7.522  0.0793  0.3479  0.4276
   91MOL   C16045340   1.039   3.604   7.667 -0.1155  0.2408  0.5883
   91MOL   H16145341   0.881   3.705   6.921 -0.5700 -1.7708  1.4604
   91MOL   H16245342   0.936   3.714   6.768 -0.3151 -0.1815  0.6762
   91MOL   H16345343   1.031   3.467   6.843 -0.9763 -0.3024 -0.6300
   91MOL   H16445344   1.137   3.464   7.049  1.6301 -2.5892  1.6806
   91MOL   H16545345   1.027   3.322   7.024  3.7188 -0.8990  1.1292
   91MOL   H16645346   1.095   3.348   7.253  0.7588 -0.5009  0.1516
   91MOL   H16745347   0.928   3.374   7.235  0.5066  0.7647 -1.4063
   91MOL   H16845348   1.150   3.599   7.276 -0.5053  0.7493  0.5018
   91MOL   H16945349   0.979   3.628   7.237  0.7573  0.4169 -0.5371
   91MOL   H17045350   0.888   3.576   7.429 -0.2878 -0.0709 -1.5427
   91MOL   H17145351   0.999   3.446   7.465  2.3214  0.9684  2.8613
   91MOL   H17245352   1.170   3.642   7.499 -0.2063  1.4972 -1.2369
   91MOL   H17345353   1.023   3.746   7.507 -0.1533  0.4437  1.6474
   91MOL   H17445354   1.085   3.669   7.740  0.5186 -0.2946  0.6638
   91MOL   H17545355   0.931   3.599   7.682 -0.5268  0.6742 -1.8773
   91MOL   H17645356   1.077   3.504   7.686 -0.6612 -0.1832 -0.5041
   91MOL   C17745357   0.823   3.467   6.832  0.2178  0.1873  0.2090
   91MOL   C17845358   0.841   3.451   6.679  0.1273 -0.0166 -0.3780
   91MOL   O17945359   0.945   3.353   6.660 -0.4129 -0.1097  0.1988
   91MOL   C18045360   1.026   3.363   6.550  0.0986  0.2162 -0.3827
   91MOL   C18145361   1.110   3.234   6.533  0.1813 -0.6357 -0.1010
   91MOL   C18245362   1.197   3.250   6.412 -0.1578 -0.2211  0.1697
   91MOL   C18345363   1.247   3.116   6.370 -0.1442 -0.4187 -0.5537
   91MOL   C18445364   1.363   3.112   6.268  0.7461  0.6122 -0.5290
   91MOL   C18545365   1.313   3.155   6.132  0.0900  0.1955 -0.1640
   91MOL   H18645366   0.797   3.376   6.887 -1.8059  0.4364 -0.2915
   91MOL   H18745367   0.738   3.534   6.849 -0.1534  0.4066 -2.3992
   91MOL   H18845368   0.868   3.546   6.633  1.7149  0.1149  0.7888
   91MOL   H18945369   1.092   3.449   6.563  0.7001 -0.3963  0.5885
   91MOL   H19045370   0.965   3.382   6.461  1.0691 -1.1678 -1.3471
   91MOL   H19145371   1.043   3.149   6.519 -1.8777  0.9654 -0.1777
   91MOL   H19245372   1.165   3.221   6.626 -0.4301  0.5657  0.4414
   91MOL   H19345373   1.139   3.284   6.327 -0.0956  3.3864  1.4921
   91MOL   H19445374   1.278   3.322   6.428 -3.0215  3.1400  0.0030
   91MOL   H19545375   1.280   3.068   6.462  1.5472  2.0966  0.1984
   91MOL   H19645376   1.170   3.052   6.327 -1.3923  0.7942 -0.1570
   91MOL   H19745377   1.436   3.190   6.290  2.3462 -0.3752 -2.1031
   91MOL   H19845378   1.413   3.016   6.259  0.3602  0.2327  1.3132
   91MOL   H19945379   1.251   3.075   6.094 -0.4332  0.6531 -0.2847
   91MOL   H20045380   1.239   3.235   6.134 -1.6022 -1.3584  1.4618
   91MOL   H20145381   1.387   3.169   6.053 -0.5048  1.0174 -0.5800
   91MOL   C20245382   0.704   3.387   6.621  0.1605 -0.0987 -0.2181
   91MOL   C20345383   0.585   3.478   6.600 -0.6863 -0.0401 -0.0668
   91MOL   O20445384   0.491   3.390   6.551 -0.5845  0.4342 -0.2450
   91MOL   C20545385   0.357   3.441   6.534 -0.4286 -0.2192 -0.0087
   91MOL   C20645386   0.260   3.329   6.552  0.1496  0.0896 -0.0639
   91MOL   C20745387   0.246   3.278   6.697  0.2567 -0.6227 -0.5033
   91MOL   C20845388   0.134   3.349   6.773 -0.4253 -0.3380  0.1028
   91MOL   C20945389   0.095   3.277   6.907 -0.1251  0.7046 -0.4138
   91MOL   C21045390   0.202   3.287   7.017 -0.0261  0.5970 -0.6557
   91MOL   H21145391   0.735   3.348   6.524 -0.2746 -1.1424  0.0583
   91MOL   H21245392   0.671   3.305   6.684  2.7505 -0.9791  0.0475
   91MOL   H21345393   0.561   3.515   6.699  0.0630  1.1071 -0.2992
   91MOL   H21445394   0.334   3.482   6.436  0.0736  0.2233  0.0598
   91MOL   H21545395   0.339   3.528   6.597 -2.6081  0.9877 -2.2305
   91MOL   H21645396   0.294   3.246   6.490 -2.0002 -0.2783 -0.7881
   91MOL   H21745397   0.168   3.366   6.507  0.5223  0.8932 -0.1731
   91MOL   H21845398   0.207   3.177   6.694 -1.3709 -0.0003 -1.2824
   91MOL   H21945399   0.339   3.275   6.753 -0.3819  0.1197  0.6202
   91MOL   H22045400   0.154   3.455   6.792 -1.1481 -0.6295  2.7234
   91MOL   H22145401   0.051   3.356   6.703 -0.6498  0.5008  0.4411
   91MOL   H22245402   0.003   3.327   6.939 -0.7096 -0.5912 -0.0212
   91MOL   H22345403   0.071   3.173   6.888 -0.0584  0.5785  0.1800
   91MOL   H22445404   0.233   3.391   7.032  0.8989  0.3277 -0.6649
   91MOL   H22545405   0.166   3.257   7.116  0.9797 -0.3296 -0.5644
   91MOL   H22645406   0.283   3.217   6.996 -0.9861 -0.1829 -1.7883
   91MOL   C22745407   0.610   3.590   6.484  0.6149  0.7235 -0.1183
   91MOL   C22845408   0.532   3.726   6.505 -0.7649  0.5017  0.0432
   91MOL   O22945409   0.599   3.788   6.620 -0.0466 -0.2874  0.0416
   91MOL   C23045410   0.513   3.817   6.731  0.2321 -0.1204 -0.2481
   91MOL   C23145411   0.595   3.898   6.832 -0.2000 -0.0200 -0.7390
   91MOL   C23245412   0.668   4.014   6.765 -0.0797 -0.3870  0.1006
   91MOL   C23345413   0.739   4.110   6.853 -0.3277 -0.5128  0.2111
   91MOL   C23445414   0.840   4.197   6.777  0.5985 -0.1447  0.1991
   91MOL   C23545415   0.804   4.344   6.813 -0.4850  0.0902  0.2134
   91MOL   H23645416   0.714   3.620   6.476  0.6169  1.0528  0.9545
   91MOL   H23745417   0.575   3.532   6.398 -0.4072  0.7474  0.2725
   91MOL   H23845418   0.425   3.718   6.521 -0.5469 -1.2497  0.7630
   91MOL   H23945419   0.473   3.726   6.777 -1.5356  0.9212  0.2997
   91MOL   H24045420   0.426   3.870   6.693 -1.5518 -1.1833  2.2153
   91MOL   H24145421   0.673   3.838   6.878 -0.6832  0.4054  0.6656
   91MOL   H24245422   0.533   3.946   6.907 -2.5898 -1.4437 -1.7266
   91MOL   H24345423   0.745   3.968   6.704  2.0752  2.4679  0.5780
   91MOL   H24445424   0.602   4.071   6.698  0.9893 -1.0021 -1.5025
   91MOL   H24545425   0.673   4.184   6.899  2.5624  0.8187  2.3812
   91MOL   H24645426   0.783   4.064   6.942  0.7840 -0.2441 -0.1992
   91MOL   H24745427   0.939   4.179   6.818  0.1564 -0.4934  1.1497
   91MOL   H24845428   0.837   4.181   6.669  0.7519  0.4622  0.1002
   91MOL   H24945429   0.815   4.364   6.919  1.3055  1.0563 -0.1295
   91MOL   H25045430   0.871   4.407   6.754  0.7555 -0.7560  0.6792
   91MOL   H25145431   0.701   4.363   6.786 -0.6839 -0.3110  0.6893
   91MOL   C25245432   0.532   3.815   6.378 -0.7045  0.6598 -0.3741
   91MOL   C25345433   0.484   3.965   6.401 -0.2486 -0.0968 -0.2407
   91MOL   O25445434   0.389   4.005   6.302  0.3830 -0.0482 -0.2300
   91MOL   C25545435   0.251   4.000   6.327 -0.9894  0.6231 -0.2322
   91MOL   C25645436   0.193   3.857   6.312  0.0372  0.2677 -0.2443
   91MOL   C25745437   0.041   3.853   6.342  0.0779  0.4922  0.7214
   91MOL   C25845438   7.774   3.712   6.369  0.0986 -0.1309  0.7218
   91MOL   C25945439   7.627   3.697   6.390  0.2585 -0.5786 -0.3349
   91MOL   C26045440   7.581   3.552   6.380  0.9143  0.0633  0.0266
   91MOL   H26145441   0.631   3.820   6.332 -2.0604 -0.1357 -3.4724
   91MOL   H26245442   0.470   3.748   6.318 -0.7068 -0.8082  1.2130
   91MOL   H26345443   0.443   3.964   6.502 -0.9912 -1.1859 -0.5423
   91MOL   H26445444   0.206   4.076   6.263  0.3508  2.0183  0.4476
   91MOL   H26545445   0.232   4.036   6.428 -0.3872  1.0053 -0.2505
   91MOL   H26645446   0.244   3.790   6.380 -1.5964 -0.0457  0.6932
   91MOL   H26745447   0.210   3.817   6.212 -0.8832 -0.8982  0.0583
   91MOL   H26845448   0.023   3.907   6.435 -0.3678 -0.8292  1.4159
   91MOL   H26945449   7.757   3.905   6.269  2.9762  1.4734 -1.0995
   91MOL   H27045450   0.034   3.658   6.282 -2.6016  0.7264 -0.9798
   91MOL   H27145451   0.057   3.665   6.447  2.6103  0.7306 -0.6466
   91MOL   H27245452   7.602   3.746   6.484 -0.8911  0.8040 -1.3315
   91MOL   H27345453   7.571   3.754   6.316 -1.1399  0.1061  1.2413
   91MOL   H27445454   7.475   3.539   6.399  0.9014 -2.7086 -1.6942
   91MOL   H27545455   7.616   3.503   6.289  2.3154  1.1883 -0.0680
   91MOL   H27645456   7.623   3.498   6.464 -0.0983 -1.9442 -0.7354
   91MOL   C27745457   0.606   4.059   6.388  0.0737  0.2253 -0.2405
   91MOL   C27845458   0.568   4.209   6.402  0.0688 -0.1377 -0.5200
   91MOL   O27945459   0.471   4.207   6.514 -0.0759  0.6500 -0.4819
   91MOL   C28045460   0.395   4.324   6.542  0.2667  0.1432 -0.7520
   91MOL   C28145461   0.326   4.293   6.671  0.4932 -1.2816 -0.5474
   91MOL   C28245462   0.245   4.411   6.724  0.1942  0.4443 -0.4659
   91MOL   C28345463   0.162   4.356   6.845 -0.7252  0.0358 -0.7600
   91MOL   C28445464   0.075   4.463   6.904  0.5452  0.1845 -0.4930
   91MOL   C28545465   0.004   4.416   7.028  0.2418 -0.5130  0.2847
   91MOL   H28645466   0.674   4.021   6.463 -1.1264 -0.1206  0.6830
   91MOL   H28745467   0.651   4.052   6.289  1.4131  2.5025  0.1815
   91MOL   H28845468   0.504   4.230   6.316  0.0060 -1.9299 -0.9343
   91MOL   H28945469   0.309   4.337   6.476  0.1180 -2.0981 -1.0423
   91MOL   H29045470   0.460   4.411   6.555 -1.2731  1.3953 -1.2234
   91MOL   H29145471   0.407   4.274   6.741 -0.1955  0.9571  0.9449
   91MOL   H29245472   0.272   4.199   6.665  3.4084 -3.1801  1.6543
   91MOL   H29345473   0.329   4.474   6.751 -1.3587  1.5626  1.8467
   91MOL   H29445474   0.187   4.457   6.644 -0.3952 -0.0174 -0.3101
   91MOL   H29545475   0.099   4.272   6.818 -0.6311  0.0014 -0.8690
   91MOL   H29645476   0.228   4.314   6.920 -0.2772  1.0273 -0.5939
   91MOL   H29745477   0.131   4.555   6.911 -1.7043  1.9892 -4.3050
   91MOL   H29845478   0.005   4.493   6.826 -0.8417  3.7120  1.9890
   91MOL   H29945479   7.748   4.498   7.093 -0.3675  1.5578 -2.5717
   91MOL   H30045480   7.694   4.353   7.008  1.4375 -2.5501  1.2751
   91MOL   H30145481   0.075   4.360   7.089 -0.8475 -4.1472 -1.6578
   91MOL   C30245482   0.688   4.307   6.431  0.8991  0.1039 -0.0942
   91MOL   C30345483   0.828   4.285   6.358  0.6651 -0.3068 -0.0096
   91MOL   O30445484   0.912   4.179   6.399 -0.3402  0.1331  0.6567
   91MOL   C30545485   1.021   4.145   6.312 -1.0080 -0.2750  0.4377
   91MOL   C30645486   1.083   4.012   6.348 -0.3893  0.1914 -1.0157
   91MOL   C30745487   0.984   3.919   6.401 -0.0570  0.0303 -0.0927
   91MOL   C30845488   1.027   3.776   6.443 -0.6399  0.9093 -0.2001
   91MOL   C30945489   1.040   3.680   6.325 -0.4624  0.7890  0.3817
   91MOL   C31045490   0.914   3.637   6.258 -0.4446 -0.1639  0.2902
   91MOL   H31145491   0.647   4.406   6.412 -1.6446 -0.7541  0.7080
   91MOL   H31245492   0.699   4.297   6.539 -0.7394 -0.1718  0.0495
   91MOL   H31345493   0.800   4.267   6.255  2.3587  1.5700 -0.8276
   91MOL   H31445494   1.094   4.225   6.317 -2.6940  1.1743  2.5277
   91MOL   H31545495   0.989   4.137   6.208  1.6361 -1.1809 -0.3558
   91MOL   H31645496   1.158   4.024   6.425 -1.6940 -1.5058  0.5656
   91MOL   H31745497   1.131   3.984   6.254 -1.6048  1.1684 -1.9457
   91MOL   H31845498   0.957   3.959   6.499  0.1301  1.5761 -0.6622
   91MOL   H31945499   0.895   3.920   6.338  0.0228  0.8182 -0.1886
   91MOL   H32045500   1.120   3.782   6.500 -0.3948 -2.5085 -0.1235
   91MOL   H32145501   0.943   3.740   6.503 -0.6037  0.6740 -0.2921
   91MOL   H32245502   1.089   3.736   6.245 -1.8465 -1.2974 -1.9759
   91MOL   H32345503   1.104   3.594   6.343 -1.5213 -0.4488 -1.5724
   91MOL   H32445504   0.940   3.579   6.169 -1.0318 -0.6905  0.4655
   91MOL   H32545505   0.843   3.587   6.324 -1.6410 -0.2556 -1.0387
   91MOL   H32645506   0.848   3.717   6.224 -0.9632  0.4479  2.6537
   91MOL   C32745507   0.902   4.426   6.360  0.0827 -0.0822 -0.1628
   91MOL   C32845508   0.940   4.480   6.220 -0.6036  1.0938 -0.4521
   91MOL   O32945509   0.813   4.494   6.158  0.0621 -0.2029 -0.7443
   91MOL   C33045510   0.795   4.425   6.037  0.1757  0.8152  0.4090
   91MOL   C33145511   0.655   4.458   5.981  0.2685  0.4527  0.4614
   91MOL   C33245512   0.543   4.408   6.075  0.0777 -0.2093  0.9862
   91MOL   C33345513   0.398   4.439   6.036 -1.0939 -0.2301 -0.0712
   91MOL   C33445514   0.294   4.398   6.139  0.4144  0.2130 -0.2629
   91MOL   C33545515   0.152   4.456   6.119 -0.0452 -0.4333  0.2892
   91MOL   H33645516   0.996   4.426   6.417  0.8987 -0.8773 -1.4750
   91MOL   H33745517   0.850   4.507   6.410 -0.5513 -0.5619 -0.0405
   91MOL   H33845518   0.999   4.398   6.180  0.5120  2.3044 -1.2820
   91MOL   H33945519   0.809   4.318   6.055  0.5979  0.8717  0.4282
   91MOL   H34045520   0.867   4.453   5.960  1.9588  0.3430  1.8606
   91MOL   H34145521   0.628   4.419   5.883  2.4000  1.3738 -0.5223
   91MOL   H34245522   0.651   4.566   5.969 -2.2523  0.0905 -2.5311
   91MOL   H34345523   0.546   4.299   6.082  1.8454 -0.1890  0.6334
   91MOL   H34445524   0.562   4.443   6.177  2.3671 -2.3610  1.3352
   91MOL   H34545525   0.390   4.547   6.024  2.8805  0.0530 -0.7426
   91MOL   H34645526   0.368   4.397   5.940 -1.5720  0.6149 -0.2924
   91MOL   H34745527   0.295   4.289   6.138  0.3134  0.2107 -0.1842
   91MOL   H34845528   0.323   4.422   6.241 -0.2351  1.6361 -0.4043
   91MOL   H34945529   0.079   4.431   6.196  0.2598  0.2467  0.8177
   91MOL   H35045530   0.158   4.565   6.109  0.7213 -0.6120 -1.2683
   91MOL   H35145531   0.114   4.416   6.025 -0.3115  3.6251 -1.4236
   91MOL   C35245532   1.023   4.608   6.228  0.2343 -0.4403 -0.4426
   91MOL   C35345533   1.083   4.655   6.092 -0.4693 -0.3923  0.2449
   91MOL   O35445534   1.199   4.732   6.124  0.2582  0.5233 -0.0973
   91MOL   C35545535   1.309   4.663   6.179  0.3545  0.0768  0.2320
   91MOL   C35645536   1.442   4.743   6.176  0.4166 -0.1542  1.0945
   91MOL   C35745537   1.569   4.671   6.226  0.4261 -0.2102 -0.0059
   91MOL   C35845538   1.692   4.752   6.206 -0.3153  0.2970  0.3996
   91MOL   C35945539   1.820   4.683   6.245 -0.0782  0.2307  0.0142
   91MOL   C36045540   1.953   4.754   6.213  0.1953 -0.0037 -0.8369
   91MOL   H36145541   0.951   4.683   6.260 -1.5438 -2.4613  0.4433
   91MOL   H36245542   1.089   4.591   6.313  0.4995  0.3924 -0.4759
   91MOL   H36345543   1.111   4.569   6.031 -1.2252  0.1480 -0.8774
   91MOL   H36445544   1.308   4.565   6.131  1.3368  1.1264 -1.9850
   91MOL   H36545545   1.292   4.651   6.286 -0.3630 -2.6078 -0.1375
   91MOL   H36645546   1.431   4.838   6.228 -0.6064  0.0075  0.5944
   91MOL   H36745547   1.449   4.779   6.073 -0.2951 -2.1228  0.3406
   91MOL   H36845548   1.557   4.661   6.334 -0.0152  0.2051 -0.0187
   91MOL   H36945549   1.574   4.566   6.197  0.3795 -0.6436  1.4827
   91MOL   H37045550   1.698   4.781   6.101 -1.4834 -1.0119 -0.0339
   91MOL   H37145551   1.695   4.844   6.266 -1.2791  0.8687 -0.4034
   91MOL   H37245552   1.826   4.667   6.353  1.2456 -0.2539 -0.1220
   91MOL   H37345553   1.820   4.579   6.211 -0.1506  1.2631 -3.3452
   91MOL   H37445554   1.927   4.855   6.245 -0.3254 -0.8426  1.5537
   91MOL   H37545555   2.037   4.704   6.262 -1.4485 -2.2277 -0.2131
   91MOL   H37645556   1.969   4.735   6.107  1.3624  1.5425 -0.9568
   91MOL   C37745557   0.986   4.739   6.016  0.1420 -0.2854  0.0769
   91MOL   C37845558   1.029   4.794   5.877  0.4869 -0.7321  0.3464
   91MOL   O37945559   0.976   4.922   5.860  0.6097 -0.0558  0.0597
   91MOL   C38045560   1.055   5.032   5.894 -0.1839 -0.1859  0.7034
   91MOL   C38145561   1.010   5.108   6.022 -1.1632 -1.4693 -0.3753
   91MOL   C38245562   1.089   5.238   6.029 -0.5188  0.1331  0.1779
   91MOL   C38345563   1.054   5.335   6.142  0.0260 -0.8894 -0.4174
   91MOL   C38445564   1.135   5.470   6.156 -0.1257  0.3458  0.0539
   91MOL   C38545565   1.094   5.567   6.263  0.0471  0.0397 -0.3681
   91MOL   H38645566   0.892   4.684   6.007  0.6668 -0.9210 -1.7140
   91MOL   H38745567   0.969   4.825   6.081  0.4650 -0.8667  0.9411
   91MOL   H38845568   1.137   4.789   5.891  0.3663 -1.3895  1.0369
   91MOL   H38945569   1.063   5.087   5.800  1.1383  1.5158  1.7735
   91MOL   H39045570   1.159   5.002   5.908 -0.1979 -0.6560 -0.1644
   91MOL   H39145571   1.031   5.037   6.102 -0.9364 -3.2423 -1.9869
   91MOL   H39245572   0.903   5.131   6.014 -0.5797  1.4577 -0.4049
   91MOL   H39345573   1.194   5.214   6.051 -0.1551 -0.7082 -2.3471
   91MOL   H39445574   1.075   5.292   5.936  0.6704  0.4599  0.1739
   91MOL   H39545575   0.947   5.351   6.129 -0.5471 -1.0137  3.5494
   91MOL   H39645576   1.051   5.290   6.241 -0.8646  0.0947 -0.0000
   91MOL   H39745577   1.240   5.444   6.166 -0.2915 -0.0270  0.8090
   91MOL   H39845578   1.120   5.528   6.065  0.4947 -0.0726 -0.3182
   91MOL   H39945579   1.095   5.529   6.365 -1.3843 -0.2478 -0.4425
   91MOL   H40045580   1.163   5.651   6.252  1.9768 -1.6616 -1.5174
   91MOL   H40145581   0.990   5.590   6.239  0.0161 -0.2930 -0.5491
   91MOL   C40245582   0.968   4.712   5.758 -0.1392 -0.0603 -0.2834
   91MOL   C40345583   1.026   4.738   5.620  0.2816 -0.3314  0.4405
   91MOL   O40445584   0.954   4.670   5.515 -0.5778  0.4195 -0.1628
   91MOL   C40545585   0.882   4.754   5.434  0.0228  0.5441  0.0130
   91MOL   C40645586   0.760   4.805   5.504 -0.3045 -0.0714  0.3465
   91MOL   C40745587   0.671   4.696   5.569  0.5748  0.4877 -0.8535
   91MOL   C40845588   0.537   4.762   5.630  0.3260  0.4741 -0.5241
   91MOL   C40945589   0.462   4.649   5.702 -0.5055  0.4186 -0.6179
   91MOL   C41045590   0.313   4.678   5.720  0.2119 -0.1780 -0.0237
   91MOL   H41145591   0.859   4.709   5.759 -0.1465 -0.3394 -1.2894
   91MOL   H41245592   1.003   4.610   5.772 -0.8791 -0.4061 -0.9543
   91MOL   H41345593   1.018   4.845   5.600  0.6495 -0.3168  0.3640
   91MOL   H41445594   0.855   4.692   5.348 -1.0766  1.8452 -0.5979
   91MOL   H41545595   0.951   4.829   5.394  0.4354 -0.3931 -1.0737
   91MOL   H41645596   0.691   4.862   5.441  0.3239  1.2841  0.8668
   91MOL   H41745597   0.786   4.871   5.587 -0.8616  1.5104 -0.7041
   91MOL   H41845598   0.647   4.622   5.494 -0.1781 -1.1069  0.9223
   91MOL   H41945599   0.723   4.627   5.635  0.6510 -1.3959 -2.8234
   91MOL   H42045600   0.562   4.842   5.700  1.4879  0.0562 -0.4492
   91MOL   H42145601   0.481   4.811   5.551 -1.5695 -0.2575  0.3387
   91MOL   H42245602   0.472   4.554   5.651  0.9896  0.6263 -0.7393
   91MOL   H42345603   0.506   4.634   5.801  0.8404 -2.6566 -1.6286
   91MOL   H42445604   0.255   4.596   5.764  2.5195 -3.2984 -2.5843
   91MOL   H42545605   0.308   4.777   5.764  1.0053  0.2683 -0.9438
   91MOL   H42645606   0.289   4.681   5.614 -4.4595 -1.3915  0.8806
   91MOL   C42745607   1.179   4.711   5.604  0.1407 -0.4545 -0.3620
   91MOL   C42845608   1.264   4.836   5.626 -0.1795 -0.2687 -0.3569
   91MOL   O42945609   1.393   4.797   5.678  0.3639  0.4337  0.5036
   91MOL   C43045610   1.409   4.753   5.811 -0.7628 -0.1951 -0.0422
   91MOL   C43145611   1.554   4.694   5.841 -1.1298 -0.5388 -0.8379
   91MOL   C43245612   1.655   4.804   5.828 -0.0823  0.2423 -0.3587
   91MOL   C43345613   1.798   4.759   5.811  0.3122  0.1074 -0.2628
   91MOL   C43445614   1.898   4.876   5.827 -0.0039  0.2986 -0.3349
   91MOL   C43545615   2.041   4.819   5.815  0.3825  0.5225  0.6175
   91MOL   H43645616   1.204   4.632   5.675 -1.8773 -0.6179  0.1959
   91MOL   H43745617   1.195   4.679   5.501  0.9041 -1.0793 -0.0451
   91MOL   H43845618   1.226   4.907   5.699  1.1935  0.1913 -0.0893
   91MOL   H43945619   1.335   4.673   5.826  1.1119 -1.8851  0.4268
   91MOL   H44045620   1.382   4.840   5.871  1.8700  1.0598 -0.6227
   91MOL   H44145621   1.573   4.623   5.761 -0.6299 -0.9301 -0.3701
   91MOL   H44245622   1.559   4.634   5.932  0.4615 -0.5952 -0.9463
   91MOL   H44345623   1.630   4.857   5.736 -1.0084  2.1882  0.9786
   91MOL   H44445624   1.653   4.880   5.906  0.8999  1.6227 -1.6422
   91MOL   H44545625   1.816   4.685   5.889 -0.5606  1.4589  1.2474
   91MOL   H44645626   1.813   4.699   5.721  0.9189  0.2785 -0.2780
   91MOL   H44745627   1.873   4.948   5.749  2.4098  0.6855 -0.7910
   91MOL   H44845628   1.873   4.912   5.927  1.6200 -0.2877  0.3083
   91MOL   H44945629   2.119   4.888   5.850 -0.6261  2.7835 -1.4871
   91MOL   H45045630   2.040   4.723   5.866 -1.0923  0.0990 -0.1798
   91MOL   H45145631   2.052   4.786   5.712 -0.2161 -0.2603  0.8011
   91MOL   C45245632   1.293   4.918   5.492  0.1213  0.5097 -0.0290
   91MOL   C45345633   1.386   5.042   5.516 -0.0474 -0.6549  0.0779
   91MOL   O45445634   1.300   5.145   5.574 -0.1299  0.2657  0.5456
   91MOL   C45545635   1.362   5.235   5.667 -0.6835  0.4908  0.5437
   91MOL   C45645636   1.287   5.373   5.677 -0.0924 -0.3518 -0.1510
   91MOL   C45745637   1.295   5.456   5.547 -0.3729  0.2958  0.0047
   91MOL   C45845638   1.254   5.601   5.587  0.2097 -0.3927 -0.9172
   91MOL   C45945639   1.268   5.696   5.472  0.4801 -0.4081  0.2581
   91MOL   C46045640   1.281   5.842   5.517  0.2934 -0.5073 -0.0701
   91MOL   H46145641   1.338   4.848   5.423 -1.4318  0.0470 -0.6046
   91MOL   H46245642   1.195   4.938   5.447 -0.4593  0.7963  1.3204
   91MOL   H46345643   1.472   5.016   5.577 -0.7059 -3.5887 -0.1730
   91MOL   H46445644   1.466   5.251   5.639 -1.0764  0.7395 -0.8254
   91MOL   H46545645   1.357   5.184   5.762  0.2089  2.2155  1.5475
   91MOL   H46645646   1.335   5.425   5.759  1.1686 -2.7401  0.6765
   91MOL   H46745647   1.186   5.350   5.712  0.0165 -0.6853 -0.0562
   91MOL   H46845648   1.394   5.453   5.502 -0.0544  0.6860  0.6744
   91MOL   H46945649   1.225   5.422   5.471  1.5489  0.1641 -1.7579
   91MOL   H47045650   1.152   5.606   5.626 -0.0163  1.8678 -1.7389
   91MOL   H47145651   1.316   5.637   5.669 -0.6067  0.9974 -0.8842
   91MOL   H47245652   1.352   5.678   5.405 -0.3866  0.4355 -1.0806
   91MOL   H47345653   1.178   5.681   5.411  0.3996 -1.5993  0.6558
   91MOL   H47445654   1.182   5.885   5.536  1.4232  0.8457  3.0314
   91MOL   H47545655   1.344   5.855   5.605  0.4577 -0.8086 -0.1459
   91MOL   H47645656   1.310   5.914   5.440 -2.1318  1.2674  0.6092
   91MOL   C47745657   1.437   5.098   5.379 -0.6844 -0.0533  0.3820
   91MOL   C47845658   1.585   5.127   5.368 -0.4275  0.1416  0.1382
   91MOL   O47945659   1.638   5.175   5.491 -0.3990 -0.2938 -0.3612
   91MOL   C48045660   1.784   5.198   5.493  0.5693  0.4633 -0.0717
   91MOL   C48145661   1.818   5.205   5.643 -0.2686  0.2990 -0.0116
   91MOL   C48245662   1.960   5.221   5.688 -0.0342 -0.2578 -0.1828
   91MOL   C48345663   1.988   5.257   5.837  0.5011 -0.4444  0.3554
   91MOL   C48445664   2.129   5.213   5.882 -0.6560  0.5387  0.9132
   91MOL   C48545665   2.131   5.212   6.039  0.2228  0.4995 -0.2357
   91MOL   H48645666   1.415   5.030   5.296  0.0816 -0.2834  0.3683
   91MOL   H48745667   1.374   5.185   5.362  0.4862  1.3179  2.7630
   91MOL   H48845668   1.638   5.033   5.352  0.5733  0.5498  0.9931
   91MOL   H48945669   1.802   5.289   5.435 -0.2784  0.2740 -0.6333
   91MOL   H49045670   1.832   5.113   5.445  2.3893  0.6231  1.4043
   91MOL   H49145671   1.772   5.119   5.692  1.1084  0.7411  2.1145
   91MOL   H49245672   1.757   5.285   5.685 -0.4217  0.1853 -0.0179
   91MOL   H49345673   2.007   5.123   5.674  0.5252  0.0561 -0.5146
   91MOL   H49445674   2.015   5.281   5.616 -1.4381 -1.1811 -2.0882
   91MOL   H49545675   1.971   5.363   5.853  2.0147  0.0496 -1.0398
   91MOL   H49645676   1.918   5.209   5.905 -1.9691 -0.4272 -2.0728
   91MOL   H49745677   2.164   5.117   5.843 -0.8040 -0.0194  2.1240
   91MOL   H49845678   2.198   5.290   5.848  1.1226 -1.6275 -0.5550
   91MOL   H49945679   2.111   5.314   6.072  1.4982  0.5570  0.4053
   91MOL   H50045680   2.049   5.149   6.074  0.0189 -0.3016 -2.1107
   91MOL   H50145681   2.226   5.187   6.087  0.2589  2.8105  0.9858
   91MOL   H50245682   1.610   5.197   5.288  0.0984 -0.1374  0.0522
   92MOL     C145683   6.538   3.845   7.175 -0.4479 -0.4688 -0.5185
   92MOL     C245684   6.623   3.790   7.294  0.4110  0.2841  0.3185
   92MOL     O345685   6.569   3.662   7.328  0.1489 -0.2362  0.5901
   92MOL     C445686   6.645   3.547   7.300 -0.1434 -0.4288 -0.4958
   92MOL     C545687   6.633   3.520   7.147 -0.4084  0.7944  0.0905
   92MOL     C645688   6.492   3.486   7.100 -0.0730  0.2486  0.0910
   92MOL     C745689   6.492   3.434   6.951  0.1177  0.4733 -0.6354
   92MOL     C845690   6.356   3.383   6.909  0.1073 -0.3466  0.3490
   92MOL     C945691   6.327   3.376   6.762  0.1721 -0.4096  0.3488
   92MOL    H1045692   6.434   3.820   7.196 -0.8496  0.9562 -0.7227
   92MOL    H1145693   6.549   3.953   7.168  1.9571 -0.6014  0.5952
   92MOL    H1245694   6.725   3.775   7.257  0.6218 -0.3170  1.1213
   92MOL    H1345695   6.611   3.455   7.350 -0.6232 -1.5173 -2.7573
   92MOL    H1445696   6.746   3.567   7.335 -0.5778  1.3984 -0.2363
   92MOL    H1545697   6.706   3.442   7.127 -1.4789 -0.3781  0.6625
   92MOL    H1645698   6.671   3.608   7.096 -1.5277  1.7950  0.9519
   92MOL    H1745699   6.445   3.402   7.152 -0.6988 -2.3451 -4.3439
   92MOL    H1845700   6.421   3.568   7.105  0.2317  0.5119  0.0874
   92MOL    H1945701   6.516   3.520   6.889 -1.1669  0.4749 -1.1596
   92MOL    H2045702   6.568   3.360   6.927  1.8614  2.1275 -0.3459
   92MOL    H2145703   6.278   3.444   6.954 -0.0008  0.0093 -0.3236
   92MOL    H2245704   6.337   3.289   6.961 -0.0974  0.6780  2.1896
   92MOL    H2345705   6.220   3.364   6.745 -0.0055  0.0156  1.1253
   92MOL    H2445706   6.365   3.467   6.715  2.3898 -1.2687  0.4147
   92MOL    H2545707   6.372   3.289   6.716  1.7342  0.1205  0.8512
   92MOL    H2645708   6.569   3.793   7.084  1.6749 -0.1385 -0.0101
   92MOL    C2745709   6.637   3.882   7.421 -0.1094  0.2884 -0.0305
   92MOL    C2845710   6.754   3.839   7.522  0.4612  0.0711  0.0702
   92MOL    O2945711   6.869   3.918   7.514 -0.2371 -0.1947  0.2117
   92MOL    C3045712   6.992   3.853   7.541  0.1340  0.0916 -0.5801
   92MOL    C3145713   7.075   3.932   7.637  0.0818  0.3420  0.4074
   92MOL    C3245714   7.214   3.871   7.655  0.0570 -0.4339  0.4498
   92MOL    C3345715   7.286   3.937   0.001 -0.2302 -0.1293 -0.1774
   92MOL    C3445716   7.426   3.875   0.013  0.4737  0.4688 -1.0827
   92MOL    C3545717   7.540   3.945   7.709 -0.3168  0.0399  0.7034
   92MOL    H3645718   6.654   3.985   7.388 -1.3620  0.8146  0.9118
   92MOL    H3745719   6.544   3.885   7.478 -0.2975 -1.2783 -0.2396
   92MOL    H3845720   6.782   3.734   7.512 -1.6507 -0.6633  1.4887
   92MOL    H3945721   7.048   3.837   7.449  0.6631 -0.5637 -0.1542
   92MOL    H4045722   6.973   3.752   7.579 -1.6968  0.2241 -1.0824
   92MOL    H4145723   7.018   3.938   7.729 -2.5969  0.7279 -1.2471
   92MOL    H4245724   7.089   4.030   7.591 -0.7473 -0.5086 -1.7447
   92MOL    H4345725   7.215   3.763   7.668 -0.8893 -0.7425 -1.9395
   92MOL    H4445726   7.278   3.891   7.569  1.2992 -1.6633  1.0576
   92MOL    H4545727   7.308   4.043   7.767  0.4066 -0.3271 -0.7835
   92MOL    H4645728   7.237   3.910   0.095  1.7107 -0.3009  0.7948
   92MOL    H4745729   7.450   3.889   0.119  2.9380 -4.3004 -0.8894
   92MOL    H4845730   7.427   3.769   7.767 -2.2512  0.4233 -1.2043
   92MOL    H4945731   7.517   3.934   7.603 -0.8715  1.1690  0.7081
   92MOL    H5045732   7.554   4.052   7.723  1.2536 -0.1963  0.9759
   92MOL    H5145733   7.641   3.904   7.715 -1.0133 -1.6831  1.0099
   92MOL    C5245734   6.715   3.858   7.671 -0.6100  0.2122  0.5852
   92MOL    C5345735   6.614   3.763   7.729  0.2277  0.1769 -0.0465
   92MOL    O5445736   6.664   3.632   7.724 -0.3334  0.1834  0.0378
   92MOL    C5545737   6.574   3.524   7.689  0.4626 -0.4819  0.0471
   92MOL    C5645738   6.645   3.389   7.720 -0.4804 -0.0179 -0.5539
   92MOL    C5745739   6.676   3.367   0.092 -0.1006  0.6617  0.2145
   92MOL    C5845740   6.739   3.229   0.110  0.3149  0.4789  0.1333
   92MOL    C5945741   6.638   3.114   0.109 -0.4370  0.2584 -0.0757
   92MOL    C6045742   6.714   2.984   0.125 -0.0620  0.3379  0.1332
   92MOL    H6145743   6.685   3.962   7.690  0.1614  0.5479 -0.0091
   92MOL    H6245744   6.801   3.845   7.736 -0.1888 -1.8444 -0.3720
   92MOL    H6345745   6.526   3.768   7.665  1.4483 -0.0779 -1.7631
   92MOL    H6445746   6.533   3.532   7.589 -1.7539  0.9074  1.0323
   92MOL    H6545747   6.486   3.529   7.753 -0.9016  0.2286 -1.8617
   92MOL    H6645748   6.733   3.376   7.657 -0.8163  0.5603 -1.1589
   92MOL    H6745749   6.574   3.311   7.693 -2.8465  2.0750 -0.6737
   92MOL    H6845750   6.746   3.443   0.129  0.9154  0.1543 -0.6113
   92MOL    H6945751   6.590   3.386   0.156  0.1234 -0.3932  0.8397
   92MOL    H7045752   6.816   3.216   0.034  1.5827 -1.3399  1.7065
   92MOL    H7145753   6.796   3.232   0.203 -0.4061  1.5044  0.5563
   92MOL    H7245754   6.554   3.114   0.179 -0.6007  1.8334 -0.2689
   92MOL    H7345755   6.585   3.108   0.014  0.3084 -0.5349 -0.4525
   92MOL    H7445756   6.749   2.982   0.228  0.2246 -2.8539  0.0191
   92MOL    H7545757   6.657   2.892   0.108 -2.4099  2.1767 -2.3621
   92MOL    H7645758   6.804   2.981   0.063  0.6257 -0.2612  1.1426
   92MOL    C7745759   6.578   3.795   0.101  0.4226  0.6130 -0.1187
   92MOL    C7845760   6.444   3.871   0.103 -0.0536  0.1615 -0.1211
   92MOL    O7945761   6.438   3.940   0.226 -0.1173 -0.1144  0.0596
   92MOL    C8045762   6.444   4.083   0.220 -0.5804 -0.2504 -0.0589
   92MOL    C8145763   6.459   4.129   0.360  0.0058  0.0083  1.4710
   92MOL    C8245764   6.343   4.094   0.446  0.5285  0.3810  0.8766
   92MOL    C8345765   6.338   4.189   0.566 -0.2124  0.2513  0.2140
   92MOL    C8445766   6.257   4.136   0.685  0.5743 -0.0100  0.8832
   92MOL    C8545767   6.217   4.255   0.789 -0.0949  0.2183 -0.0283
   92MOL    H8645768   6.653   3.856   0.151  1.7195 -0.2624 -0.9659
   92MOL    H8745769   6.574   3.694   0.143 -0.6705  0.2461 -1.0532
   92MOL    H8845770   6.443   3.943   0.022  0.2119  0.9357  0.5585
   92MOL    H8945771   6.357   4.129   0.173 -0.2282  0.5731  0.0973
   92MOL    H9045772   6.535   4.111   0.167 -0.7440  0.3535 -0.0236
   92MOL    H9145773   6.469   4.238   0.367 -0.8405  0.1359  0.8622
   92MOL    H9245774   6.546   4.093   0.413 -0.7717 -0.6182  2.3348
   92MOL    H9345775   6.244   4.103   0.401 -0.0240 -1.1968  1.7027
   92MOL    H9445776   6.358   3.988   0.469  1.6656  0.1509 -0.8623
   92MOL    H9545777   6.441   4.201   0.599 -0.8618  0.5057  2.2683
   92MOL    H9645778   6.302   4.286   0.533 -2.5897 -0.8290 -0.4446
   92MOL    H9745779   6.166   4.087   0.652  0.7631  1.4123 -1.9783
   92MOL    H9845780   6.312   4.053   0.727  2.4758  0.4965 -0.5183
   92MOL    H9945781   6.158   4.214   0.872 -0.8857 -0.0637 -0.7190
   92MOL   H10045782   6.309   4.285   0.839 -0.3877 -0.8931  1.2272
   92MOL   H10145783   6.170   4.331   0.727 -0.8696  0.9689  1.4451
   92MOL   C10245784   6.319   3.779   0.090 -0.1325  0.1769  0.7316
   92MOL   C10345785   6.191   3.864   0.083 -0.0034 -0.6800  0.4832
   92MOL   O10445786   6.201   3.900   7.729  0.0112  0.2346  0.2628
   92MOL   C10545787   6.148   4.025   7.692 -0.3805  0.0433 -0.5078
   92MOL   C10645788   6.158   4.032   7.541 -0.2435 -0.4364  0.4013
   92MOL   C10745789   6.075   3.924   7.468  0.2211  0.0416 -0.5712
   92MOL   C10845790   6.071   3.939   7.317 -0.0803  0.2670  0.2904
   92MOL   C10945791   5.960   3.848   7.253 -0.2066 -0.5017  0.7156
   92MOL   C11045792   5.822   3.926   7.230 -0.4519  0.4064 -0.2659
   92MOL   H11145793   6.318   3.699   0.017 -0.2386  2.0184 -1.3235
   92MOL   H11245794   6.319   3.725   0.185 -2.8098  1.0320  1.2595
   92MOL   H11345795   6.192   3.954   0.143 -0.5292 -1.0493  1.0606
   92MOL   H11445796   6.203   4.104   7.742  2.9427 -2.0099 -0.7492
   92MOL   H11545797   6.044   4.045   7.718 -0.0853  0.4419  0.3810
   92MOL   H11645798   6.261   4.015   7.512 -0.4648  1.6982 -1.7815
   92MOL   H11745799   6.129   4.134   7.514 -2.1781 -0.0051  3.8213
   92MOL   H11845800   6.120   3.829   7.495  0.1939 -0.3030 -1.6973
   92MOL   H11945801   5.972   3.927   7.505  0.8924  0.3882  1.3057
   92MOL   H12045802   6.046   4.042   7.290 -2.5588 -0.7673 -1.5458
   92MOL   H12145803   6.166   3.921   7.268 -0.2584  0.4720 -0.1338
   92MOL   H12245804   5.993   3.802   7.159  1.2353 -2.5294  2.1912
   92MOL   H12345805   5.935   3.772   7.326 -1.6532 -1.5063 -0.7776
   92MOL   H12445806   5.770   3.937   7.326 -0.3570  2.0494 -0.3960
   92MOL   H12545807   5.830   4.020   7.177 -2.6665  0.8952  0.2214
   92MOL   H12645808   5.769   3.855   7.167 -0.7626  0.6601 -0.2894
   92MOL   C12745809   6.055   3.800   0.114  0.3101 -0.3030 -0.0908
   92MOL   C12845810   6.023   3.784   0.263  0.5505 -0.0995  0.1103
   92MOL   O12945811   6.105   3.679   0.323  1.0171 -0.4130 -0.2546
   92MOL   C13045812   6.195   3.721   0.427  0.4240 -0.1491  0.0037
   92MOL   C13145813   6.204   3.596   0.523 -0.1669  0.1232 -1.1528
   92MOL   C13245814   6.286   3.483   0.466  0.0156  0.1793  0.2205
   92MOL   C13345815   6.276   3.358   0.558  0.3358 -0.4365  0.4121
   92MOL   C13445816   6.373   3.246   0.515 -0.7966 -0.7790 -0.7033
   92MOL   C13545817   6.391   3.127   0.607  0.4610  0.1293 -1.0026
   92MOL   H13645818   5.985   3.875   0.076  2.4530  1.4624 -0.6689
   92MOL   H13745819   6.038   3.709   0.057 -0.5028  0.3476 -0.9040
   92MOL   H13845820   6.049   3.875   0.317  1.9544  0.1282 -0.9118
   92MOL   H13945821   6.157   3.807   0.483 -0.6111 -0.6289  0.0459
   92MOL   H14045822   6.296   3.745   0.393  0.0849 -3.0836 -3.2983
   92MOL   H14145823   6.105   3.570   0.559  0.1454 -1.3775 -1.3300
   92MOL   H14245824   6.258   3.632   0.611  1.8514  0.2754 -2.4212
   92MOL   H14345825   6.268   3.464   0.360  0.9674 -1.0143  0.2755
   92MOL   H14445826   6.390   3.515   0.467 -0.4635  1.7784  1.3142
   92MOL   H14545827   6.283   3.402   0.658  2.1337 -0.0004  0.1100
   92MOL   H14645828   6.177   3.313   0.549 -0.0335  0.6757 -1.1663
   92MOL   H14745829   6.337   3.196   0.425 -0.5945 -0.3821 -1.0034
   92MOL   H14845830   6.467   3.294   0.488  0.0167 -0.6067  2.2375
   92MOL   H14945831   6.451   3.151   0.695  2.3594 -0.5843 -2.0772
   92MOL   H15045832   6.298   3.099   0.656  2.4833 -1.2837  2.2164
   92MOL   H15145833   6.433   3.043   0.553 -3.1267  0.0516 -3.8177
   92MOL   C15245834   5.870   3.751   0.275 -0.9112  0.0622  0.0791
   92MOL   C15345835   5.811   3.763   0.420  0.1415 -0.0326 -0.8529
   92MOL   O15445836   5.790   3.906   0.425 -0.5910 -0.6734  0.0022
   92MOL   C15545837   5.816   3.956   0.554 -0.0795 -0.5659  0.3216
   92MOL   C15645838   5.771   4.100   0.567 -0.6578  0.3426  0.0460
   92MOL   C15745839   5.863   4.195   0.493 -0.1370 -0.3349 -0.1172
   92MOL   C15845840   5.866   4.331   0.573  0.8005 -0.4862  0.1648
   92MOL   C15945841   5.964   4.439   0.522 -0.1854 -0.2970 -0.1268
   92MOL   C16045842   5.964   4.561   0.608 -0.0090  0.5353 -0.2335
   92MOL   H16145843   5.800   3.796   0.205 -0.6034  3.1921  1.6847
   92MOL   H16245844   5.856   3.648   0.244  0.6620 -0.9003  2.3420
   92MOL   H16345845   5.888   3.729   0.489  0.4880 -0.0454 -1.2456
   92MOL   H16445846   5.925   3.950   0.565  0.1658  3.2036  0.7550
   92MOL   H16545847   5.766   3.896   0.630 -1.7334 -1.8308 -1.7065
   92MOL   H16645848   5.771   4.121   0.674  2.0848  0.3430  0.0949
   92MOL   H16745849   5.668   4.112   0.534 -0.5587 -0.0040 -0.3934
   92MOL   H16845850   5.966   4.158   0.486 -0.1063 -0.1889 -0.4084
   92MOL   H16945851   5.828   4.212   0.392 -3.3571  1.8598  1.2945
   92MOL   H17045852   5.765   4.372   0.577  0.9113 -0.3521  2.4392
   92MOL   H17145853   5.902   4.308   0.673 -0.8890  0.8877  1.1231
   92MOL   H17245854   6.065   4.397   0.520 -0.2460 -0.4075 -1.3435
   92MOL   H17345855   5.935   4.453   0.418 -1.2723 -2.7944 -0.1822
   92MOL   H17445856   6.027   4.541   0.695  1.9974  1.0246 -1.5429
   92MOL   H17545857   6.010   4.650   0.565  0.1352  1.3538  1.5811
   92MOL   H17645858   5.863   4.594   0.630  0.6235  1.9208  0.6495
   92MOL   C17745859   5.679   3.689   0.453  0.4609 -0.2566  0.3002
   92MOL   C17845860   5.707   3.557   0.541  0.4320  1.2105  0.3216
   92MOL   O17945861   5.584   3.504   0.596 -0.0302  0.0494 -0.6578
   92MOL   C18045862   5.593   3.459   0.730  1.2876  0.7297 -0.0553
   92MOL   C18145863   5.453   3.408   0.764 -0.9855  0.1058 -0.6064
   92MOL   C18245864   5.420   3.281   0.691 -0.9954  0.5981  0.0804
   92MOL   C18345865   5.290   3.210   0.733  0.9519  0.4619  0.9393
   92MOL   C18445866   5.163   3.291   0.717  0.1380 -0.2956 -0.0654
   92MOL   C18545867   5.027   3.206   0.736  0.0694  0.4147 -0.3745
   92MOL   H18645868   5.619   3.762   0.507  2.6113  0.6545  1.5278
   92MOL   H18745869   5.625   3.659   0.363 -0.8829 -1.4172  1.4667
   92MOL   H18845870   5.776   3.590   0.618  2.1381  0.4959 -0.8601
   92MOL   H18945871   5.617   3.545   0.794  0.3833  0.0508  1.2165
   92MOL   H19045872   5.665   3.380   0.752  1.0055  0.2998 -0.6880
   92MOL   H19145873   5.381   3.488   0.748 -0.5328  0.7055  0.2820
   92MOL   H19245874   5.450   3.383   0.871 -0.8602 -0.1762 -0.6682
   92MOL   H19345875   5.415   3.318   0.589  0.2669  0.7739  0.0723
   92MOL   H19445876   5.507   3.215   0.700 -1.3749 -0.1120 -1.2756
   92MOL   H19545877   5.291   3.121   0.671  2.0463  1.6314 -0.7697
   92MOL   H19645878   5.298   3.176   0.836  3.5707 -0.1132  0.5837
   92MOL   H19745879   5.148   3.372   0.789  0.3384 -0.5982  0.3165
   92MOL   H19845880   5.157   3.344   0.622 -0.8577 -0.0321  0.1382
   92MOL   H19945881   5.020   3.133   0.654 -0.9152 -4.2279  3.5989
   92MOL   H20045882   5.022   3.142   0.824 -1.2003  2.7514  1.2763
   92MOL   H20145883   4.940   3.271   0.738 -1.5885 -1.6988 -1.2422
   92MOL   C20245884   5.779   3.450   0.454 -1.0964  0.7795  0.0371
   92MOL   C20345885   5.807   3.323   0.533 -0.4154  0.2766 -0.1842
   92MOL   O20445886   5.921   3.350   0.626  0.3081  0.0918 -0.5040
   92MOL   C20545887   5.934   3.264   0.739 -0.4181  0.4499  0.0010
   92MOL   C20645888   6.006   3.336   0.853  0.7774  0.2679 -0.5404
   92MOL   C20745889   5.924   3.444   0.924 -0.7262  0.2043  0.1521
   92MOL   C20845890   5.994   3.518   1.040  0.2447  0.2485 -0.2499
   92MOL   C20945891   6.119   3.595   0.992  0.1720  0.1670 -0.3116
   92MOL   C21045892   6.083   3.733   0.932  0.6641 -0.3771  0.2028
   92MOL   H21145893   5.714   3.426   0.370 -1.0069  1.9489 -0.3874
   92MOL   H21245894   5.879   3.485   0.429 -0.7446  0.0631  0.4436
   92MOL   H21345895   5.717   3.291   0.586 -0.4810 -0.1859 -0.5805
   92MOL   H21445896   5.995   3.177   0.714 -2.7420 -1.1677 -0.1711
   92MOL   H21545897   5.838   3.221   0.766 -0.3547  0.7707  0.7578
   92MOL   H21645898   6.101   3.384   0.829  1.0970 -1.1750 -2.3023
   92MOL   H21745899   6.036   3.263   0.927 -2.1525 -0.4950 -0.0318
   92MOL   H21845900   5.903   3.516   0.846  0.4662 -0.5001 -0.8399
   92MOL   H21945901   5.829   3.398   0.950 -1.3511 -0.4256 -3.0698
   92MOL   H22045902   5.914   3.573   1.091 -0.8253 -1.4423 -0.0820
   92MOL   H22145903   6.018   3.443   1.115 -0.7878 -0.9884 -1.1376
   92MOL   H22245904   6.182   3.614   1.079  0.5260 -2.8748  0.1479
   92MOL   H22345905   6.185   3.545   0.920 -0.6693  0.4759 -1.3177
   92MOL   H22445906   6.030   3.785   1.012 -0.2662 -0.4274 -0.3826
   92MOL   H22545907   6.173   3.794   0.926 -1.3428  2.5630 -0.9637
   92MOL   H22645908   6.024   3.739   0.841  0.6589  3.7859  0.3708
   92MOL   C22745909   5.852   3.215   0.433 -0.5224 -0.5335 -0.4188
   92MOL   C22845910   5.741   3.131   0.360 -0.0329  0.2573  0.0026
   92MOL   O22945911   5.664   3.211   0.268  0.2723  0.0295 -0.5200
   92MOL   C23045912   5.536   3.166   0.235 -0.0158 -0.7809 -0.4383
   92MOL   C23145913   5.468   3.288   0.170  0.3403  0.0678  0.7053
   92MOL   C23245914   5.443   3.410   0.250 -0.7974 -0.6294  0.7218
   92MOL   C23345915   5.343   3.504   0.182  0.2002 -0.0339 -0.4612
   92MOL   C23445916   5.200   3.477   0.214  0.0671 -0.1371  0.6921
   92MOL   C23545917   5.116   3.598   0.167  0.4192 -0.6111 -0.1744
   92MOL   H23645918   5.936   3.249   0.373 -0.7183 -0.9406 -0.9297
   92MOL   H23745919   5.910   3.149   0.496  0.3285 -1.2008 -1.8786
   92MOL   H23845920   5.675   3.096   0.439 -0.3680  1.5521  0.3123
   92MOL   H23945921   5.477   3.139   0.322 -0.6908 -0.3010 -0.7482
   92MOL   H24045922   5.535   3.075   0.174  2.1954  0.1535 -1.9409
   92MOL   H24145923   5.371   3.253   0.136 -0.4583  2.1239  0.7956
   92MOL   H24245924   5.528   3.315   0.083  0.5320  0.6218  1.0055
   92MOL   H24345925   5.401   3.395   0.350 -0.2982  1.4311  1.2593
   92MOL   H24445926   5.540   3.456   0.270 -0.3913 -1.1681  0.0081
   92MOL   H24545927   5.365   3.605   0.217 -1.0452  0.3561 -0.7870
   92MOL   H24645928   5.353   3.522   0.075  1.7017 -1.6172 -0.6036
   92MOL   H24745929   5.167   3.387   0.162 -3.2311  0.1152  2.2231
   92MOL   H24845930   5.189   3.465   0.321  2.9390 -0.2140  1.0299
   92MOL   H24945931   5.134   3.639   0.067  0.4710  0.5291  0.2959
   92MOL   H25045932   5.011   3.573   0.182  0.1088  0.3071 -0.7856
   92MOL   H25145933   5.140   3.683   0.231  1.0264 -1.8029  1.2045
   92MOL   C25245934   5.800   3.009   0.290  0.7334  0.0299 -0.1576
   92MOL   C25345935   5.830   2.885   0.375 -0.4893  0.2392 -0.2239
   92MOL   O25445936   5.950   2.815   0.330 -0.1294 -0.7027 -0.5075
   92MOL   C25545937   6.069   2.856   0.392 -0.0670  0.3105  0.6112
   92MOL   C25645938   6.193   2.802   0.324 -0.4455 -0.6818  0.3155
   92MOL   C25745939   6.330   2.829   0.403 -0.0967  0.4757 -0.0326
   92MOL   C25845940   6.433   2.721   0.359 -0.1551  0.0508 -0.9019
   92MOL   C25945941   6.568   2.717   0.432  0.1699 -0.1111  0.5828
   92MOL   C26045942   6.560   2.719   0.587 -0.0758  0.3533  0.3152
   92MOL   H26145943   5.748   3.000   0.195 -2.2644  0.4056  1.3883
   92MOL   H26245944   5.898   3.043   0.259  1.7143  0.5907  3.2824
   92MOL   H26345945   5.852   2.910   0.479  4.4844  2.1316 -1.5911
   92MOL   H26445946   6.074   2.823   0.496 -0.0289  0.2647  0.5944
   92MOL   H26545947   6.072   2.963   0.410  1.2044 -0.0362  2.7217
   92MOL   H26645948   6.194   2.855   0.229 -3.4502  1.3267  1.3498
   92MOL   H26745949   6.169   2.696   0.309  0.9930 -0.9145 -0.3997
   92MOL   H26845950   6.354   2.931   0.374  0.3905  0.2409 -0.4684
   92MOL   H26945951   6.316   2.822   0.511  0.1075 -2.4180 -0.1504
   92MOL   H27045952   6.387   2.622   0.355 -2.5054  1.1690 -3.2813
   92MOL   H27145953   6.441   2.736   0.251 -0.2127  0.5969 -0.8332
   92MOL   H27245954   6.626   2.633   0.392 -1.0288 -0.2013 -1.0139
   92MOL   H27345955   6.615   2.812   0.408 -1.4953  0.2204 -1.4649
   92MOL   H27445956   6.561   2.821   0.625  1.1323  0.7977 -0.8695
   92MOL   H27545957   6.480   2.663   0.635  2.0737 -2.8532  0.3288
   92MOL   H27645958   6.656   2.687   0.629 -0.3834  0.9275  1.4678
   92MOL   C27745959   5.710   2.774   0.363 -0.0584 -0.0715  0.2444
   92MOL   C27845960   5.700   2.677   0.489  0.6275 -0.6249  0.4254
   92MOL   O27945961   5.610   2.736   0.576  0.5045  0.0372 -0.4995
   92MOL   C28045962   5.663   2.796   0.694  0.4345  0.6145  0.5299
   92MOL   C28145963   5.540   2.857   0.764 -0.2646 -0.3096  0.8382
   92MOL   C28245964   5.436   2.749   0.804  0.2764  0.8567  0.3078
   92MOL   C28345965   5.324   2.816   0.893 -0.7671  0.5153 -0.1527
   92MOL   C28445966   5.201   2.722   0.904  0.1177  0.3269 -0.1100
   92MOL   C28545967   5.085   2.812   0.942 -0.6661 -0.0664 -0.2058
   92MOL   H28645968   5.616   2.826   0.342  0.3150  0.2759 -0.6005
   92MOL   H28745969   5.739   2.724   0.270 -0.0748 -1.8117  1.1439
   92MOL   H28845970   5.801   2.667   0.528 -0.0037  0.8302  2.4549
   92MOL   H28945971   5.738   2.873   0.676 -0.1040  1.0632  0.1921
   92MOL   H29045972   5.710   2.727   0.764  0.9196 -0.3911 -0.7741
   92MOL   H29145973   5.496   2.935   0.703 -0.2517 -2.1803 -1.6407
   92MOL   H29245974   5.581   2.908   0.851 -0.5646 -2.1199  2.0725
   92MOL   H29345975   5.403   2.711   0.708 -0.3282  0.4206  0.6859
   92MOL   H29445976   5.481   2.662   0.851 -0.4275 -0.6805 -1.7893
   92MOL   H29545977   5.364   2.840   0.991 -0.5893 -0.7268  0.0893
   92MOL   H29645978   5.293   2.911   0.848 -1.7762  0.5202  0.5544
   92MOL   H29745979   5.197   2.672   0.807  0.9698  1.5207 -0.7729
   92MOL   H29845980   5.227   2.675   0.998 -0.2635  3.3031  1.5374
   92MOL   H29945981   5.092   2.854   1.042  2.7577  0.6248 -0.6575
   92MOL   H30045982   5.059   2.890   0.870  0.2323  0.2502 -0.1923
   92MOL   H30145983   4.990   2.759   0.945 -0.1609 -1.0952 -1.7348
   92MOL   C30245984   5.652   2.545   0.454  0.4073 -0.9337  0.3128
   92MOL   C30345985   5.685   2.436   0.554  0.0893 -0.4470 -0.5729
   92MOL   O30445986   5.826   2.433   0.563 -0.1559  0.1507  0.3067
   92MOL   C30545987   5.872   2.376   0.683  0.0566  0.0027  0.4401
   92MOL   C30645988   6.001   2.445   0.734 -0.3034  1.0307  0.4289
   92MOL   C30745989   5.969   2.590   0.784  0.9289 -0.3191  0.2718
   92MOL   C30845990   6.099   2.672   0.813 -0.1200 -0.0486  0.0670
   92MOL   C30945991   6.053   2.810   0.872 -0.7427  0.1911  0.9817
   92MOL   C31045992   6.028   2.794   1.022 -0.0221 -0.0656  0.6261
   92MOL   H31145993   5.544   2.561   0.445  0.8411  1.2046 -1.6507
   92MOL   H31245994   5.692   2.513   0.358  2.4883 -0.1483  0.9006
   92MOL   H31345995   5.627   2.461   0.644 -1.2783 -3.1266 -0.6741
   92MOL   H31445996   5.904   2.278   0.646  0.2898 -0.3242  1.4900
   92MOL   H31545997   5.796   2.372   0.761  0.1034 -2.0136  0.4181
   92MOL   H31645998   6.082   2.447   0.662 -0.6310  1.4768  0.0692
   92MOL   H31745999   6.030   2.382   0.819 -1.9896 -0.1569  0.1627
   92MOL   H31846000   5.925   2.641   0.698 -1.3172 -1.1506  0.9004
   92MOL   H31946001   5.896   2.599   0.863  0.3771  2.9604 -0.5419
   92MOL   H32046002   6.159   2.623   0.889 -1.8710 -3.0373 -0.3520
   92MOL   H32146003   6.159   2.668   0.722 -0.1235  0.2644  0.0509
   92MOL   H32246004   6.123   2.892   0.856 -2.2519  1.2977 -0.0824
   92MOL   H32346005   5.956   2.837   0.829 -0.5514 -0.8827 -0.1410
   92MOL   H32446006   5.987   2.888   1.059 -0.6758 -0.5406  1.1257
   92MOL   H32546007   5.947   2.724   1.045 -0.6045 -0.2801 -1.9933
   92MOL   H32646008   6.116   2.779   1.085  0.8080 -2.4118 -1.0096
   92MOL   C32746009   5.629   2.299   0.499 -0.3078 -0.4345  0.0046
   92MOL   C32846010   5.479   2.272   0.502 -0.2209  0.2190  0.2815
   92MOL   O32946011   5.452   2.150   0.431 -0.4898  0.0665  0.0034
   92MOL   C33046012   5.406   2.169   0.302 -0.1830  0.1690  1.1046
   92MOL   C33146013   5.374   2.032   0.241  0.2375  0.1970 -0.4005
   92MOL   C33246014   5.251   1.962   0.303  0.6087 -0.7933 -0.4275
   92MOL   C33346015   5.209   1.824   0.246 -0.4012  0.2856  0.1215
   92MOL   C33446016   5.167   1.824   0.094  0.1965 -0.0051 -0.3208
   92MOL   C33546017   5.082   1.711   0.053  0.4729 -0.4263  0.1139
   92MOL   H33646018   5.676   2.220   0.557 -1.3171  0.5173  2.1510
   92MOL   H33746019   5.665   2.269   0.401 -1.0344 -1.2468 -0.0208
   92MOL   H33846020   5.430   2.360   0.462 -1.4011 -1.1840 -1.3993
   92MOL   H33946021   5.490   2.206   0.243 -1.2539 -2.3014 -2.1108
   92MOL   H34046022   5.322   2.238   0.289 -0.0832  0.3380  1.3674
   92MOL   H34146023   5.456   1.961   0.240 -1.8166 -2.3238  1.9400
   92MOL   H34246024   5.352   2.052   0.136 -2.6809 -1.8031 -0.2262
   92MOL   H34346025   5.269   1.940   0.408 -2.3353 -1.1560  0.0416
   92MOL   H34446026   5.164   2.028   0.295  2.9948  2.3670 -1.2841
   92MOL   H34546027   5.298   1.763   0.261 -0.2766  1.0847  2.8440
   92MOL   H34646028   5.124   1.784   0.301  1.2818  1.1014  3.4467
   92MOL   H34746029   5.110   1.914   0.069  1.5684  0.4321 -1.9591
   92MOL   H34846030   5.256   1.828   0.031  0.2226  1.3243 -0.2198
   92MOL   H34946031   5.117   1.611   0.029  0.0335 -1.4119  3.2580
   92MOL   H35046032   5.001   1.704   0.126  0.5846  3.1115  0.6507
   92MOL   H35146033   5.041   1.734   7.732 -0.0027 -0.5135  0.2895
   92MOL   C35246034   5.425   2.258   0.651 -0.2859  0.5838 -0.0439
   92MOL   C35346035   5.277   2.217   0.654 -0.2186  0.4515  0.4913
   92MOL   O35446036   5.190   2.305   0.590 -0.5458 -0.2350 -0.4358
   92MOL   C35546037   5.082   2.263   0.514 -0.0345 -0.3297 -0.1381
   92MOL   C35646038   4.984   2.385   0.480  0.2287  0.4225  0.1863
   92MOL   C35746039   4.950   2.451   0.610  0.5576 -0.1907  0.0943
   92MOL   C35846040   4.876   2.586   0.574 -0.0055 -0.1029 -0.2507
   92MOL   C35946041   4.823   2.676   0.696 -0.4025  0.3971  0.2518
   92MOL   C36046042   4.678   2.627   0.725  1.0330  0.0309  0.6794
   92MOL   H36146043   5.490   2.200   0.716  0.4745 -0.3650 -1.6263
   92MOL   H36246044   5.433   2.356   0.698  2.7094  0.1057  0.5381
   92MOL   H36346045   5.270   2.114   0.620  1.9798  0.3047  0.4199
   92MOL   H36446046   5.023   2.186   0.563 -0.1110 -1.2330 -1.6093
   92MOL   H36546047   5.121   2.208   0.428  0.3227  1.1865 -0.9683
   92MOL   H36646048   4.895   2.358   0.424 -0.2850  0.7028  0.8550
   92MOL   H36746049   5.034   2.455   0.414 -0.2923 -2.1514 -3.0871
   92MOL   H36846050   4.884   2.382   0.663  2.2158 -1.3488  0.6967
   92MOL   H36946051   5.039   2.475   0.668  1.7190  0.0599 -1.7341
   92MOL   H37046052   4.954   2.647   0.529 -1.7988  3.2124  0.9766
   92MOL   H37146053   4.791   2.569   0.509 -0.6804  0.4389  0.4815
   92MOL   H37246054   4.880   2.648   0.785 -0.4250 -0.9281 -0.1494
   92MOL   H37346055   4.825   2.785   0.688 -0.4729  0.5627  2.0876
   92MOL   H37446056   4.689   2.519   0.735 -0.0176 -0.3947 -2.1925
   92MOL   H37546057   4.627   2.668   0.812 -1.2432 -2.1894  0.4397
   92MOL   H37646058   4.614   2.631   0.637 -0.2343  1.7915  1.6498
   92MOL   C37746059   5.212   2.211   0.795  0.2132 -1.0522  0.2099
   92MOL   C37846060   5.259   2.097   0.884 -0.5339  0.6705 -0.2388
   92MOL   O37946061   5.212   1.977   0.818  0.4299  0.6851 -0.1867
   92MOL   C38046062   5.295   1.861   0.841  0.6267 -0.4225  0.0073
   92MOL   C38146063   5.258   1.765   0.729 -0.5179  0.5099 -0.6726
   92MOL   C38246064   5.321   1.629   0.722  0.1052 -0.4861  0.3632
   92MOL   C38346065   5.318   1.564   0.586 -0.7299  0.1503 -0.0323
   92MOL   C38446066   5.188   1.498   0.548  0.1664 -0.0150  0.0012
   92MOL   C38546067   5.198   1.428   0.409  0.2882  0.0028 -0.4588
   92MOL   H38646068   5.222   2.307   0.846 -0.8952 -1.5026  1.2834
   92MOL   H38746069   5.105   2.194   0.786 -0.0350  1.0490 -1.2462
   92MOL   H38846070   5.368   2.105   0.892 -0.5863 -0.1042  1.6815
   92MOL   H38946071   5.261   1.835   0.941 -1.1977  1.2930 -0.1248
   92MOL   H39046072   5.402   1.877   0.852  1.0465 -0.8626 -3.1718
   92MOL   H39146073   5.275   1.816   0.634  2.1500  1.1773  0.1375
   92MOL   H39246074   5.151   1.744   0.725 -0.1482 -1.4537 -1.2018
   92MOL   H39346075   5.425   1.642   0.750  0.4858  1.0245 -1.6477
   92MOL   H39446076   5.280   1.564   0.800  0.8349  1.4680  2.4328
   92MOL   H39546077   5.340   1.637   0.508 -0.9950  1.4012  1.0537
   92MOL   H39646078   5.403   1.496   0.587 -0.8907 -0.0530 -0.1190
   92MOL   H39746079   5.169   1.433   0.634 -0.2672 -0.3950 -0.3763
   92MOL   H39846080   5.102   1.566   0.554 -1.6657 -2.1373 -1.5441
   92MOL   H39946081   5.223   1.500   0.331 -0.1183  1.9304  1.1373
   92MOL   H40046082   5.259   1.338   0.404 -1.1453 -0.8882 -2.8483
   92MOL   H40146083   5.106   1.385   0.369  0.2240  0.0154 -0.3257
   92MOL   C40246084   5.190   2.106   1.022  0.0665  0.1637 -0.1690
   92MOL   C40346085   5.262   2.208   1.115 -0.3653 -0.0236 -0.4666
   92MOL   O40446086   5.400   2.163   1.141  0.1999 -0.2215 -0.1971
   92MOL   C40546087   5.497   2.263   1.154  0.1699  0.0277 -0.0969
   92MOL   C40646088   5.629   2.181   1.149 -0.1097  0.3160 -0.1303
   92MOL   C40746089   5.756   2.269   1.153  0.1292  0.6184 -0.0645
   92MOL   C40846090   5.878   2.183   1.141  0.2879 -0.1203  0.1675
   92MOL   C40946091   6.002   2.246   1.179 -0.4111  0.4596 -0.4225
   92MOL   C41046092   6.132   2.163   1.159  0.0883  0.6202  0.3521
   92MOL   H41146093   5.202   2.011   1.076  0.5696  1.6011  2.3433
   92MOL   H41246094   5.085   2.131   1.011 -0.3956 -1.5963  0.0572
   92MOL   H41346095   5.258   2.305   1.066 -0.7407 -0.6819 -1.7509
   92MOL   H41446096   5.480   2.313   1.250 -0.1744  1.2339 -0.7817
   92MOL   H41546097   5.494   2.336   1.074  1.1628 -1.7916 -1.8393
   92MOL   H41646098   5.628   2.119   1.060  0.2751  0.1232 -0.0009
   92MOL   H41746099   5.625   2.110   1.232 -3.7793  0.8209  0.2064
   92MOL   H41846100   5.757   2.337   1.068 -1.9913  0.2688 -0.4007
   92MOL   H41946101   5.762   2.333   1.241 -1.1389  1.5667 -0.6410
   92MOL   H42046102   5.862   2.093   1.202  1.5634  0.7777  1.8726
   92MOL   H42146103   5.889   2.148   1.039 -0.1691  0.4613 -0.0859
   92MOL   H42246104   6.013   2.342   1.127 -0.5629  1.5470  1.5247
   92MOL   H42346105   5.995   2.270   1.285 -2.0891  0.2535 -0.4755
   92MOL   H42446106   6.164   2.156   1.055 -2.1602  0.4994 -0.3598
   92MOL   H42546107   6.211   2.218   1.211  0.1307 -2.2679  3.5118
   92MOL   H42646108   6.124   2.062   1.198  0.6630  0.2212 -0.5463
   92MOL   C42746109   5.186   2.207   1.256 -0.3084  0.5933 -0.1130
   92MOL   C42846110   5.109   2.337   1.280 -0.5407  0.7832 -0.0531
   92MOL   O42946111   4.995   2.335   1.189 -0.2230 -0.5961  0.5617
   92MOL   C43046112   4.990   2.424   1.074  0.3632  0.4337 -0.1632
   92MOL   C43146113   4.866   2.405   0.993 -0.3271  0.1842  0.0279
   92MOL   C43246114   4.743   2.465   1.068  0.3429  0.0035 -0.0164
   92MOL   C43346115   4.681   2.379   1.177 -0.3372  0.4727 -0.3173
   92MOL   C43446116   4.566   2.448   1.242 -0.4250  0.2366  1.1818
   92MOL   C43546117   4.526   2.381   1.377 -0.0399 -0.6427  0.7178
   92MOL   H43646118   5.131   2.113   1.261  0.6118 -0.0224 -1.4173
   92MOL   H43746119   5.259   2.201   1.337  0.1698  1.5072 -0.4697
   92MOL   H43846120   5.179   2.418   1.258 -0.2134 -0.0257 -2.1713
   92MOL   H43946121   5.079   2.403   1.015  1.2765 -1.0682  1.6797
   92MOL   H44046122   5.001   2.527   1.108 -1.0108 -0.1757  2.2380
   92MOL   H44146123   4.849   2.299   0.974 -1.5632 -0.2217  3.1130
   92MOL   H44246124   4.870   2.447   0.893 -1.4251  0.6557  0.1750
   92MOL   H44346125   4.774   2.555   1.121  0.5112 -0.1090  0.0758
   92MOL   H44446126   4.668   2.484   0.990 -0.2251 -1.1444  0.2497
   92MOL   H44546127   4.646   2.287   1.130  0.7370  0.0239 -0.2670
   92MOL   H44646128   4.749   2.347   1.256  1.5141 -0.4456 -2.2326
   92MOL   H44746129   4.608   2.544   1.270  0.8437 -0.1471  0.6685
   92MOL   H44846130   4.472   2.458   1.188 -0.9336  1.7703  2.3345
   92MOL   H44946131   4.494   2.278   1.365  1.6113 -1.0952  0.0707
   92MOL   H45046132   4.602   2.394   1.453 -0.0240  3.6819  0.1172
   92MOL   H45146133   4.442   2.442   1.411 -0.6970 -0.8290 -0.5359
   92MOL   C45246134   5.057   2.339   1.423  0.1970  0.1649 -0.7302
   92MOL   C45346135   5.009   2.478   1.477  0.4197 -0.5202 -0.2988
   92MOL   O45446136   5.133   2.548   1.474  0.5129  0.1116 -0.5671
   92MOL   C45546137   5.113   2.670   1.408 -0.6666 -0.3168  0.3611
   92MOL   C45646138   5.254   2.735   1.395 -0.0687  0.0649 -0.0420
   92MOL   C45746139   5.343   2.644   1.316 -0.2690 -0.1081  0.0254
   92MOL   C45846140   5.460   2.724   1.273 -0.5608 -0.4455  0.2446
   92MOL   C45946141   5.560   2.633   1.204 -1.0849 -0.1071  0.5027
   92MOL   C46046142   5.684   2.706   1.149 -0.3515 -0.2640  0.3279
   92MOL   H46146143   4.972   2.271   1.433 -0.6073  1.3695  1.0161
   92MOL   H46246144   5.132   2.308   1.496 -1.0459  0.9825  0.9551
   92MOL   H46346145   4.938   2.514   1.403 -0.2072  0.3693  0.7239
   92MOL   H46446146   5.044   2.737   1.459  0.6370  0.0461  1.6839
   92MOL   H46546147   5.078   2.670   1.305 -0.4333  0.6331  0.2705
   92MOL   H46646148   5.303   2.759   1.489 -1.9025  0.1811  0.9058
   92MOL   H46746149   5.235   2.832   1.348  0.9890 -0.0643 -0.7695
   92MOL   H46846150   5.359   2.550   1.368 -1.2684 -0.6725 -0.6662
   92MOL   H46946151   5.291   2.613   1.225  0.4139  2.2322 -1.2155
   92MOL   H47046152   5.431   2.808   1.209  0.9997  2.3785  3.0768
   92MOL   H47146153   5.502   2.787   1.352  1.4453  0.0495 -1.1627
   92MOL   H47246154   5.589   2.543   1.258  2.2885  0.2341 -0.5844
   92MOL   H47346155   5.511   2.581   1.121  0.2515 -1.6484  0.6532
   92MOL   H47446156   5.741   2.746   1.233  0.4725 -1.6451  0.4351
   92MOL   H47546157   5.752   2.642   1.094 -0.4638  1.0710 -1.4056
   92MOL   H47646158   5.658   2.787   1.080  0.5200  0.6718  1.0880
   92MOL   C47746159   4.949   2.476   1.626 -0.2129  0.1075 -0.2111
   92MOL   C47846160   4.863   2.600   1.671  0.4916  0.5871 -0.8058
   92MOL   O47946161   4.735   2.595   1.611 -0.3672  0.4359 -0.1924
   92MOL   C48046162   4.663   2.710   1.644 -0.6935  0.2083 -0.2228
   92MOL   C48146163   4.542   2.703   1.542  0.4479 -0.7070  1.0265
   92MOL   C48246164   4.475   2.837   1.537  0.2390 -0.3618  0.2317
   92MOL   C48346165   4.329   2.831   1.497 -0.1861  0.3403 -0.0969
   92MOL   C48446166   4.250   2.962   1.493  0.2731  0.2663  0.4045
   92MOL   C48546167   4.231   3.022   1.635 -0.0769 -0.0773  1.2403
   92MOL   H48646168   4.881   2.391   1.633  1.0536 -0.7929  1.4401
   92MOL   H48746169   5.027   2.467   1.702  1.4465  3.7399 -1.3729
   92MOL   H48846170   4.836   2.572   1.773  0.1280 -0.2669 -1.1295
   92MOL   H48946171   4.728   2.793   1.618  2.2376 -1.7544  0.6214
   92MOL   H49046172   4.637   2.721   1.749  0.3017 -0.2433  0.0743
   92MOL   H49146173   4.474   2.622   1.568 -0.6765 -0.7174 -1.8339
   92MOL   H49246174   4.566   2.679   1.439  1.2725  2.4934  0.4333
   92MOL   H49346175   4.482   2.888   1.632 -1.3702  1.2714 -0.4908
   92MOL   H49446176   4.523   2.904   1.466  1.6900 -2.3436 -0.7133
   92MOL   H49546177   4.328   2.781   1.400  0.4260 -1.5112  0.8161
   92MOL   H49646178   4.268   2.762   1.555 -2.2250  0.2499 -2.2742
   92MOL   H49746179   4.293   3.026   1.416  1.2795 -1.5904 -0.6082
   92MOL   H49846180   4.158   2.933   1.442  1.2258 -0.9945 -0.6325
   92MOL   H49946181   4.323   3.041   1.691  1.6882 -0.8217 -1.2986
   92MOL   H50046182   4.175   3.114   1.617 -0.5553 -0.4261  0.9125
   92MOL   H50146183   4.172   2.953   1.695 -0.0103 -0.9544  0.3061
   92MOL   H50246184   4.921   2.691   1.657 -1.0353  1.6334 -0.4514
   93MOL     C146185   4.441   0.249   0.588  0.1299  0.2406  0.2376
   93MOL     C246186   4.339   0.126   0.564  0.8241 -0.5092  0.2008
   93MOL     O346187   4.395   0.037   0.468  0.3475 -0.1272  0.2055
   93MOL     C446188   4.505   7.734   0.513 -0.3742  0.1446  0.6884
   93MOL     C546189   4.450   7.592   0.517 -0.4165  0.6266  0.3756
   93MOL     C646190   4.348   7.577   0.631 -0.0552  0.5783 -0.7031
   93MOL     C746191   4.305   7.422   0.638  0.3312 -0.2036 -0.1139
   93MOL     C846192   4.408   7.333   0.703  0.0667  0.8411 -0.2408
   93MOL     C946193   4.344   7.216   0.780  0.6936  0.9042  0.2016
   93MOL    H1046194   4.535   0.205   0.620  0.6875  0.0792 -1.5881
   93MOL    H1146195   4.469   0.306   0.500 -1.1596  2.8363  1.4520
   93MOL    H1246196   4.305   0.077   0.655  0.4022  1.8104  1.3189
   93MOL    H1346197   4.539   7.764   0.612 -0.9052 -1.4481  1.3669
   93MOL    H1446198   4.593   7.736   0.449 -1.0833 -3.9781 -0.5425
   93MOL    H1546199   4.530   7.518   0.528 -1.7198 -0.8126  0.3059
   93MOL    H1646200   4.410   7.563   0.420  2.1812 -2.0056  0.0107
   93MOL    H1746201   4.395   7.604   0.725 -0.0400  1.4368 -0.9566
   93MOL    H1846202   4.257   7.632   0.608  0.0175  1.9231  2.0244
   93MOL    H1946203   4.216   7.426   0.700 -0.5608 -0.8285 -1.3129
   93MOL    H2046204   4.285   7.382   0.538  1.2137 -2.0887  0.4485
   93MOL    H2146205   4.460   7.383   0.785  2.0528 -0.4560 -0.6526
   93MOL    H2246206   4.474   7.305   0.620  1.6726 -1.2026  1.6726
   93MOL    H2346207   4.267   7.160   0.725  0.8866  2.3432 -1.5844
   93MOL    H2446208   4.425   7.145   0.798  2.1919  2.5238 -0.0587
   93MOL    H2546209   4.305   7.247   0.877  0.9002  0.2006  0.5131
   93MOL    H2646210   4.406   0.315   0.667 -1.5042 -0.8716  0.4651
   93MOL    C2746211   4.216   0.193   0.501 -0.6136  0.2245  0.4455
   93MOL    C2846212   4.115   0.255   0.607 -0.4804  0.0859 -0.3669
   93MOL    O2946213   4.166   0.371   0.671  0.9972 -0.4724  0.6807
   93MOL    C3046214   4.187   0.484   0.592 -0.0648  0.3599  0.4167
   93MOL    C3146215   4.220   0.596   0.690  0.1934 -0.6108 -0.3809
   93MOL    C3246216   4.287   0.709   0.612  0.8538  0.0032  0.0462
   93MOL    C3346217   4.311   0.827   0.704 -1.4400 -0.1517  0.9867
   93MOL    C3446218   4.351   0.959   0.632 -0.6596  0.1241 -0.0113
   93MOL    C3546219   4.348   1.080   0.726  0.1181 -0.0399 -0.7111
   93MOL    H3646220   4.242   0.271   0.430  0.3093 -0.8359 -0.4032
   93MOL    H3746221   4.161   0.118   0.443  0.2945 -1.5003  1.7651
   93MOL    H3846222   4.094   0.180   0.683 -2.7783 -0.5994 -1.6340
   93MOL    H3946223   4.092   0.519   0.552  0.5196  3.0934  1.3145
   93MOL    H4046224   4.262   0.464   0.516  0.1988  0.3409  0.6822
   93MOL    H4146225   4.293   0.555   0.759  0.9407 -3.0628 -2.5549
   93MOL    H4246226   4.138   0.639   0.749 -0.6433 -1.7962 -0.6711
   93MOL    H4346227   4.379   0.675   0.565  1.1546  0.7295  0.0946
   93MOL    H4446228   4.233   0.753   0.529  0.1067  0.7607  0.9162
   93MOL    H4546229   4.221   0.856   0.758 -1.1249  1.2793  0.7484
   93MOL    H4646230   4.383   0.792   0.778 -1.6979  0.3755  1.4888
   93MOL    H4746231   4.455   0.945   0.600 -0.1898  3.3576 -0.0726
   93MOL    H4846232   4.303   0.982   0.537  2.6429  0.3377 -1.7364
   93MOL    H4946233   4.433   1.090   0.794 -0.4129  1.1014 -0.2009
   93MOL    H5046234   4.349   1.169   0.662  0.2264  0.0220 -0.6239
   93MOL    H5146235   4.257   1.085   0.786  0.1293 -1.8118 -0.5417
   93MOL    C5246236   3.979   0.276   0.543  0.4364  0.3841 -0.1570
   93MOL    C5346237   3.862   0.325   0.632 -0.0288  0.9677 -0.2336
   93MOL    O5446238   3.767   0.379   0.538 -0.4829 -0.0169 -0.0142
   93MOL    C5546239   3.708   0.506   0.573  0.0500  0.0208 -0.5874
   93MOL    C5646240   3.812   0.618   0.543 -0.2598  0.1118 -0.0561
   93MOL    C5746241   3.750   0.755   0.554  0.5378 -0.5577 -0.0696
   93MOL    C5846242   3.859   0.869   0.577  0.3421  0.0436  0.1392
   93MOL    C5946243   3.802   1.004   0.598  0.0410  0.0840  0.1016
   93MOL    C6046244   3.913   1.103   0.618 -0.2032 -0.2579 -0.5680
   93MOL    H6146245   3.947   0.182   0.498  0.5827 -0.0799  0.6918
   93MOL    H6246246   3.988   0.353   0.466 -1.1886  0.3983 -0.3579
   93MOL    H6346247   3.893   0.404   0.701  1.2239  2.2946 -2.2833
   93MOL    H6446248   3.696   0.508   0.681  1.6964 -0.5086 -0.3705
   93MOL    H6546249   3.613   0.518   0.521  1.0922 -0.3036 -2.6229
   93MOL    H6646250   3.856   0.605   0.444  0.5542  2.0839  0.0383
   93MOL    H6746251   3.904   0.619   0.600 -0.3368  0.1356  0.0676
   93MOL    H6846252   3.686   0.767   0.466  0.7505  2.1532  0.1210
   93MOL    H6946253   3.684   0.759   0.640  0.6937  1.5803 -0.0361
   93MOL    H7046254   3.922   0.850   0.664  0.7786  0.5721 -0.0633
   93MOL    H7146255   3.928   0.863   0.493 -0.5699 -0.4666 -0.5874
   93MOL    H7246256   3.749   1.034   0.507 -1.2809 -0.3294  0.7145
   93MOL    H7346257   3.729   1.003   0.679 -1.8055 -0.9096 -1.5083
   93MOL    H7446258   3.964   1.141   0.530  1.0006  0.0225  0.2273
   93MOL    H7546259   3.875   1.194   0.666 -0.7619 -1.1499  0.7353
   93MOL    H7646260   3.997   1.073   0.681  1.6223  0.5880 -2.5574
   93MOL    C7746261   3.794   0.216   0.726 -0.4964 -1.0182  0.2877
   93MOL    C7846262   3.795   0.266   0.873 -0.5294  0.0709 -0.1711
   93MOL    O7946263   3.923   0.237   0.932  0.5356  0.5144  0.2396
   93MOL    C8046264   3.960   0.347   1.019  0.0188  0.0981  0.7933
   93MOL    C8146265   4.101   0.308   1.078  0.1055 -0.5365 -0.7128
   93MOL    C8246266   4.142   0.394   1.200  0.0991 -0.4300 -0.1224
   93MOL    C8346267   4.161   0.549   1.182 -0.3324  0.3653 -0.1593
   93MOL    C8446268   4.284   0.586   1.098  0.2949  0.7279 -0.3096
   93MOL    C8546269   4.297   0.737   1.083  0.4368 -0.1293  0.2773
   93MOL    H8646270   3.840   0.118   0.718  1.7079  0.0937 -1.1902
   93MOL    H8746271   3.689   0.206   0.695 -0.6075  0.3644  0.1989
   93MOL    H8846272   3.775   0.372   0.888 -2.7450 -0.3038 -0.2093
   93MOL    H8946273   3.891   0.361   1.102  2.7980  2.3002  2.7939
   93MOL    H9046274   3.964   0.444   0.969 -3.6569  0.1691  0.4988
   93MOL    H9146275   4.184   0.321   1.009  0.1956  1.8809 -0.1877
   93MOL    H9246276   4.104   0.202   1.103  0.6311 -0.4906 -0.5870
   93MOL    H9346277   4.063   0.375   1.272  0.1257  0.7820  0.2454
   93MOL    H9446278   4.214   0.332   1.252 -1.1640 -0.9833  0.9875
   93MOL    H9546279   4.066   0.589   1.146 -1.0609  0.6409  1.9995
   93MOL    H9646280   4.177   0.603   1.275  0.9422  1.3633 -0.9409
   93MOL    H9746281   4.372   0.540   1.141  0.0267 -0.8507 -1.4198
   93MOL    H9846282   4.262   0.541   1.001 -2.2580  1.1016  0.0398
   93MOL    H9946283   4.380   0.766   1.018  1.9213 -0.6475  1.9203
   93MOL   H10046284   4.210   0.774   1.028 -0.1369  0.9082  1.8464
   93MOL   H10146285   4.302   0.794   1.176  0.0254 -0.0474  0.2494
   93MOL   C10246286   3.687   0.193   0.956 -0.1197 -0.9905  0.2811
   93MOL   C10346287   3.684   0.042   0.952  0.6135  0.5951 -1.0012
   93MOL   O10446288   3.666   7.762   1.080 -0.5296  0.4031 -0.7252
   93MOL   C10546289   3.781   7.757   1.170 -0.1264 -1.0719 -0.0566
   93MOL   C10646290   3.748   7.737   1.314 -0.6383 -0.4528  0.4527
   93MOL   C10746291   3.690   7.596   1.348  0.1610 -0.2949  0.0637
   93MOL   C10846292   3.654   7.576   1.498 -0.7247 -1.6369 -0.0562
   93MOL   C10946293   3.535   7.645   1.550 -0.4861 -0.8865 -0.0052
   93MOL   C11046294   3.504   7.627   1.700  0.5107  0.5027 -0.0425
   93MOL   H11146295   3.710   0.223   1.058  0.4641 -1.1639  0.2020
   93MOL   H11246296   3.594   0.248   0.943  2.0491  2.5646 -0.7767
   93MOL   H11346297   3.775   7.777   0.910 -0.1893 -1.2081 -0.9529
   93MOL   H11446298   3.833   0.075   1.166  0.1369 -1.1521  1.1356
   93MOL   H11546299   3.850   7.681   1.134  0.1968  0.0885 -1.9514
   93MOL   H11646300   3.682   0.039   1.349  0.4722  0.5117  0.4152
   93MOL   H11746301   3.843   7.734   1.368 -0.0253 -0.3517 -0.6103
   93MOL   H11846302   3.594   7.590   1.296 -0.1175  0.7472  0.4249
   93MOL   H11946303   3.756   7.517   1.314  0.8266  0.7619 -1.1082
   93MOL   H12046304   3.657   7.470   1.525  0.3016 -1.3477  1.0368
   93MOL   H12146305   3.749   7.616   1.535  0.4103 -1.7274 -2.7741
   93MOL   H12246306   3.537   7.747   1.514  2.1381 -1.3305 -1.2270
   93MOL   H12346307   3.443   7.607   1.506 -0.4326  1.2046 -1.9702
   93MOL   H12446308   3.427   7.696   1.735 -3.1249 -2.5294 -1.7280
   93MOL   H12546309   3.480   7.524   1.725  0.9466  0.5787  0.7091
   93MOL   H12646310   3.592   7.649   1.762  0.3540 -0.6208  0.5912
   93MOL   C12746311   3.558   7.762   0.883 -0.1244 -0.5180 -0.0022
   93MOL   C12846312   3.600   7.628   0.807  0.0122  0.4752 -0.0928
   93MOL   O12946313   3.675   7.673   0.697 -0.3466 -0.3890 -0.3001
   93MOL   C13046314   3.780   7.581   0.665 -0.2952  0.1681  0.3489
   93MOL   C13146315   3.813   7.625   0.520 -0.4598 -0.5336  0.9587
   93MOL   C13246316   3.948   7.577   0.467  0.2239  0.2849  0.1289
   93MOL   C13346317   3.998   7.645   0.336  0.3012  0.0267 -0.0105
   93MOL   C13446318   4.153   7.639   0.327  0.6207 -0.5465  0.0645
   93MOL   C13546319   4.214   7.724   0.210 -0.4283 -0.2934 -0.4266
   93MOL   H13646320   3.480   7.749   0.958 -1.5362 -0.3192 -1.4214
   93MOL   H13746321   3.517   0.058   0.814 -0.4250  0.9035  1.6458
   93MOL   H13846322   3.663   7.575   0.878 -0.8854  0.7263  0.9055
   93MOL   H13946323   3.746   7.478   0.677  0.2111 -0.2959 -2.0582
   93MOL   H14046324   3.866   7.607   0.727  1.7793 -2.1592 -1.4896
   93MOL   H14146325   3.818   7.734   0.526 -0.9062 -0.3624 -1.3176
   93MOL   H14246326   3.739   7.591   0.448  0.2779  3.0626 -1.6906
   93MOL   H14346327   4.027   7.580   0.542  2.3544 -2.6824 -1.8290
   93MOL   H14446328   3.942   7.472   0.436 -0.6938  0.8367 -1.6743
   93MOL   H14546329   3.961   7.595   0.246 -0.3057  0.8950 -0.2491
   93MOL   H14646330   3.967   7.749   0.338 -0.7452 -0.2208 -2.1318
   93MOL   H14746331   4.199   7.673   0.419 -1.7934 -0.2932  1.2176
   93MOL   H14846332   4.172   7.532   0.311  0.8981 -0.5530  0.4269
   93MOL   H14946333   4.323   7.720   0.221 -0.4824  3.1373  2.3272
   93MOL   H15046334   4.180   7.685   0.114  0.0396  0.3487 -0.8518
   93MOL   H15146335   4.180   0.050   0.214 -1.2204 -0.5436 -0.6727
   93MOL   C15246336   3.483   7.538   0.758  0.2208 -0.1510 -0.6067
   93MOL   C15346337   3.441   7.431   0.861 -0.2429 -0.6158  0.2743
   93MOL   O15446338   3.379   7.500   0.967  0.0643 -0.3330 -0.2977
   93MOL   C15546339   3.440   7.474   1.093 -0.3983 -0.2446  0.2127
   93MOL   C15646340   3.351   7.516   1.205 -0.3119  0.0627 -0.3898
   93MOL   C15746341   3.322   7.675   1.215  0.7568  0.7065  0.0960
   93MOL   C15846342   3.216   7.712   1.322  0.1450  0.7234  0.1813
   93MOL   C15946343   3.214   0.083   1.339  0.1418 -0.2998 -0.1115
   93MOL   C16046344   3.097   0.129   1.425  0.0836 -0.4387 -0.5559
   93MOL   H16146345   3.399   7.606   0.743 -1.2173 -2.1368 -1.8086
   93MOL   H16246346   3.512   7.491   0.664  2.4724  0.8549 -0.4663
   93MOL   H16346347   3.530   7.378   0.895  0.5212  0.9740  0.7952
   93MOL   H16446348   3.536   7.525   1.090 -0.5267  0.0268  0.6803
   93MOL   H16546349   3.462   7.369   1.109  1.5803  0.2667  0.9275
   93MOL   H16646350   3.398   7.479   1.295 -2.6074  0.3697  0.9900
   93MOL   H16746351   3.251   7.472   1.194 -0.0720 -0.8228  0.9163
   93MOL   H16846352   3.415   7.730   1.229 -0.4663  2.8780 -0.1144
   93MOL   H16946353   3.285   7.706   1.118 -0.5869  0.5218  0.5315
   93MOL   H17046354   3.128   7.662   1.282 -0.7890  1.9601  0.6488
   93MOL   H17146355   3.229   7.656   1.415 -3.6816  0.2323  0.4918
   93MOL   H17246356   3.303   0.122   1.387  1.8381 -1.7811 -1.9979
   93MOL   H17346357   3.210   0.139   1.246  1.2786  1.4677  0.8930
   93MOL   H17446358   3.001   0.080   1.413  0.5397 -1.3428 -0.5204
   93MOL   H17546359   3.132   0.132   1.528 -0.4768  0.5237 -0.3849
   93MOL   H17646360   3.082   0.235   1.405  0.7895 -0.2689 -0.2162
   93MOL   C17746361   3.340   7.332   0.795 -0.1964 -0.0361  0.3581
   93MOL   C17846362   3.323   7.202   0.877 -0.7724  0.5065 -0.4005
   93MOL   O17946363   3.210   7.139   0.820  0.0170  0.3304 -0.5914
   93MOL   C18046364   3.090   7.176   0.877  0.1289 -0.0349  0.2885
   93MOL   C18146365   2.982   7.083   0.832  1.1471 -0.5770  0.1621
   93MOL   C18246366   2.958   6.965   0.931  0.0961 -0.0401  0.0637
   93MOL   C18346367   2.852   6.996   1.044  0.0769  0.3338  0.1649
   93MOL   C18446368   2.785   6.870   1.090 -1.0533 -0.9061  0.1504
   93MOL   C18546369   2.868   6.782   1.178 -0.2242  0.8696 -0.0303
   93MOL   H18646370   3.244   7.382   0.782  0.1299  0.4797 -0.1179
   93MOL   H18746371   3.385   7.296   0.702  0.9222 -1.5075  1.4403
   93MOL   H18846372   3.321   7.231   0.983  2.4132 -5.7311  1.5935
   93MOL   H18946373   3.057   7.274   0.842  2.5384 -0.1730 -2.4781
   93MOL   H19046374   3.091   7.181   0.986 -0.6068  0.9159  0.2624
   93MOL   H19146375   3.016   7.041   0.737 -0.7002 -3.5206  0.7497
   93MOL   H19246376   2.884   7.129   0.816  1.1468 -0.3509  0.8300
   93MOL   H19346377   2.913   6.875   0.890  1.0671 -1.2136  1.5085
   93MOL   H19446378   3.054   6.926   0.966  0.3962  0.2214 -0.4617
   93MOL   H19546379   2.898   7.057   1.122 -2.0980 -0.1270  1.8721
   93MOL   H19646380   2.783   7.060   0.989  1.0837  0.6280 -0.7445
   93MOL   H19746381   2.699   6.897   1.151 -1.2212  0.1585 -0.5514
   93MOL   H19846382   2.753   6.805   1.009  0.6391 -0.2017 -1.1038
   93MOL   H19946383   2.920   6.849   1.246 -0.6691 -0.1331  1.3276
   93MOL   H20046384   2.801   6.727   1.245  1.5469  0.6179  1.5641
   93MOL   H20146385   2.923   6.706   1.123 -1.4625 -0.5554  0.6661
   93MOL   C20246386   3.447   7.102   0.861 -0.1940 -0.1704 -0.6277
   93MOL   C20346387   3.431   6.992   0.970 -0.6207  0.1669 -0.1087
   93MOL   O20446388   3.457   7.040   1.106 -0.0358 -1.3066  0.1404
   93MOL   C20546389   3.591   7.081   1.140  0.2968 -0.4259  0.5010
   93MOL   C20646390   3.601   7.122   1.286 -0.3480  0.0048  0.1688
   93MOL   C20746391   3.740   7.170   1.326  0.3490  0.0060 -0.0830
   93MOL   C20846392   3.756   7.187   1.476  0.1102  0.1676 -0.3827
   93MOL   C20946393   3.890   7.249   1.518  0.8692  0.0043  0.2488
   93MOL   C21046394   3.906   7.247   1.669  0.1436 -0.2663  0.7854
   93MOL   H21146395   3.431   7.045   0.769 -0.8348 -0.7300 -0.1778
   93MOL   H21246396   3.547   7.146   0.860 -0.2488 -0.0349 -1.9985
   93MOL   H21346397   3.325   6.969   0.961 -0.9861  2.1194 -0.8772
   93MOL   H21446398   3.625   7.162   1.074 -0.5588  0.6301  1.3491
   93MOL   H21546399   3.656   6.997   1.114 -1.0185 -1.1753 -0.4340
   93MOL   H21646400   3.550   7.039   1.336  1.3934 -2.0661 -1.3857
   93MOL   H21746401   3.524   7.196   1.311  0.4259  0.9930 -0.3662
   93MOL   H21846402   3.819   7.110   1.281 -0.2433  0.0073 -1.1431
   93MOL   H21946403   3.750   7.268   1.279 -1.2677  0.3590  0.2699
   93MOL   H22046404   3.667   7.235   1.517 -0.4135 -1.6292  0.6447
   93MOL   H22146405   3.752   7.091   1.527  0.4107  0.9418  1.1497
   93MOL   H22246406   3.974   7.205   1.463 -0.1315  0.6533 -1.8398
   93MOL   H22346407   3.899   7.348   1.473 -1.3688  1.2183  2.3785
   93MOL   H22446408   3.813   7.243   1.725 -0.3228  1.3459  0.1527
   93MOL   H22546409   3.961   7.154   1.682  1.7822  0.5398 -0.2153
   93MOL   H22646410   3.967   7.328   1.709  0.9406 -0.2973 -0.3466
   93MOL   C22746411   3.501   6.858   0.947  0.1996 -0.9550  0.2878
   93MOL   C22846412   3.421   6.751   1.026  0.3833  0.5594 -0.4024
   93MOL   O22946413   3.348   6.659   0.944 -0.0557  0.0001  0.2477
   93MOL   C23046414   3.246   6.709   0.866  0.4789 -0.3387 -0.3878
   93MOL   C23146415   3.266   6.672   0.722 -0.3111 -0.6691  0.7949
   93MOL   C23246416   3.124   6.690   0.656 -0.3120  0.5135  0.1102
   93MOL   C23346417   3.132   6.657   0.504 -0.0647  0.3385  0.3534
   93MOL   C23446418   2.990   6.660   0.440 -0.2328  0.3252 -0.0549
   93MOL   C23546419   2.981   6.628   0.284  0.1967  0.1195 -0.3339
   93MOL   H23646420   3.478   6.839   0.842  1.3852 -2.0546  0.2238
   93MOL   H23746421   3.609   6.859   0.957  0.3604  2.7454 -0.8258
   93MOL   H23846422   3.346   6.798   1.089 -0.3369 -0.1890 -0.6958
   93MOL   H23946423   3.226   6.816   0.872 -2.2599 -0.7192 -1.9883
   93MOL   H24046424   3.160   6.662   0.913  1.0981 -2.4353 -1.2781
   93MOL   H24146425   3.301   6.570   0.715  0.1800 -0.5811  1.9394
   93MOL   H24246426   3.333   6.747   0.679 -0.7378 -0.7001  0.0727
   93MOL   H24346427   3.056   6.621   0.705  1.5688 -1.2343  0.3483
   93MOL   H24446428   3.083   6.789   0.678 -1.8325 -0.2581  0.8171
   93MOL   H24546429   3.190   6.731   0.449  2.3060 -1.4360  0.4405
   93MOL   H24646430   3.180   6.562   0.485 -0.7835 -0.1679  1.0197
   93MOL   H24746431   2.918   6.597   0.492 -0.9012 -0.0379 -1.4118
   93MOL   H24846432   2.951   6.760   0.461  0.1497  0.5256 -0.2824
   93MOL   H24946433   3.027   6.708   0.226  0.0671  1.9463  2.0479
   93MOL   H25046434   3.018   6.527   0.264 -1.6742 -0.1928 -2.4024
   93MOL   H25146435   2.878   6.636   0.250  0.0397  0.1136  0.1503
   93MOL   C25246436   3.516   6.670   1.117 -0.4534  0.0607  0.3869
   93MOL   C25346437   3.443   6.603   1.237  0.3955  0.4290 -0.0919
   93MOL   O25446438   3.378   6.699   1.316  0.1518  0.4690 -1.1558
   93MOL   C25546439   3.233   6.687   1.325 -0.5156 -0.0686 -0.1093
   93MOL   C25646440   3.169   6.810   1.392  0.6743  0.7299 -0.6142
   93MOL   C25746441   3.197   6.947   1.320  0.3424  0.3132 -0.0075
   93MOL   C25846442   3.132   7.063   1.396  0.5387  0.3754 -0.6823
   93MOL   C25946443   3.179   7.199   1.339  0.6648 -0.0852 -0.4559
   93MOL   C26046444   3.104   7.313   1.416  0.4722  0.0354  0.5155
   93MOL   H26146445   3.556   6.585   1.062 -0.6440  0.0321  0.2947
   93MOL   H26246446   3.599   6.730   1.153 -0.3053 -0.2231  0.5235
   93MOL   H26346447   3.370   6.532   1.198 -0.2801 -0.0923  2.0759
   93MOL   H26446448   3.207   6.598   1.384  0.8910 -0.5382 -0.1659
   93MOL   H26546449   3.182   6.664   1.232 -0.9136  0.1871  0.0441
   93MOL   H26646450   3.207   6.817   1.494  0.3285  1.6219 -0.5414
   93MOL   H26746451   3.061   6.799   1.400  0.8579  0.5348  2.1939
   93MOL   H26846452   3.306   6.957   1.312  0.3577  0.6824  0.6608
   93MOL   H26946453   3.156   6.945   1.219  1.5311 -0.7482 -0.4891
   93MOL   H27046454   3.024   7.053   1.384  0.2372  1.5811  0.9663
   93MOL   H27146455   3.174   7.060   1.496  0.1229 -0.3219 -0.5274
   93MOL   H27246456   3.285   7.215   1.358  0.6463  0.5928 -0.9118
   93MOL   H27346457   3.153   7.207   1.234 -0.4142 -1.5343 -0.3269
   93MOL   H27446458   3.136   7.302   1.520  0.7725  0.9225  0.5263
   93MOL   H27546459   3.145   7.407   1.377 -0.8617  0.5512  0.3369
   93MOL   H27646460   2.996   7.301   1.418  0.4540  0.2539  1.5319
   93MOL   C27746461   3.533   6.525   1.332 -0.2982 -0.1695  0.2773
   93MOL   C27846462   3.469   6.426   1.422  0.0327 -0.0575 -0.4767
   93MOL   O27946463   3.564   6.328   1.473  0.2992  0.0920 -0.5766
   93MOL   C28046464   3.614   6.238   1.377 -0.9578  0.3557  0.1930
   93MOL   C28146465   3.656   6.113   1.460 -0.6725 -0.3284  0.4278
   93MOL   C28246466   3.717   6.002   1.370 -0.3570  0.4252  0.8653
   93MOL   C28346467   3.747   5.874   1.444 -0.5864 -0.2863  0.0636
   93MOL   C28446468   3.627   5.793   1.475  0.3259 -0.5513 -0.0272
   93MOL   C28546469   3.646   5.660   1.546 -0.3955 -0.5158 -0.0037
   93MOL   H28646470   3.599   6.480   1.258 -0.1205  0.6060 -0.0353
   93MOL   H28746471   3.595   6.592   1.392 -1.0369  0.2797  0.5422
   93MOL   H28846472   3.390   6.384   1.359  0.1407 -1.6784  0.4583
   93MOL   H28946473   3.687   6.276   1.306 -1.2043  1.3086  0.4388
   93MOL   H29046474   3.530   6.203   1.317  0.7246 -1.8467 -0.9368
   93MOL   H29146475   3.567   6.080   1.514 -0.8898 -0.2536  0.1128
   93MOL   H29246476   3.722   6.151   1.538 -2.3079 -0.0553  1.7052
   93MOL   H29346477   3.646   5.980   1.290  2.0838 -1.0738 -0.9527
   93MOL   H29446478   3.805   6.036   1.317 -1.2289 -0.0760 -0.9299
   93MOL   H29546479   3.817   5.815   1.385  2.1350  2.6483  0.1846
   93MOL   H29646480   3.807   5.898   1.533 -0.5286  0.2735 -0.1241
   93MOL   H29746481   3.556   5.853   1.532 -0.9869 -0.5461 -1.6317
   93MOL   H29846482   3.571   5.764   1.386  0.5691  1.8219 -0.9896
   93MOL   H29946483   3.556   5.599   1.556 -0.3739 -0.4057  0.9287
   93MOL   H30046484   3.721   5.613   1.483  2.2739  3.2858  0.1594
   93MOL   H30146485   3.695   5.674   1.643  1.6280 -2.0107 -0.7789
   93MOL   C30246486   3.410   6.487   1.552  0.3006  0.3565  0.1563
   93MOL   C30346487   3.306   6.405   1.635  0.3212  0.2329 -0.0130
   93MOL   O30446488   3.185   6.434   1.567  0.3516  0.6148  0.0244
   93MOL   C30546489   3.104   6.325   1.545  0.5644 -0.2426 -0.0934
   93MOL   C30646490   2.963   6.386   1.521  0.3887 -0.0417  1.0193
   93MOL   C30746491   2.903   6.456   1.649 -0.4352 -0.0515  0.4590
   93MOL   C30846492   2.752   6.468   1.645 -0.1951 -0.5051 -0.3352
   93MOL   C30946493   2.700   6.528   1.515  0.4741  0.1561  0.2195
   93MOL   C31046494   2.558   6.585   1.517  0.1458  0.2899  0.1817
   93MOL   H31146495   3.500   6.502   1.613  0.9836 -1.7326 -0.2951
   93MOL   H31246496   3.367   6.586   1.542  1.6478  0.9145 -0.2798
   93MOL   H31346497   3.333   6.302   1.614  0.2723  0.4826 -1.3370
   93MOL   H31446498   3.091   6.257   1.630  0.9430 -1.3919 -0.9419
   93MOL   H31546499   3.141   6.281   1.453 -1.3943  2.9802 -2.5105
   93MOL   H31646500   2.897   6.312   1.475  0.1485 -0.1614  1.5506
   93MOL   H31746501   2.974   6.459   1.442 -2.4605 -0.6389  0.0001
   93MOL   H31846502   2.919   6.390   1.735 -0.6388 -0.1828  0.3985
   93MOL   H31946503   2.960   6.549   1.650 -0.2188 -0.1348 -1.7361
   93MOL   H32046504   2.714   6.366   1.650 -2.0325  0.1199 -0.9635
   93MOL   H32146505   2.709   6.514   1.734 -1.2865 -0.9046 -0.6457
   93MOL   H32246506   2.766   6.613   1.495 -0.0078  0.4856  0.0180
   93MOL   H32346507   2.710   6.449   1.441  1.3110 -0.9463  1.4744
   93MOL   H32446508   2.537   6.669   1.584  0.7906 -0.0300  0.7902
   93MOL   H32546509   2.533   6.626   1.419 -2.1082 -2.3117 -0.3856
   93MOL   H32646510   2.495   6.499   1.540  0.2263  0.3715  0.7188
   93MOL   C32746511   3.298   6.428   1.787  0.7533  0.0782 -0.2098
   93MOL   C32846512   3.415   6.367   1.858  0.5954 -0.4457  0.6369
   93MOL   O32946513   3.417   6.435   1.986 -0.0730 -0.4757 -0.8134
   93MOL   C33046514   3.510   6.546   1.996 -0.1183 -0.3127  0.3127
   93MOL   C33146515   3.494   6.604   2.135  0.6030 -0.2312  0.3288
   93MOL   C33246516   3.551   6.512   2.243 -0.2187 -0.8915 -0.3727
   93MOL   C33346517   3.491   6.544   2.379 -0.1755 -0.7359 -0.4631
   93MOL   C33446518   3.537   6.688   2.430 -0.4098  0.0406 -0.3022
   93MOL   C33546519   3.472   6.730   2.560  0.7883  0.2287  0.3934
   93MOL   H33646520   3.214   6.383   1.840  1.1159 -1.8441 -1.2182
   93MOL   H33746521   3.288   6.535   1.802  1.5966  0.3283 -1.3446
   93MOL   H33846522   3.512   6.363   1.808  0.4866  0.3588  0.3508
   93MOL   H33946523   3.497   6.616   1.914  1.3075  0.6393  0.8852
   93MOL   H34046524   3.611   6.508   1.983 -0.4997 -1.5980  1.0419
   93MOL   H34146525   3.389   6.622   2.155  0.8429  4.3916 -2.0446
   93MOL   H34246526   3.527   6.708   2.128 -1.2698  0.4874  1.7682
   93MOL   H34346527   3.529   6.407   2.223  1.6195 -1.1207 -1.3435
   93MOL   H34446528   3.658   6.534   2.253 -0.5458  1.6899 -2.1003
   93MOL   H34546529   3.382   6.539   2.380 -0.2694  0.8557  2.6810
   93MOL   H34646530   3.534   6.470   2.446 -2.1126 -0.0018  1.6477
   93MOL   H34746531   3.645   6.684   2.443 -0.1990 -0.5451 -2.0414
   93MOL   H34846532   3.511   6.759   2.352 -0.0210  0.6811  0.1522
   93MOL   H34946533   3.504   6.828   2.594 -0.7075  0.5773  0.8200
   93MOL   H35046534   3.364   6.717   2.561  0.3313  3.7345  0.7099
   93MOL   H35146535   3.519   6.667   2.635 -0.3954  1.5371  2.2739
   93MOL   C35246536   3.395   6.217   1.873 -0.5824  0.7598 -0.4032
   93MOL   C35346537   3.516   6.127   1.908 -0.8233 -0.4911 -0.4826
   93MOL   O35446538   3.478   5.990   1.920  0.4933  0.5487 -0.4131
   93MOL   C35546539   3.535   5.891   1.834  0.2790 -0.5341 -0.3660
   93MOL   C35646540   3.501   5.757   1.898  0.5579  0.6308 -0.0223
   93MOL   C35746541   3.357   5.722   1.885  0.5067 -0.3260  0.1451
   93MOL   C35846542   3.330   5.602   1.983  0.3481  0.6779 -0.6364
   93MOL   C35946543   3.205   5.519   1.948  0.1906 -0.2373 -0.7070
   93MOL   C36046544   3.168   5.412   2.052 -0.3930  0.0848  0.1505
   93MOL   H36146545   3.332   6.196   1.959  1.1631 -2.1318  0.2648
   93MOL   H36246546   3.349   6.174   1.784 -0.7840 -3.3584  1.5456
   93MOL   H36346547   3.584   6.138   1.824 -0.3677 -1.1225 -0.2042
   93MOL   H36446548   3.643   5.892   1.818  0.3036  1.9214 -0.1824
   93MOL   H36546549   3.485   5.913   1.740 -1.4061 -0.1443  0.6067
   93MOL   H36646550   3.528   5.758   2.003  1.6785  1.0826 -0.3062
   93MOL   H36746551   3.556   5.677   1.848  1.4316  1.0412  0.2654
   93MOL   H36846552   3.285   5.802   1.903 -0.2741 -0.9604 -0.1053
   93MOL   H36946553   3.326   5.704   1.782 -0.6963  0.9853  0.2561
   93MOL   H37046554   3.423   5.545   1.987  0.1510  0.3576 -0.6535
   93MOL   H37146555   3.318   5.639   2.085  2.0761 -0.5345  0.0248
   93MOL   H37246556   3.119   5.586   1.953 -0.2731 -0.9503  0.8490
   93MOL   H37346557   3.215   5.479   1.847 -2.2127 -2.4191 -0.1222
   93MOL   H37446558   3.076   5.362   2.023  0.1433 -1.2322  0.7088
   93MOL   H37546559   3.229   5.322   2.042 -1.7743 -1.0183  1.4245
   93MOL   H37646560   3.182   5.446   2.154 -2.9689 -0.1798  0.6226
   93MOL   C37746561   3.579   6.163   2.042  0.7779  0.8228  0.0312
   93MOL   C37846562   3.710   6.091   2.082 -0.3101  0.2836  0.0449
   93MOL   O37946563   3.748   6.141   2.212  0.9204  0.0050  0.2159
   93MOL   C38046564   3.787   6.042   2.304  0.1441  0.2072  0.1567
   93MOL   C38146565   3.778   6.100   2.450 -0.5042 -0.1543  0.0250
   93MOL   C38246566   3.877   6.218   2.482  0.0757  0.1332 -0.3427
   93MOL   C38346567   3.839   6.294   2.605  0.2001  0.5748 -0.4929
   93MOL   C38446568   3.924   6.415   2.632 -0.3672 -0.1832 -0.7566
   93MOL   C38546569   3.866   6.498   2.751 -0.4043 -0.0669  0.4502
   93MOL   H38646570   3.600   6.270   2.047  1.1301  0.7008  1.2852
   93MOL   H38746571   3.507   6.159   2.124  2.1069 -0.7510  1.1551
   93MOL   H38846572   3.698   5.983   2.073 -2.1530  0.5909 -1.6907
   93MOL   H38946573   3.893   6.026   2.282  0.4062 -0.0850  1.5763
   93MOL   H39046574   3.728   5.951   2.299  0.2589  0.1329  0.1790
   93MOL   H39146575   3.812   6.014   2.508  1.8278  1.2134  0.7552
   93MOL   H39246576   3.672   6.117   2.470 -0.2378 -0.0693  1.3532
   93MOL   H39346577   3.977   6.175   2.485  0.2475  0.5407 -0.2043
   93MOL   H39446578   3.888   6.283   2.396  0.6061  0.5517  0.0441
   93MOL   H39546579   3.737   6.331   2.604  0.1222  0.3901  0.1946
   93MOL   H39646580   3.850   6.220   2.684  0.9304  1.9683  0.7346
   93MOL   H39746581   4.028   6.384   2.643 -0.5266 -0.6848 -0.7018
   93MOL   H39846582   3.916   6.478   2.543 -0.3335 -0.2959 -0.8401
   93MOL   H39946583   3.862   6.448   2.848 -0.1772  1.3506  1.2079
   93MOL   H40046584   3.932   6.582   2.768 -2.3561  1.2464  1.7935
   93MOL   H40146585   3.768   6.545   2.736 -0.8847 -0.3569  2.5350
   93MOL   C40246586   3.830   6.124   1.992 -0.1613  0.5937 -0.1131
   93MOL   C40346587   3.860   6.269   1.944  0.0706  0.0009  0.0214
   93MOL   O40446588   3.969   6.261   1.856 -0.0050  0.0330 -0.0160
   93MOL   C40546589   3.933   6.269   1.715 -0.4901 -0.1142 -0.4088
   93MOL   C40646590   4.058   6.292   1.621  0.0126  0.0238 -0.5596
   93MOL   C40746591   4.013   6.309   1.469 -0.2201 -0.3913 -0.6409
   93MOL   C40846592   4.134   6.349   1.379 -0.1291  0.6260 -0.2762
   93MOL   C40946593   4.094   6.367   1.234 -0.1925  0.6874  0.3801
   93MOL   C41046594   4.207   6.438   1.164 -0.1271 -0.6757  0.2471
   93MOL   H41146595   3.819   6.065   1.901 -0.4760  3.1968 -1.8111
   93MOL   H41246596   3.923   6.087   2.035  0.4682  1.3270 -0.8372
   93MOL   H41346597   3.779   6.326   1.898 -0.0467  0.8590  1.3024
   93MOL   H41446598   3.870   6.358   1.706 -0.3183 -0.1401 -1.9419
   93MOL   H41546599   3.871   6.185   1.684  0.0299 -0.1844 -1.2697
   93MOL   H41646600   4.131   6.215   1.643  0.1028  0.4510  0.6946
   93MOL   H41746601   4.104   6.383   1.661  1.3470 -0.5431 -0.7887
   93MOL   H41846602   3.960   6.222   1.429 -0.5400 -1.3902  1.8683
   93MOL   H41946603   3.943   6.393   1.462  0.4783  0.4657  2.1622
   93MOL   H42046604   4.180   6.438   1.420 -1.9713  1.0861  0.8543
   93MOL   H42146605   4.212   6.273   1.386 -0.1871  0.7936  2.5783
   93MOL   H42246606   4.060   6.272   1.194 -0.6711  0.6704  0.8172
   93MOL   H42346607   4.011   6.438   1.233  0.3628  1.3437  0.7041
   93MOL   H42446608   4.301   6.384   1.172  1.4404  1.7952 -0.8148
   93MOL   H42546609   4.179   6.454   1.060 -1.3567  0.4516  0.7390
   93MOL   H42646610   4.217   6.537   1.207 -1.7909 -0.9139  1.2127
   93MOL   C42746611   3.909   6.355   2.060 -0.4847  0.2826  0.4325
   93MOL   C42846612   3.971   6.487   2.011  0.0537 -0.0047 -0.2777
   93MOL   O42946613   3.886   6.564   1.931  0.9434 -0.0574 -0.3278
   93MOL   C43046614   3.940   6.639   1.818 -0.4451 -0.2042  0.1727
   93MOL   C43146615   3.813   6.710   1.764 -0.1874  0.0108  0.3974
   93MOL   C43246616   3.825   6.801   1.642  0.5989  0.9960  0.2649
   93MOL   C43346617   3.880   6.725   1.512 -0.7891 -0.3103 -0.7144
   93MOL   C43446618   3.905   6.810   1.394 -0.3239  0.4868  0.3818
   93MOL   C43546619   3.932   6.737   1.258  0.0934 -0.3173  0.1209
   93MOL   H43646620   3.820   6.367   2.122 -0.5657  0.6073  0.2561
   93MOL   H43746621   3.982   6.308   2.125 -0.5539  0.5644  0.7139
   93MOL   H43846622   4.062   6.468   1.954 -0.3090 -1.9388 -0.2736
   93MOL   H43946623   3.979   6.575   1.739  0.4539 -0.9182  1.1985
   93MOL   H44046624   4.014   6.714   1.846  0.0141 -0.7311  0.3842
   93MOL   H44146625   3.774   6.763   1.852 -0.7232  0.3951 -0.0672
   93MOL   H44246626   3.743   6.635   1.727  0.3014 -0.5873  0.6836
   93MOL   H44346627   3.725   6.840   1.622  0.4102 -0.2187 -1.3016
   93MOL   H44446628   3.885   6.888   1.668  2.7110 -0.2069 -0.4723
   93MOL   H44546629   3.974   6.677   1.540 -1.7562 -1.5888  0.4374
   93MOL   H44646630   3.807   6.647   1.490  0.6104 -1.5787 -0.9491
   93MOL   H44746631   3.816   6.871   1.377 -0.2421  0.8506  1.1920
   93MOL   H44846632   3.981   6.886   1.414  0.9903  0.1895 -3.1735
   93MOL   H44946633   3.848   6.669   1.240 -1.6775  2.0173 -0.6281
   93MOL   H45046634   3.935   6.807   1.175 -0.7379 -1.2800 -0.7336
   93MOL   H45146635   4.020   6.673   1.265  1.7663  1.8672 -0.4110
   93MOL   C45246636   3.993   6.573   2.135 -0.2093 -0.1314  0.5673
   93MOL   C45346637   4.052   6.716   2.119 -0.2789 -0.0153 -0.8233
   93MOL   O45446638   4.173   6.694   2.049 -0.3231 -0.1997 -0.2724
   93MOL   C45546639   4.225   6.808   1.977 -0.3998  0.3188 -0.0244
   93MOL   C45646640   4.336   6.758   1.885 -0.0969 -0.4141 -0.1016
   93MOL   C45746641   4.295   6.656   1.777 -0.2333  0.0091  0.1052
   93MOL   C45846642   4.422   6.638   1.693  0.1047  0.0167  0.6584
   93MOL   C45946643   4.396   6.561   1.565  0.1723 -0.2132 -0.6985
   93MOL   C46046644   4.526   6.542   1.475 -0.0691 -0.4869  0.2350
   93MOL   H46146645   3.904   6.583   2.197 -0.2941 -1.3146  0.6511
   93MOL   H46246646   4.059   6.512   2.195  0.6665  0.5795  0.3376
   93MOL   H46346647   3.986   6.787   2.069  0.3621  0.9732 -0.2608
   93MOL   H46446648   4.280   6.876   2.042  1.4223  1.2626 -2.4367
   93MOL   H46546649   4.148   6.864   1.923 -0.3028  2.2519  1.7805
   93MOL   H46646650   4.403   6.708   1.955 -3.8440 -4.2318  0.9417
   93MOL   H46746651   4.394   6.841   1.845  0.8484 -0.5535  0.9599
   93MOL   H46846652   4.263   6.565   1.828 -0.7768 -0.5402 -1.2039
   93MOL   H46946653   4.215   6.694   1.715 -0.5613  1.4065  1.3449
   93MOL   H47046654   4.464   6.736   1.670  0.7736 -0.4614 -0.2199
   93MOL   H47146655   4.498   6.596   1.759 -0.7204 -1.4136  0.7111
   93MOL   H47246656   4.355   6.463   1.587 -0.8746 -0.0708 -1.9489
   93MOL   H47346657   4.313   6.611   1.515 -1.9895 -0.9446  2.0557
   93MOL   H47446658   4.596   6.471   1.519 -0.3148 -1.8570 -1.5300
   93MOL   H47546659   4.507   6.516   1.371 -0.6181  2.9868 -0.5915
   93MOL   H47646660   4.586   6.633   1.480 -0.7103 -0.1356  1.7665
   93MOL   C47746661   4.104   6.776   2.253 -0.2391 -0.1177  0.6456
   93MOL   C47846662   3.991   6.799   2.347 -0.7129  0.2914 -0.1856
   93MOL   O47946663   4.039   6.822   2.478 -0.0237 -0.7761  0.2053
   93MOL   C48046664   3.933   6.855   2.574  0.4183 -0.4891 -0.5136
   93MOL   C48146665   4.001   6.903   2.706 -0.5368 -0.0976  0.3118
   93MOL   C48246666   4.109   7.009   2.668  0.3237  0.1288 -0.4431
   93MOL   C48346667   4.184   7.061   2.787  0.3797 -0.0113  0.0312
   93MOL   C48446668   4.311   7.148   2.752  0.5291  0.1796  0.1547
   93MOL   C48546669   4.365   7.233   2.869  0.3082  0.1062  0.8887
   93MOL   H48646670   4.177   6.705   2.293 -0.1337  0.2596  1.1343
   93MOL   H48746671   4.153   6.873   2.248  2.2810 -1.4348 -1.3632
   93MOL   H48846672   3.921   6.879   2.320  0.5780  0.8899 -1.8776
   93MOL   H48946673   3.859   6.776   2.586 -0.1809  0.2805  1.1970
   93MOL   H49046674   3.865   6.934   2.542  0.3942  0.1847  1.1033
   93MOL   H49146675   4.048   6.820   2.759  0.3778  0.3166  0.1576
   93MOL   H49246676   3.925   6.937   2.776 -0.4199 -0.5761  0.6806
   93MOL   H49346677   4.192   6.973   2.607  1.2357  1.3334  0.0741
   93MOL   H49446678   4.074   7.089   2.603  0.6764  0.0945 -0.6776
   93MOL   H49546679   4.122   7.124   2.851  0.4175 -0.3122  0.3697
   93MOL   H49646680   4.233   6.995   2.859 -0.7951  1.3063  2.0902
   93MOL   H49746681   4.387   7.083   2.709 -0.6381 -0.4157 -1.0289
   93MOL   H49846682   4.277   7.220   2.677 -0.1816  1.0834  1.3325
   93MOL   H49946683   4.284   7.293   2.910 -0.9854 -1.5579  0.7954
   93MOL   H50046684   4.389   7.170   2.954 -0.0709  0.4985  1.2887
   93MOL   H50146685   4.442   7.303   2.835 -0.5864  0.1146 -1.1767
   93MOL   H50246686   3.935   6.706   2.358  0.3733 -0.1145  2.1037
   94MOL     C146687   4.953   7.431   0.035 -0.0585  0.4373 -0.6718
   94MOL     C246688   5.035   7.549   7.747 -0.1638  0.0140 -0.4081
   94MOL     O346689   5.087   7.478   7.627 -0.3101  0.4316 -0.1905
   94MOL     C446690   5.017   7.500   7.509 -0.1182 -0.5957 -0.0846
   94MOL     C546691   5.037   7.636   7.450 -0.1604 -0.9097  0.2444
   94MOL     C646692   4.988   7.645   7.304 -0.3065 -0.3751 -0.5919
   94MOL     C746693   4.977   0.007   7.250  0.7249 -0.1488 -0.5675
   94MOL     C846694   4.960   0.005   7.096 -0.0960 -0.4981 -0.2449
   94MOL     C946695   4.822   7.742   7.043  0.0358 -0.1427 -0.2447
   94MOL    H1046696   4.920   7.467   0.133  2.4074 -0.3767  0.5102
   94MOL    H1146697   4.871   7.404   7.745 -1.1560 -0.3809  0.9570
   94MOL    H1246698   4.958   7.622   7.725 -0.2238 -0.3775 -1.5392
   94MOL    H1346699   4.909   7.493   7.522 -0.1172 -0.8224 -0.1914
   94MOL    H1446700   5.059   7.438   7.430  0.7804  0.2771 -0.2946
   94MOL    H1546701   5.141   7.668   7.460 -0.5156 -0.0211  1.2008
   94MOL    H1646702   4.976   7.709   7.503 -1.9171  0.1195 -3.0673
   94MOL    H1746703   5.068   7.594   7.251  0.8400 -0.2232  0.9449
   94MOL    H1846704   4.889   7.602   7.290 -0.3801 -0.6365  0.6873
   94MOL    H1946705   4.902   0.065   7.303  0.9995 -1.6683  1.5581
   94MOL    H2046706   5.065   0.065   7.279 -0.8661  0.3186  3.6935
   94MOL    H2146707   5.024   7.701   7.061 -0.9360 -1.0381 -0.5375
   94MOL    H2246708   4.990   0.097   7.045 -2.0772 -0.5811 -1.6321
   94MOL    H2346709   4.812   7.741   6.934 -3.4305  0.0927  0.0175
   94MOL    H2446710   4.791   7.646   7.084  1.6706 -0.1433  1.0245
   94MOL    H2546711   4.754   0.038   7.088 -0.6624  0.1624 -1.7731
   94MOL    H2646712   5.013   7.344   0.062  2.1147  1.7168 -1.2974
   94MOL    C2746713   5.158   7.602   0.050 -0.6170  0.5378 -0.2593
   94MOL    C2846714   5.222   7.719   7.749  0.6785  0.6495 -0.4052
   94MOL    O2946715   5.131   0.050   7.759  0.7180  0.1795  0.7258
   94MOL    C3046716   5.155   0.150   7.670  0.2541 -0.3177 -0.3876
   94MOL    C3146717   5.030   0.238   7.675  0.0116  0.2197 -0.1489
   94MOL    C3246718   4.997   0.285   0.039  0.4487 -0.0806  0.3253
   94MOL    C3346719   4.879   0.389   0.042 -0.0031 -0.9180  0.3976
   94MOL    C3446720   4.843   0.449   0.172  0.2724 -0.2978  0.0949
   94MOL    C3546721   4.778   0.342   0.264  0.2244 -0.0716  1.0070
   94MOL    H3646722   5.127   7.634   0.150  0.6297  0.7205  0.0760
   94MOL    H3746723   5.236   7.528   0.068  0.0033  0.6759 -2.3245
   94MOL    H3846724   5.241   7.697   7.644  2.2907  0.4453 -0.0692
   94MOL    H3946725   5.161   0.111   7.568  1.9922 -2.3064  0.4258
   94MOL    H4046726   5.249   0.199   7.695  0.2420 -0.2344 -0.5065
   94MOL    H4146727   4.947   0.179   7.636  0.7441 -0.7778 -0.2057
   94MOL    H4246728   5.045   0.320   7.605  0.5749 -1.1098 -1.5885
   94MOL    H4346729   4.974   0.201   0.105  0.2593 -0.3300 -0.0530
   94MOL    H4446730   5.076   0.341   0.089  0.1103  3.3556 -2.7836
   94MOL    H4546731   4.907   0.464   7.744  1.0801 -1.6222  0.0904
   94MOL    H4646732   4.790   0.344   7.776  0.5372  0.1904 -1.9298
   94MOL    H4746733   4.925   0.500   0.223  3.2374 -2.3094 -2.4860
   94MOL    H4846734   4.765   0.522   0.148 -1.0588 -0.8179  2.6013
   94MOL    H4946735   4.833   0.252   0.291 -0.4140 -0.2161  1.8182
   94MOL    H5046736   4.742   0.375   0.361  1.6920  3.0551  0.5505
   94MOL    H5146737   4.688   0.303   0.217  0.3397 -0.7340  1.3397
   94MOL    C5246738   5.364   7.753   0.033  0.4779  0.1407 -0.4244
   94MOL    C5346739   5.483   7.725   7.723 -0.3554 -0.5031 -0.1940
   94MOL    O5446740   5.597   7.776   0.013  0.5870 -0.3673  0.2370
   94MOL    C5546741   5.637   0.128   7.749 -0.6940 -0.6095 -0.5463
   94MOL    C5646742   5.741   0.190   0.063  0.4296  0.0155 -0.2182
   94MOL    C5746743   5.876   0.142   0.026  0.1084 -0.0741 -1.1741
   94MOL    C5846744   5.981   0.192   0.132 -0.3133  0.1178 -0.2458
   94MOL    C5946745   6.127   0.162   0.080  0.4420  0.2694 -0.1522
   94MOL    C6046746   6.242   0.201   0.174  0.8770  0.5305  0.1249
   94MOL    H6146747   5.383   7.691   0.121 -0.7534  1.0180  0.4906
   94MOL    H6246748   5.358   0.077   0.074  0.5258 -0.2401  0.5353
   94MOL    H6346749   5.459   7.775   7.629  1.3273  0.3103 -0.2132
   94MOL    H6446750   5.543   0.182   7.761 -0.8197 -0.4197 -2.2696
   94MOL    H6546751   5.673   0.134   7.647 -1.6773 -0.1992 -0.8724
   94MOL    H6646752   5.709   0.173   0.166 -2.2944  0.8433 -0.8979
   94MOL    H6746753   5.722   0.298   0.067 -0.7027 -0.1137 -1.8072
   94MOL    H6846754   5.891   0.034   0.029  2.3246  0.2187 -0.5285
   94MOL    H6946755   5.905   0.183   7.707 -1.2289 -2.1394 -2.4730
   94MOL    H7046756   5.968   0.300   0.138 -3.2605 -0.0250 -2.7955
   94MOL    H7146757   5.948   0.147   0.226 -1.1135 -1.7020 -1.3588
   94MOL    H7246758   6.133   0.055   0.059 -1.3812  0.5037 -1.9533
   94MOL    H7346759   6.152   0.204   7.760  0.6736 -0.9862 -0.6443
   94MOL    H7446760   6.230   0.307   0.194 -0.1375  0.4641 -0.0989
   94MOL    H7546761   6.235   0.148   0.269  0.0222  0.5053  0.0471
   94MOL    H7646762   6.329   0.172   0.115  0.5707  0.8189 -0.4752
   94MOL    C7746763   5.494   7.573   7.708  0.2285  0.1702 -0.0769
   94MOL    C7846764   5.633   7.527   7.651 -0.3746  0.0644  0.3962
   94MOL    O7946765   5.621   7.400   7.585 -0.0972  0.4897  0.4159
   94MOL    C8046766   5.597   7.414   7.441 -0.0374 -0.1417  0.2097
   94MOL    C8146767   5.653   7.305   7.350  0.1711  0.1488 -0.4216
   94MOL    C8246768   5.616   7.158   7.380  0.0732 -0.1497 -0.1701
   94MOL    C8346769   5.696   7.064   7.285  0.0312 -0.1712 -0.0282
   94MOL    C8446770   5.847   7.046   7.317 -0.1637 -0.2370 -0.4411
   94MOL    C8546771   5.905   6.943   7.220  0.7788  0.2187  0.3124
   94MOL    H8646772   5.420   7.540   7.635  2.0412  0.8280 -2.2563
   94MOL    H8746773   5.478   7.522   0.026  0.1380 -0.2315 -0.3048
   94MOL    H8846774   5.672   7.601   7.580  0.5245  1.3380  2.1710
   94MOL    H8946775   5.636   7.503   7.394  2.1552 -1.1368  0.0893
   94MOL    H9046776   5.490   7.430   7.430  0.1965  1.5080  0.2881
   94MOL    H9146777   5.759   7.329   7.337 -0.4519  2.2887 -1.9270
   94MOL    H9246778   5.610   7.335   7.254 -0.4105 -1.6750 -0.7585
   94MOL    H9346779   5.636   7.148   7.486  0.9148 -1.3570 -0.4267
   94MOL    H9446780   5.509   7.152   7.364 -0.3702  1.2032  2.1054
   94MOL    H9546781   5.640   6.971   7.278 -1.6330  0.7641  0.7196
   94MOL    H9646782   5.686   7.103   7.183 -3.0331 -0.0648  0.2648
   94MOL    H9746783   5.898   7.140   7.296  0.4145 -0.4817 -0.1486
   94MOL    H9846784   5.853   7.010   7.420  1.9518  1.9897  0.2545
   94MOL    H9946785   6.008   6.968   7.198 -0.1326  1.0889 -3.2273
   94MOL   H10046786   5.890   6.840   7.251  0.0748  0.4823  0.8833
   94MOL   H10146787   5.870   6.966   7.119  1.6206  0.7199  0.1297
   94MOL   C10246788   5.740   7.513   7.763 -0.6591  0.0132 -0.3598
   94MOL   C10346789   5.884   7.483   7.713 -0.0460 -0.3305  0.7264
   94MOL   O10446790   5.931   7.609   7.663  0.2861  0.2336 -0.2732
   94MOL   C10546791   5.962   7.622   7.523 -0.4412  0.0420 -0.6128
   94MOL   C10646792   5.961   7.776   7.492  0.3981  0.4483 -0.3547
   94MOL   C10746793   5.998   0.030   7.341  0.6462 -0.4347  0.5139
   94MOL   C10846794   6.019   0.173   7.305  0.0456  0.2172 -0.0809
   94MOL   C10946795   6.045   0.196   7.155 -0.1702 -0.0791 -0.0448
   94MOL   C11046796   6.033   0.337   7.106 -0.2143 -0.0169 -0.2099
   94MOL   H11146797   5.745   7.597   0.055  1.5105 -1.1572  0.9728
   94MOL   H11246798   5.711   7.427   0.046  0.4255 -0.8306 -1.0336
   94MOL   H11346799   5.886   7.409   7.633 -0.6198 -0.3909  0.7685
   94MOL   H11446800   5.889   7.567   7.464 -0.8402 -0.3995  0.2917
   94MOL   H11546801   6.061   7.586   7.497 -1.7506 -4.3844  0.2025
   94MOL   H11646802   6.052   0.041   7.534 -0.3965  0.9169  0.9243
   94MOL   H11746803   5.866   0.045   7.518  1.2732  1.2466  1.4988
   94MOL   H11846804   6.081   7.740   7.318  2.2780  2.5098 -2.5497
   94MOL   H11946805   5.916   7.766   7.281  0.0787  0.8863  0.3708
   94MOL   H12046806   5.943   0.240   7.345  1.9969  2.3817  0.1013
   94MOL   H12146807   6.109   0.213   7.353  1.9617 -0.4695 -3.0128
   94MOL   H12246808   6.148   0.165   7.134 -0.4384 -0.2074 -1.1675
   94MOL   H12346809   5.982   0.133   7.093  1.1482  0.2219 -1.7279
   94MOL   H12446810   5.929   0.370   7.114 -0.1220  0.1417  0.3451
   94MOL   H12546811   6.095   0.406   7.163  0.9962 -1.9556  0.8720
   94MOL   H12646812   6.072   0.342   7.005 -0.4741 -1.5406 -0.3980
   94MOL   C12746813   5.959   7.455   0.064  0.3804  0.2708 -0.0390
   94MOL   C12846814   6.105   7.401   0.053  0.1200  0.0757  0.2417
   94MOL   O12946815   6.095   7.255   0.043  0.0067 -0.0374 -0.3370
   94MOL   C13046816   6.082   7.201   7.692  0.2127  0.1170 -0.0429
   94MOL   C13146817   6.150   7.058   7.705 -0.0759 -0.1827 -0.2723
   94MOL   C13246818   6.124   6.981   7.578  0.1939  0.1018  0.1424
   94MOL   C13346819   6.188   6.839   7.565  0.5310  0.4234  0.4946
   94MOL   C13446820   6.334   6.852   7.526 -0.2502  0.0978  0.2559
   94MOL   C13546821   6.401   6.721   7.542 -0.2015 -0.4268  0.2663
   94MOL   H13646822   5.974   7.551   0.113  2.4058 -0.1315  0.1496
   94MOL   H13746823   5.908   7.380   0.125  1.1362 -0.5748 -0.4446
   94MOL   H13846824   6.144   7.449   7.740  3.1262  0.2478  1.5879
   94MOL   H13946825   6.138   7.254   7.615  2.0980 -0.7198  0.7225
   94MOL   H14046826   5.975   7.188   7.677  0.5920 -1.9029 -1.2504
   94MOL   H14146827   6.124   7.016   0.025  0.9792  0.1184  0.1494
   94MOL   H14246828   6.258   7.075   7.712 -0.0820 -1.0583  2.4717
   94MOL   H14346829   6.017   6.966   7.567  0.3790 -1.0278 -0.2109
   94MOL   H14446830   6.155   7.049   7.499  0.1498 -1.7420 -1.4841
   94MOL   H14546831   6.181   6.792   7.662  0.1132 -1.8031 -0.5873
   94MOL   H14646832   6.143   6.771   7.493 -0.0731  2.0593 -0.6987
   94MOL   H14746833   6.338   6.868   7.418  0.3727 -3.1132 -0.2554
   94MOL   H14846834   6.383   6.935   7.577 -0.5184  0.8185 -0.6483
   94MOL   H14946835   6.331   6.641   7.517 -2.5364  1.6249  0.0511
   94MOL   H15046836   6.487   6.716   7.475  0.0202  0.3958  0.4793
   94MOL   H15146837   6.426   6.708   7.647  1.0680  1.7830  0.2578
   94MOL   C15246838   6.194   7.436   0.177 -0.1902  0.3906 -0.1912
   94MOL   C15346839   6.340   7.399   0.160  0.9324 -0.2968 -0.5610
   94MOL   O15446840   6.406   7.469   0.055  0.3208  0.4090 -0.4744
   94MOL   C15546841   6.463   7.379   7.734  0.5813 -1.0541  0.5954
   94MOL   C15646842   6.514   7.469   7.623 -0.3284  0.5405  0.0508
   94MOL   C15746843   6.409   7.553   7.557  0.6918  0.2329 -0.6908
   94MOL   C15846844   6.459   7.637   7.440  0.1516  0.4179 -0.8440
   94MOL   C15946845   6.353   7.733   7.396  0.8289  0.2214 -0.1784
   94MOL   C16046846   6.402   0.066   7.297 -1.0484  0.0993  0.4026
   94MOL   H16146847   6.187   7.543   0.197  2.2063  1.0400 -2.5833
   94MOL   H16246848   6.145   7.381   0.258  0.5062 -0.7698 -0.5642
   94MOL   H16346849   6.343   7.293   0.134  1.1745 -0.6023  0.6833
   94MOL   H16446850   6.389   7.306   7.701 -0.8502  0.8682 -0.5787
   94MOL   H16546851   6.552   7.330   7.772  0.3135 -1.3998  0.7798
   94MOL   H16646852   6.570   7.404   7.556 -0.5788 -0.0196  0.3800
   94MOL   H16746853   6.581   7.546   7.662 -0.3056  0.6040 -0.1174
   94MOL   H16846854   6.334   7.488   7.512 -0.6753 -0.4246  2.3571
   94MOL   H16946855   6.358   7.617   7.629  0.6458  0.9192 -1.3350
   94MOL   H17046856   6.545   7.687   7.484  0.4824 -1.0110  0.1794
   94MOL   H17146857   6.490   7.577   7.354 -1.4895 -1.0887 -0.4187
   94MOL   H17246858   6.276   7.678   7.342  0.3041 -0.3265  1.1211
   94MOL   H17346859   6.295   7.777   7.477  0.7134 -2.0115  0.9751
   94MOL   H17446860   6.489   0.115   7.340 -0.8917 -0.5210  0.8028
   94MOL   H17546861   6.422   0.016   7.202 -2.5954  1.4468 -0.6662
   94MOL   H17646862   6.325   0.140   7.275 -0.7609 -0.0417 -1.1285
   94MOL   C17746863   6.431   7.436   0.288 -0.3233  0.0633  0.3304
   94MOL   C17846864   6.391   7.346   0.410  0.2750 -0.1309  0.0329
   94MOL   O17946865   6.419   7.210   0.395 -0.2296 -0.0623  0.1351
   94MOL   C18046866   6.298   7.133   0.382 -0.3470 -0.3241  0.4575
   94MOL   C18146867   6.327   6.985   0.374 -0.2176  1.0641  0.2750
   94MOL   C18246868   6.425   6.942   0.485 -0.3563 -0.4496 -0.5226
   94MOL   C18346869   6.427   6.790   0.498 -0.0735  0.0074  0.4501
   94MOL   C18446870   6.522   6.752   0.619  0.1090 -0.0526 -1.0083
   94MOL   C18546871   6.504   6.606   0.665  0.8200 -0.2735  0.6004
   94MOL   H18646872   6.533   7.416   0.258  0.0567  4.1363 -1.3230
   94MOL   H18746873   6.419   7.542   0.310  0.7710  0.6822 -1.9293
   94MOL   H18846874   6.285   7.357   0.432 -0.0525 -0.9877 -1.0758
   94MOL   H18946875   6.229   7.154   0.301 -0.9172 -1.9923  0.5020
   94MOL   H19046876   6.236   7.146   0.471 -1.1529  0.0195 -0.1450
   94MOL   H19146877   6.376   6.957   0.280  3.2271  0.1429  2.2486
   94MOL   H19246878   6.236   6.927   0.387  0.5787  0.1584  2.0332
   94MOL   H19346879   6.531   6.963   0.465 -0.8914 -0.1361 -3.1964
   94MOL   H19446880   6.398   6.991   0.578 -0.7739 -1.9050  0.1212
   94MOL   H19546881   6.322   6.767   0.517 -0.1076  1.3877  1.9981
   94MOL   H19646882   6.466   6.743   0.408  0.7762  1.1896  0.1872
   94MOL   H19746883   6.625   6.769   0.588 -0.0861 -0.0694 -1.6690
   94MOL   H19846884   6.517   6.813   0.710  1.5836 -2.9464  1.0971
   94MOL   H19946885   6.493   6.538   0.580  1.8909  0.3732 -0.0730
   94MOL   H20046886   6.588   6.568   0.724  0.2880  0.6909  2.0088
   94MOL   H20146887   6.416   6.599   0.728  1.2065 -0.4185  1.1361
   94MOL   C20246888   6.458   7.388   0.541 -0.7012 -0.6889 -0.3733
   94MOL   C20346889   6.407   7.326   0.673  0.5279 -0.0274  0.3166
   94MOL   O20446890   6.278   7.388   0.681 -0.1941  1.0731 -0.2225
   94MOL   C20546891   6.173   7.311   0.742  0.2006 -0.5958 -0.3914
   94MOL   C20646892   6.062   7.418   0.769 -0.4559  0.2000 -0.7839
   94MOL   C20746893   5.946   7.372   0.851 -0.1299  0.3585  0.4046
   94MOL   C20846894   5.826   7.468   0.836 -0.4744  0.8047 -0.2578
   94MOL   C20946895   5.859   7.593   0.925  1.0931 -0.1981 -0.5604
   94MOL   C21046896   5.732   7.679   0.922  0.6875  0.4684  0.4905
   94MOL   H21146897   6.564   7.378   0.515 -0.6588 -1.4996  0.0831
   94MOL   H21246898   6.448   7.496   0.551 -1.1025 -0.6898 -0.7287
   94MOL   H21346899   6.402   7.217   0.672  2.6009 -0.1347 -2.3748
   94MOL   H21446900   6.206   7.279   0.841 -1.5311  0.3434  0.4985
   94MOL   H21546901   6.130   7.231   0.681 -0.1813  0.5188 -1.5922
   94MOL   H21646902   6.024   7.451   0.672 -1.8215 -0.5348 -0.5068
   94MOL   H21746903   6.101   7.506   0.819 -1.7676  0.9114 -0.9846
   94MOL   H21846904   5.913   7.277   0.808 -0.7397  0.7628 -0.0254
   94MOL   H21946905   5.971   7.373   0.957 -2.7802 -1.8070  1.0987
   94MOL   H22046906   5.814   7.486   0.730  0.5810 -0.1060 -0.5359
   94MOL   H22146907   5.734   7.420   0.872  0.2629  0.2797  0.9662
   94MOL   H22246908   5.879   7.567   1.029 -0.0379  4.3880  0.9501
   94MOL   H22346909   5.941   7.651   0.882  0.1740  1.3972 -0.1974
   94MOL   H22446910   5.660   7.627   0.984  0.8068 -0.8076 -0.4351
   94MOL   H22546911   5.749   0.000   0.967  1.0899 -0.1994  1.8224
   94MOL   H22646912   5.695   7.691   0.820 -0.9083 -1.5260  0.8043
   94MOL   C22746913   6.490   7.375   0.787 -0.0395  0.3546 -0.1037
   94MOL   C22846914   6.624   7.302   0.808 -0.5337  0.3451  0.8373
   94MOL   O22946915   6.685   7.300   0.685 -0.7310 -0.6883 -0.0778
   94MOL   C23046916   6.745   7.185   0.654  0.7933 -0.7488  0.3655
   94MOL   C23146917   6.851   7.219   0.537  0.2289 -0.5328  0.6274
   94MOL   C23246918   6.784   7.261   0.413 -0.2398 -0.3449 -0.1394
   94MOL   C23346919   6.875   7.263   0.286  0.2188  0.0505  0.0412
   94MOL   C23446920   6.802   7.287   0.152  1.1081  0.3085 -0.3154
   94MOL   C23546921   6.883   7.282   0.024  0.1973  0.0831 -0.2751
   94MOL   H23646922   6.516   7.478   0.762 -1.2995  0.4374 -1.0697
   94MOL   H23746923   6.437   7.381   0.882 -1.1805  0.3136 -0.7417
   94MOL   H23846924   6.609   7.204   0.852  0.1983 -0.0371  0.2420
   94MOL   H23946925   6.676   7.110   0.615 -1.5990 -0.0816  3.1825
   94MOL   H24046926   6.791   7.140   0.742  1.6330  0.4810  0.5702
   94MOL   H24146927   6.908   7.130   0.509  0.2020 -0.3403 -0.0370
   94MOL   H24246928   6.925   7.292   0.571 -1.2033  0.5462  1.4754
   94MOL   H24346929   6.694   7.205   0.390 -0.4331  0.0842 -0.4247
   94MOL   H24446930   6.749   7.364   0.417 -0.0502 -0.1097 -3.4214
   94MOL   H24546931   6.941   7.349   0.292 -1.3615  1.2672  0.2851
   94MOL   H24646932   6.936   7.173   0.284  1.0343  0.6325 -2.4881
   94MOL   H24746933   6.729   7.207   0.144  0.0176  1.3075 -0.5385
   94MOL   H24846934   6.727   7.366   0.155 -0.1018 -0.8079 -0.8333
   94MOL   H24946935   6.812   7.261   7.721 -2.1639 -1.0787  2.0256
   94MOL   H25046936   6.926   7.378   7.772  2.3888 -1.0243 -0.8108
   94MOL   H25146937   6.954   7.199   0.024  0.6025  0.4262  0.6894
   94MOL   C25246938   6.725   7.372   0.900 -0.4662  0.6534  0.5370
   94MOL   C25346939   6.661   7.383   1.043  0.5533 -0.4159  0.6995
   94MOL   O25446940   6.752   7.450   1.126  0.6948 -0.1854 -0.0766
   94MOL   C25546941   6.750   7.589   1.101  0.2843  0.3894 -0.5211
   94MOL   C25646942   6.834   7.658   1.213 -0.3866 -0.6997 -0.4279
   94MOL   C25746943   6.779   7.643   1.357 -0.4263 -0.2023  0.6698
   94MOL   C25846944   6.870   7.715   1.459 -0.1521 -0.1546 -0.7639
   94MOL   C25946945   6.795   7.739   1.589 -0.0296  0.1583 -0.7777
   94MOL   C26046946   6.760   7.615   1.676 -0.0943  0.6383  0.2153
   94MOL   H26146947   6.813   7.308   0.910 -0.6711  0.2611 -0.1943
   94MOL   H26246948   6.746   7.470   0.857  1.0758  0.3750  0.6173
   94MOL   H26346949   6.566   7.436   1.038  1.0759  0.5799  1.0480
   94MOL   H26446950   6.648   7.622   1.117  0.8364  1.2429  1.3244
   94MOL   H26546951   6.789   7.622   1.005 -1.2554 -1.6281 -1.8773
   94MOL   H26646952   6.850   7.760   1.180 -2.3866 -0.0219  0.6379
   94MOL   H26746953   6.927   7.601   1.219  0.6497  1.0961  1.1412
   94MOL   H26846954   6.680   7.688   1.362 -1.1353 -1.5731 -0.6906
   94MOL   H26946955   6.774   7.536   1.376 -0.4419 -0.2471  0.4169
   94MOL   H27046956   6.966   7.667   1.475  0.0137  0.5116  0.2723
   94MOL   H27146957   6.899   0.037   1.426  0.6123  1.0987  3.4357
   94MOL   H27246958   6.864   0.023   1.647 -0.6341 -0.5814  0.7434
   94MOL   H27346959   6.708   0.024   1.568 -0.9709 -0.2467  1.8065
   94MOL   H27446960   6.759   7.528   1.610  1.5638  0.4212  0.4440
   94MOL   H27546961   6.834   7.594   1.753  0.8616  0.8253 -0.6395
   94MOL   H27646962   6.671   7.626   1.738 -1.2585 -1.3324 -1.0510
   94MOL   C27746963   6.629   7.247   1.108 -0.2016 -0.1750  0.7747
   94MOL   C27846964   6.596   7.246   1.256  0.2296  0.7131 -0.4635
   94MOL   O27946965   6.471   7.311   1.288  0.1253 -0.1462  0.0251
   94MOL   C28046966   6.491   7.407   1.394 -0.2274  0.1921  0.3069
   94MOL   C28146967   6.361   7.414   1.469 -0.1334 -0.4255  0.0792
   94MOL   C28246968   6.366   7.516   1.577 -0.1072  0.0364  1.1244
   94MOL   C28346969   6.227   7.545   1.643 -0.2145 -0.4680  0.0447
   94MOL   C28446970   6.235   7.657   1.750  0.1606  0.4904 -0.3965
   94MOL   C28546971   6.104   7.730   1.784 -0.4193  0.3586  0.1989
   94MOL   H28646972   6.545   7.208   1.050 -0.5887 -0.2900  1.3929
   94MOL   H28746973   6.715   7.182   1.095 -0.0231  0.1668  0.2573
   94MOL   H28846974   6.676   7.299   1.308 -0.2236  0.5980  0.3489
   94MOL   H28946975   6.511   7.506   1.353  2.2452  0.0842  1.1619
   94MOL   H29046976   6.573   7.385   1.464  0.2994  0.2565 -0.2834
   94MOL   H29146977   6.337   7.322   1.523 -1.3013 -1.4555 -2.1225
   94MOL   H29246978   6.271   7.435   1.412 -0.0360  0.6443  0.3053
   94MOL   H29346979   6.436   7.490   1.656 -0.9914 -0.6273  1.7100
   94MOL   H29446980   6.397   7.611   1.535  1.6006 -0.9918 -0.0273
   94MOL   H29546981   6.161   7.588   1.568 -1.5025  0.5894  1.7461
   94MOL   H29646982   6.198   7.453   1.693  3.5014 -1.7882 -0.0454
   94MOL   H29746983   6.290   7.625   1.839 -0.9932 -2.3253 -0.6613
   94MOL   H29846984   6.307   7.731   1.715  0.6907 -1.0452 -2.6716
   94MOL   H29946985   6.061   7.760   1.689 -0.8331  0.2778  0.3619
   94MOL   H30046986   6.041   7.660   1.839  0.3994 -0.4894  0.0787
   94MOL   H30146987   6.114   0.043   1.845 -0.5104  0.3957  0.1572
   94MOL   C30246988   6.587   7.104   1.310 -0.2262  0.2630  0.0595
   94MOL   C30346989   6.604   7.084   1.466  0.1008  0.3778 -0.7114
   94MOL   O30446990   6.741   7.085   1.508  0.1954 -0.3412  0.4195
   94MOL   C30546991   6.776   7.200   1.586 -0.2005 -1.1367  0.0274
   94MOL   C30646992   6.895   7.161   1.677  0.5455  0.3139  0.1874
   94MOL   C30746993   6.973   7.269   1.748 -0.0977 -0.6681 -0.1173
   94MOL   C30846994   7.110   7.222   1.811 -0.7383  0.0454 -1.1732
   94MOL   C30946995   7.185   7.320   1.911  0.4395  0.7976  0.5452
   94MOL   C31046996   7.220   7.460   1.856  0.0632  0.6207  0.1964
   94MOL   H31146997   6.492   7.066   1.273  0.1448 -0.9554  0.3333
   94MOL   H31246998   6.660   7.049   1.250  1.6586 -0.8803  3.2818
   94MOL   H31346999   6.534   7.153   1.512  0.1192  0.7341 -1.2183
   94MOL   H31447000   6.704   7.250   1.650 -0.3673 -1.2741 -0.0521
   94MOL   H31547001   6.814   7.280   1.522  2.0508 -1.5158  0.8228
   94MOL   H31647002   6.974   7.115   1.617  1.3885  0.8028  0.9089
   94MOL   H31747003   6.860   7.093   1.755  0.2964  1.4393  1.0704
   94MOL   H31847004   7.005   7.347   1.679  1.2253  0.8811  2.1733
   94MOL   H31947005   6.919   7.313   1.831  2.2205  0.6777  0.7346
   94MOL   H32047006   7.100   7.128   1.864 -1.4168  0.8739  0.2107
   94MOL   H32147007   7.174   7.198   1.726  0.2677  0.4936 -0.5624
   94MOL   H32247008   7.131   7.331   2.005  0.8868 -1.1924  1.0671
   94MOL   H32347009   7.279   7.271   1.937  0.7015  0.2721 -1.3105
   94MOL   H32447010   7.301   7.511   1.907  0.7187  0.0310 -0.2423
   94MOL   H32547011   7.245   7.449   1.750  2.8960  1.6044  0.7121
   94MOL   H32647012   7.128   7.518   1.851  0.8259  1.7189 -1.3443
   94MOL   C32747013   6.544   6.944   1.505  0.0534  0.0056  0.0081
   94MOL   C32847014   6.487   6.935   1.639 -0.6517 -0.1900  0.3556
   94MOL   O32947015   6.373   7.008   1.639 -0.4443  0.5986 -0.3314
   94MOL   C33047016   6.345   7.068   1.763 -0.9451 -0.6197 -0.1612
   94MOL   C33147017   6.206   7.126   1.758 -0.5772  0.4441  0.3524
   94MOL   C33247018   6.168   7.189   1.890 -0.3539 -0.0434 -0.1913
   94MOL   C33347019   6.040   7.266   1.871  0.4719  0.2093  0.8402
   94MOL   C33447020   5.990   7.315   2.006 -0.0498 -0.2203 -0.3312
   94MOL   C33547021   5.859   7.402   2.003  0.1735 -0.2318  0.3066
   94MOL   H33647022   6.620   6.866   1.495 -1.4162 -1.5365  0.6669
   94MOL   H33747023   6.459   6.918   1.441 -1.8039 -0.8632  2.7647
   94MOL   H33847024   6.553   6.973   1.717 -0.7057  1.5684 -0.4374
   94MOL   H33947025   6.421   7.143   1.784  0.5230 -1.6566 -1.5992
   94MOL   H34047026   6.346   7.008   1.854 -2.5471  1.0930  1.0100
   94MOL   H34147027   6.145   7.037   1.739 -0.4096  0.0970  1.3855
   94MOL   H34247028   6.215   7.201   1.680  2.2570 -0.1685  0.0060
   94MOL   H34347029   6.161   7.108   1.963 -1.4599 -1.0205 -1.3701
   94MOL   H34447030   6.252   7.256   1.909  0.8152 -0.6566 -2.9489
   94MOL   H34547031   6.051   7.349   1.801 -0.1916  1.6475  2.4150
   94MOL   H34647032   5.974   7.194   1.823  0.6463 -0.4562  1.5741
   94MOL   H34747033   5.957   7.226   2.059  1.4440  0.4606  1.8026
   94MOL   H34847034   6.069   7.361   2.065  0.3220 -3.0190  1.4352
   94MOL   H34947035   5.778   7.367   1.940  0.0027 -0.1371  0.4717
   94MOL   H35047036   5.820   7.400   2.105 -0.8713 -1.0351 -0.1045
   94MOL   H35147037   5.878   7.504   1.971 -1.5758  0.4276  1.3355
   94MOL   C35247038   6.447   6.787   1.671 -0.7125  0.2532 -0.2370
   94MOL   C35347039   6.545   6.693   1.734  0.0307 -0.0730  0.1221
   94MOL   O35447040   6.511   6.554   1.720 -0.3629 -0.1810  0.4689
   94MOL   C35547041   6.509   6.500   1.585 -0.3798  0.0716 -0.7702
   94MOL   C35647042   6.520   6.347   1.605  0.5277 -0.0967 -0.2179
   94MOL   C35747043   6.396   6.268   1.649  0.0349  0.0725  0.4612
   94MOL   C35847044   6.419   6.119   1.691  0.0565 -0.5531 -0.6347
   94MOL   C35947045   6.299   6.070   1.775  0.6085 -0.0448 -0.0326
   94MOL   C36047046   6.302   5.919   1.794 -0.0663  0.4445  0.4199
   94MOL   H36147047   6.364   6.783   1.742  1.3610 -1.1543  2.1843
   94MOL   H36247048   6.402   6.738   1.585  0.3309  1.5130 -1.5195
   94MOL   H36347049   6.643   6.708   1.689  0.9574 -1.8811  1.5182
   94MOL   H36447050   6.591   6.537   1.525 -0.0938  0.6438 -0.0367
   94MOL   H36547051   6.412   6.524   1.541 -1.1687  0.0814  0.9140
   94MOL   H36647052   6.600   6.341   1.678  0.2408  2.6656  0.3930
   94MOL   H36747053   6.555   6.307   1.510  0.5721  0.6430 -0.5167
   94MOL   H36847054   6.340   6.317   1.729  1.8398 -0.9329  2.3968
   94MOL   H36947055   6.328   6.280   1.564  0.8596 -2.5099 -0.5936
   94MOL   H37047056   6.445   6.059   1.604 -0.8009 -1.2089 -0.4434
   94MOL   H37147057   6.511   6.108   1.749  0.4899 -0.9375 -1.3913
   94MOL   H37247058   6.292   6.124   1.869 -1.8080  0.4131 -0.4345
   94MOL   H37347059   6.210   6.105   1.722  0.1826  2.2315  2.0847
   94MOL   H37447060   6.213   5.890   1.850 -0.5466 -0.3156 -0.7061
   94MOL   H37547061   6.303   5.865   1.699 -0.9052  4.1381 -1.7575
   94MOL   H37647062   6.387   5.875   1.846 -1.2301  0.5503  2.4561
   94MOL   C37747063   6.545   6.721   1.891  0.2961  0.0758  0.0809
   94MOL   C37847064   6.663   6.650   1.968  0.5965  0.3291  0.1959
   94MOL   O37947065   6.785   6.707   1.932 -0.1631 -0.3344 -0.0780
   94MOL   C38047066   6.824   6.810   2.022  0.2590 -0.0308  0.4812
   94MOL   C38147067   6.972   6.827   1.997 -0.0351 -0.7049  0.3433
   94MOL   C38247068   7.048   6.871   2.123 -0.1202 -0.4157  0.4384
   94MOL   C38347069   7.194   6.838   2.121  0.1051 -0.4480  0.2045
   94MOL   C38447070   7.296   6.946   2.087 -0.4731  0.6326  0.5945
   94MOL   C38547071   7.334   7.060   2.182 -0.2585  0.1226 -0.8033
   94MOL   H38647072   6.546   6.828   1.915  1.4492 -0.1571  1.1419
   94MOL   H38747073   6.452   6.684   1.933  1.3204 -2.0169  0.5486
   94MOL   H38847074   6.626   6.657   2.071  0.9302 -0.8938  0.4145
   94MOL   H38947075   6.805   6.780   2.125  1.6382  0.6766  0.9640
   94MOL   H39047076   6.778   6.907   2.003  0.6911 -0.4761 -3.2458
   94MOL   H39147077   6.995   6.901   1.921 -0.1522 -0.8704  0.1476
   94MOL   H39247078   7.011   6.729   1.969  1.3831 -0.2789  0.7571
   94MOL   H39347079   7.036   6.976   2.150  0.1069  0.4929 -2.8042
   94MOL   H39447080   6.998   6.814   2.201 -1.0562 -1.2988 -0.7927
   94MOL   H39547081   7.219   6.811   2.224 -0.0209 -0.1788  0.3081
   94MOL   H39647082   7.204   6.750   2.058  0.3904 -0.6683  0.5591
   94MOL   H39747083   7.386   6.887   2.073 -0.0431  1.3751  0.1451
   94MOL   H39847084   7.283   6.974   1.982 -0.0319 -1.9641 -0.1960
   94MOL   H39947085   7.438   7.088   2.164  0.6015 -1.1341  1.8823
   94MOL   H40047086   7.277   7.152   2.169  0.0337  0.4192 -0.0128
   94MOL   H40147087   7.319   7.027   2.285  1.1971 -3.3596 -1.6317
   94MOL   C40247088   6.682   6.496   1.950 -0.0177  0.3242 -0.0909
   94MOL   C40347089   6.801   6.434   2.016 -0.2780 -0.1440  0.1680
   94MOL   O40447090   6.826   6.302   1.973 -0.6630  0.3505  0.6966
   94MOL   C40547091   6.889   6.288   1.845 -0.5760  0.0509  0.7357
   94MOL   C40647092   6.900   6.138   1.798 -0.0158 -0.7977 -0.4013
   94MOL   C40747093   6.970   6.045   1.900  0.4399 -0.3202  0.2478
   94MOL   C40847094   7.114   6.074   1.922 -0.4306  0.6798 -0.1017
   94MOL   C40947095   7.185   5.982   2.029 -0.6266 -0.2039  0.8496
   94MOL   C41047096   7.338   5.989   2.022 -0.8296  0.1778  0.3174
   94MOL   H41147097   6.700   6.483   1.844  1.8272  2.0185 -0.0124
   94MOL   H41247098   6.588   6.449   1.977  0.9304 -0.8303  1.2707
   94MOL   H41347099   6.887   6.496   1.990 -0.6933 -0.4170 -1.9414
   94MOL   H41447100   6.992   6.321   1.843 -1.1191  1.7270 -0.8789
   94MOL   H41547101   6.842   6.345   1.765  0.3947  0.2417  0.2993
   94MOL   H41647102   6.949   6.138   1.701 -0.2775  0.2861 -0.5364
   94MOL   H41747103   6.795   6.108   1.792 -0.0749 -1.1694  2.0054
   94MOL   H41847104   6.911   6.051   1.992  0.1129  0.9687 -0.0418
   94MOL   H41947105   6.948   5.943   1.870 -3.2194  0.9920 -1.8388
   94MOL   H42047106   7.166   6.059   1.828 -1.8427 -3.4734 -0.3502
   94MOL   H42147107   7.122   6.178   1.951 -0.2213  0.8694 -0.8327
   94MOL   H42247108   7.142   6.018   2.122 -0.5801 -0.4719  0.9744
   94MOL   H42347109   7.158   5.879   2.008  0.8212 -0.8489  2.0590
   94MOL   H42447110   7.365   6.094   2.011 -2.0573  0.2611 -2.4349
   94MOL   H42547111   7.380   5.944   2.111  0.9422 -1.4699 -1.2913
   94MOL   H42647112   7.376   5.937   1.934 -1.5440 -0.7738  0.5607
   94MOL   C42747113   6.789   6.431   2.171 -0.4999 -0.6515 -0.1241
   94MOL   C42847114   6.913   6.379   2.251  0.4754  0.4539  0.6772
   94MOL   O42947115   7.011   6.485   2.253  0.5912  0.1019 -0.4777
   94MOL   C43047116   7.121   6.462   2.169  0.3494 -0.5580  0.6119
   94MOL   C43147117   7.235   6.394   2.236 -0.0061  0.4711 -0.4271
   94MOL   C43247118   7.357   6.374   2.142 -0.7548 -0.2212 -0.2809
   94MOL   C43347119   7.473   6.301   2.207  0.2867  0.3710 -0.1965
   94MOL   C43447120   7.601   6.295   2.120 -0.2955  0.2308  0.1282
   94MOL   C43547121   7.691   6.209   2.198 -0.6118  0.4902  0.1374
   94MOL   H43647122   6.757   6.527   2.211  1.7640  0.8115 -1.6669
   94MOL   H43747123   6.711   6.361   2.199  0.5673 -1.6087  0.4917
   94MOL   H43847124   6.959   6.287   2.215 -0.8766 -0.3953  1.1135
   94MOL   H43947125   7.149   6.566   2.150 -1.1619  0.1638  2.1995
   94MOL   H44047126   7.090   6.412   2.078 -0.3263 -2.5952  1.9416
   94MOL   H44147127   7.195   6.300   2.275 -0.4246  0.0664 -1.8102
   94MOL   H44247128   7.265   6.449   2.325 -2.5789 -1.2446  1.5957
   94MOL   H44347129   7.326   6.317   2.054 -1.0048  0.0807 -0.3891
   94MOL   H44447130   7.384   6.477   2.119 -0.8591  0.6488  3.1709
   94MOL   H44547131   7.503   6.346   2.301  1.5859  1.0736 -0.9389
   94MOL   H44647132   7.424   6.206   2.232 -0.1109  0.8886  1.0035
   94MOL   H44747133   7.583   6.251   2.022 -1.1296  0.0344  0.3629
   94MOL   H44847134   7.641   6.395   2.102  0.4754  0.0926  1.0326
   94MOL   H44947135   7.640   6.126   2.247 -1.7300  0.4945 -0.9844
   94MOL   H45047136   7.766   6.169   2.130 -0.2030 -1.1628  1.5487
   94MOL   H45147137   7.746   6.272   2.268 -1.4733  2.0656 -0.5551
   94MOL   C45247138   6.877   6.358   2.406 -0.9234 -0.5092 -0.2047
   94MOL   C45347139   6.805   6.233   2.450 -0.5371  0.0366 -0.2163
   94MOL   O45447140   6.668   6.214   2.404  1.2177 -0.2583 -0.0094
   94MOL   C45547141   6.655   6.120   2.296 -0.3151 -0.0840  0.1921
   94MOL   C45647142   6.498   6.101   2.272  0.3325  0.2640  0.7107
   94MOL   C45747143   6.421   6.225   2.217 -0.4371 -0.9691 -0.0829
   94MOL   C45847144   6.278   6.186   2.161  0.4236  0.1576 -0.2611
   94MOL   C45947145   6.208   6.307   2.104 -0.1406 -0.5435 -0.2292
   94MOL   C46047146   6.070   6.270   2.046 -0.8992 -0.2091 -0.0857
   94MOL   H46147147   6.976   6.359   2.451 -0.8398 -0.5177 -0.3896
   94MOL   H46247148   6.820   6.447   2.433 -0.3687  0.0691 -0.9086
   94MOL   H46347149   6.869   6.152   2.414  0.7280  0.8417  0.2173
   94MOL   H46447150   6.697   6.028   2.339 -0.1224 -0.1381 -0.1057
   94MOL   H46547151   6.718   6.155   2.214  2.2878 -0.4336  1.9569
   94MOL   H46647152   6.437   6.063   2.354 -1.9178  1.5844 -0.2982
   94MOL   H46747153   6.490   6.022   2.198 -3.5968  0.2102  1.0780
   94MOL   H46847154   6.397   6.292   2.300  0.2470 -0.9545  0.1035
   94MOL   H46947155   6.478   6.281   2.144 -0.1403  1.3311  1.8398
   94MOL   H47047156   6.281   6.112   2.081 -0.0938 -0.0426 -0.1006
   94MOL   H47147157   6.224   6.139   2.243 -1.1166 -0.5907 -1.6709
   94MOL   H47247158   6.203   6.378   2.187 -2.1223 -1.3573  0.3870
   94MOL   H47347159   6.264   6.359   2.027  0.5349 -1.2660 -0.2359
   94MOL   H47447160   6.012   6.226   2.127  2.2781 -1.1172  1.7673
   94MOL   H47547161   6.025   6.349   1.986 -1.0768 -1.5769 -1.8177
   94MOL   H47647162   6.090   6.189   1.976  2.4854 -0.2292  0.8383
   94MOL   C47747163   6.805   6.212   2.599  0.0905 -0.2072 -0.1599
   94MOL   C47847164   6.729   6.085   2.643 -0.0242  0.8995 -0.6169
   94MOL   O47947165   6.807   5.965   2.640 -0.4421  0.1528  0.5174
   94MOL   C48047166   6.741   5.860   2.706  0.3556 -0.4173  0.1508
   94MOL   C48147167   6.833   5.738   2.694 -0.3513  0.1188 -0.6450
   94MOL   C48247168   6.777   5.617   2.772  0.1833  0.0144  0.5975
   94MOL   C48347169   6.796   5.486   2.691 -0.1385 -0.3522  0.5665
   94MOL   C48447170   6.753   5.355   2.762 -0.2591  0.3053 -0.6678
   94MOL   C48547171   6.612   5.347   2.823  0.2983  0.8841 -0.5230
   94MOL   H48647172   6.911   6.213   2.626 -0.1777 -0.6529  0.9600
   94MOL   H48747173   6.755   6.298   2.644  0.6757 -0.5629  1.2197
   94MOL   H48847174   6.691   6.103   2.743  0.2670 -0.9131 -0.1671
   94MOL   H48947175   6.656   5.825   2.647  1.1941 -0.3263 -1.1379
   94MOL   H49047176   6.722   5.862   2.813  0.7567  0.2824  0.2091
   94MOL   H49147177   6.936   5.755   2.728  0.0170  0.3210 -1.8542
   94MOL   H49247178   6.848   5.720   2.588  2.5555  2.0606 -0.6416
   94MOL   H49347179   6.830   5.609   2.867 -1.4127 -0.1157  1.4948
   94MOL   H49447180   6.671   5.637   2.788  0.4153  0.7065  1.2822
   94MOL   H49547181   6.744   5.496   2.596  1.2705  0.2233 -0.1557
   94MOL   H49647182   6.904   5.486   2.680 -0.1261 -2.3686  0.5541
   94MOL   H49747183   6.764   5.270   2.694  0.2563 -0.0900 -0.1076
   94MOL   H49847184   6.828   5.332   2.838 -0.7032 -1.1691 -0.6676
   94MOL   H49947185   6.594   5.420   2.901 -0.0112  0.5958 -0.3261
   94MOL   H50047186   6.533   5.352   2.748 -1.5336  0.1594  1.3098
   94MOL   H50147187   6.605   5.246   2.863 -0.9468  0.9800 -0.4763
   94MOL   H50247188   6.638   6.070   2.585  0.0208 -0.5800 -0.3257
   95MOL     C147189   1.697   7.455   6.465  0.7195 -0.7964 -0.1325
   95MOL     C247190   1.548   7.438   6.429 -0.5388 -0.3021 -0.2563
   95MOL     O347191   1.514   7.342   6.525 -0.3009  0.6884  0.0828
   95MOL     C447192   1.436   7.394   6.636  0.0556 -0.7868 -0.3219
   95MOL     C547193   1.422   7.289   6.744 -0.1657 -0.5176  0.0701
   95MOL     C647194   1.337   7.172   6.690  0.0393  0.3165  0.4828
   95MOL     C747195   1.298   7.066   6.791  0.7893 -0.0271  0.0679
   95MOL     C847196   1.188   6.970   6.740 -0.3720 -0.2786  0.4916
   95MOL     C947197   1.144   6.870   6.849  0.2858 -0.0871 -0.4615
   95MOL    H1047198   1.746   7.358   6.458  0.8989 -0.5502 -2.8143
   95MOL    H1147199   1.753   7.506   6.387  0.8799  0.1323  0.5835
   95MOL    H1247200   1.506   7.537   6.448 -0.4078 -0.1989 -0.5050
   95MOL    H1347201   1.350   7.432   6.582  0.8502 -0.1427 -1.1665
   95MOL    H1447202   1.499   7.476   6.670 -2.5446  1.6936 -1.3065
   95MOL    H1547203   1.384   7.336   6.834 -0.7543  1.6324 -1.2662
   95MOL    H1647204   1.525   7.260   6.768  0.6377  0.0260 -2.5591
   95MOL    H1747205   1.239   7.210   6.660 -0.3349  0.8864  2.3283
   95MOL    H1847206   1.391   7.122   6.610 -3.3710 -0.7632 -1.2428
   95MOL    H1947207   1.386   7.003   6.794  0.7846 -0.1619 -2.1161
   95MOL    H2047208   1.291   7.096   6.896  1.2174  0.8301 -0.1431
   95MOL    H2147209   1.218   6.924   6.646  0.7228 -0.4949  0.9395
   95MOL    H2247210   1.101   7.034   6.724 -0.0861  0.1237  0.5371
   95MOL    H2347211   1.049   6.834   6.810 -0.6830 -1.1622  2.7113
   95MOL    H2447212   1.209   6.784   6.862  1.9338  1.1456 -0.3464
   95MOL    H2547213   1.115   6.918   6.943 -0.7219 -3.1330  0.8472
   95MOL    H2647214   1.719   7.490   6.566  0.0589  0.9608 -0.5842
   95MOL    C2747215   1.507   7.376   6.293  0.7682  0.1229  0.0738
   95MOL    C2847216   1.508   7.489   6.183 -0.4178 -0.1462  0.2189
   95MOL    O2947217   1.540   7.426   6.055  0.8964  0.3895 -0.4221
   95MOL    C3047218   1.627   7.494   5.965  0.4070  0.3659 -0.4915
   95MOL    C3147219   1.580   7.439   5.826 -0.0119  0.0316  0.1097
   95MOL    C3247220   1.644   7.304   5.799  0.0887  0.8327 -0.0636
   95MOL    C3347221   1.644   7.263   5.650 -0.3541  0.1782 -0.0980
   95MOL    C3447222   1.719   7.133   5.643  0.5574  0.3421  0.3185
   95MOL    C3547223   1.699   7.056   5.514 -0.1601  0.1700  0.6424
   95MOL    H3647224   1.582   7.300   6.271  0.4947  0.7443 -3.1939
   95MOL    H3747225   1.403   7.342   6.295  0.8944 -0.3251 -0.6667
   95MOL    H3847226   1.587   7.560   6.207  1.2587 -1.7659 -0.4299
   95MOL    H3947227   1.732   7.489   5.992  0.5677  0.9080 -1.0107
   95MOL    H4047228   1.607   7.601   5.961  1.1386  0.4661 -1.6565
   95MOL    H4147229   1.601   7.518   5.753  1.8689 -0.6081 -0.0775
   95MOL    H4247230   1.477   7.409   5.810 -0.1046  1.5951 -2.4610
   95MOL    H4347231   1.748   7.294   5.831 -0.0776 -0.7211  0.0223
   95MOL    H4447232   1.600   7.222   5.855  1.5304  0.6469  0.8219
   95MOL    H4547233   1.539   7.258   5.623  0.3249 -0.9171 -2.6629
   95MOL    H4647234   1.707   7.337   5.601  1.5603 -0.7515  0.8738
   95MOL    H4747235   1.827   7.137   5.662  0.6739  1.2938 -0.4854
   95MOL    H4847236   1.686   7.062   5.718 -1.2836 -0.1271 -0.9119
   95MOL    H4947237   1.730   7.123   5.434 -2.6302  0.6390  0.0333
   95MOL    H5047238   1.755   6.963   5.501 -0.6816  0.1267 -1.4143
   95MOL    H5147239   1.599   7.035   5.478  0.6941 -0.0701 -1.6863
   95MOL    C5247240   1.366   7.554   6.153  0.1961  0.3291  0.4311
   95MOL    C5347241   1.301   7.619   6.273  0.0746  0.4357 -0.3465
   95MOL    O5447242   1.386   7.729   6.320 -0.1181  0.1312  0.2333
   95MOL    C5547243   1.390   0.069   6.244  0.3440 -0.3218  0.5777
   95MOL    C5647244   1.440   0.180   6.333  0.5443  1.0138 -0.5854
   95MOL    C5747245   1.332   0.253   6.423  0.3635 -0.4676 -0.8570
   95MOL    C5847246   1.395   0.372   6.500 -0.1810  0.3726  0.0077
   95MOL    C5947247   1.296   0.445   6.598 -0.6746 -0.5082 -0.0849
   95MOL    C6047248   1.247   0.359   6.715  0.1800  0.1992  0.2309
   95MOL    H6147249   1.302   7.476   6.112  0.2330  0.1445  0.7242
   95MOL    H6247250   1.381   7.630   6.076  0.1080  1.4386  1.4914
   95MOL    H6347251   1.308   7.539   6.346  2.4293  0.5957 -0.3501
   95MOL    H6447252   1.294   0.088   6.197  0.7078 -0.1970 -0.1230
   95MOL    H6547253   1.466   0.047   6.169  1.5985  0.3986  1.6184
   95MOL    H6647254   1.481   0.252   6.262  1.2941  1.3307  0.1633
   95MOL    H6747255   1.523   0.155   6.399 -0.2714 -1.3188 -0.3963
   95MOL    H6847256   1.249   0.292   6.364  1.3747  0.7084 -1.5282
   95MOL    H6947257   1.286   0.173   6.482  1.5779  0.2848  1.1664
   95MOL    H7047258   1.483   0.336   6.554  0.9921 -0.5890 -2.5069
   95MOL    H7147259   1.420   0.445   6.424 -1.2831  3.4721  2.4804
   95MOL    H7247260   1.341   0.534   6.641 -3.1540  1.1208 -0.7467
   95MOL    H7347261   1.206   0.482   6.549  0.2713  0.3111 -1.2068
   95MOL    H7447262   1.203   0.267   6.677 -1.1733  0.6290  0.7542
   95MOL    H7547263   1.334   0.322   6.771  0.2093 -2.6525 -1.5656
   95MOL    H7647264   1.187   0.418   6.783  1.3245  2.5799 -0.7851
   95MOL    C7747265   1.153   7.651   6.250  0.4380 -0.3765 -0.5224
   95MOL    C7847266   1.089   7.712   6.376  0.2462  0.0582 -0.0510
   95MOL    O7947267   1.017   7.613   6.445  0.1118 -0.3684  0.0477
   95MOL    C8047268   1.095   7.514   6.514  0.5525 -0.0931  0.3320
   95MOL    C8147269   1.016   7.436   6.613 -0.4563  0.4388 -0.1668
   95MOL    C8247270   0.989   7.504   6.744 -0.0518 -0.1909  0.1483
   95MOL    C8347271   0.932   7.411   6.850  0.2743  0.0384  0.9183
   95MOL    C8447272   1.031   7.312   6.902  0.5177  0.5465 -0.2743
   95MOL    C8547273   0.965   7.193   6.967 -0.5149  0.1000 -0.3400
   95MOL    H8647274   1.096   7.560   6.231 -0.8770  0.1190  0.9544
   95MOL    H8747275   1.145   7.706   6.157 -0.8350  1.0910  0.4351
   95MOL    H8847276   1.167   7.748   6.443  0.5851  1.7473 -1.2961
   95MOL    H8947277   1.182   7.561   6.561  0.4201  0.7089 -0.2275
   95MOL    H9047278   1.132   7.447   6.437  1.0180  0.9606 -0.3732
   95MOL    H9147279   1.077   7.345   6.616  0.5895  1.1605  0.8734
   95MOL    H9247280   0.922   7.399   6.573 -0.1994 -3.2239  2.3489
   95MOL    H9347281   1.079   7.555   6.777 -0.7535  1.4625 -0.4482
   95MOL    H9447282   0.926   7.592   6.732  0.1794 -0.2351 -1.6314
   95MOL    H9547283   0.894   7.470   6.933  0.2974  1.2375  0.0849
   95MOL    H9647284   0.847   7.352   6.818  1.0575 -1.4537  1.5418
   95MOL    H9747285   1.084   7.273   6.815  0.5190  0.9050 -0.4341
   95MOL    H9847286   1.095   7.362   6.974 -1.9550  1.7964  1.1141
   95MOL    H9947287   1.051   7.131   6.993 -1.5133 -1.0088  0.3824
   95MOL   H10047288   0.906   7.211   7.057 -2.1331 -0.8045 -1.1863
   95MOL   H10147289   0.906   7.147   6.888  1.0598  0.8314 -1.9818
   95MOL   C10247290   0.976   0.043   6.352 -0.1497 -0.1441  0.2142
   95MOL   C10347291   0.914   0.089   6.483  0.8585  0.1061 -0.1072
   95MOL   O10447292   0.863   0.220   6.451 -0.3942 -0.1938 -0.4325
   95MOL   C10547293   0.953   0.332   6.447  0.1838  0.6140 -0.4385
   95MOL   C10647294   0.855   0.451   6.411 -0.1434  0.0483  0.4152
   95MOL   C10747295   0.759   0.476   6.528  0.7105  0.7006 -0.3527
   95MOL   C10847296   0.820   0.523   6.653  0.5381 -0.0692 -0.4024
   95MOL   C10947297   0.725   0.579   6.760  0.0203 -0.6373 -0.0914
   95MOL   C11047298   0.606   0.494   6.801  0.2508  0.1624  0.4757
   95MOL   H11147299   1.020   0.123   6.293  1.1164 -1.5111 -0.7421
   95MOL   H11247300   0.899   7.774   6.291  0.9674 -1.7748 -0.0034
   95MOL   H11347301   0.996   0.105   6.553  0.5402  2.6899 -0.2537
   95MOL   H11447302   1.033   0.321   6.373  0.0094 -1.4025 -0.3507
   95MOL   H11547303   1.000   0.349   6.544 -0.1623 -2.0957  0.2331
   95MOL   H11647304   0.801   0.423   6.321 -1.7875 -2.4883  2.1333
   95MOL   H11747305   0.914   0.539   6.385 -0.4699 -0.1836 -1.1032
   95MOL   H11847306   0.688   0.551   6.496  2.5211  1.8952 -1.6219
   95MOL   H11947307   0.704   0.382   6.534  1.5459  0.2168 -0.1433
   95MOL   H12047308   0.881   0.445   6.697  1.9570 -0.0865 -2.3181
   95MOL   H12147309   0.893   0.601   6.631 -0.3975  0.9717  0.1542
   95MOL   H12247310   0.792   0.594   6.844  0.0630 -0.5159 -0.1464
   95MOL   H12347311   0.690   0.682   6.748  0.0033 -0.6782 -0.4043
   95MOL   H12447312   0.551   0.469   6.711  0.7981 -3.2298  1.0088
   95MOL   H12547313   0.641   0.399   6.843  0.1892 -0.0779 -0.0051
   95MOL   H12647314   0.539   0.535   6.876 -0.0502 -0.0829  0.3413
   95MOL   C12747315   0.787   0.016   6.536 -0.9714 -0.7007 -0.1006
   95MOL   C12847316   0.735   0.077   6.671  0.2633  0.5663 -0.1866
   95MOL   O12947317   0.818   0.022   6.765 -0.0826 -0.3489  0.1872
   95MOL   C13047318   0.859   0.108   6.871 -0.0168 -0.1299 -0.3853
   95MOL   C13147319   0.977   0.057   6.965  0.1222 -0.5927  0.2986
   95MOL   C13247320   1.121   0.043   6.902  0.0941 -0.3784  0.7118
   95MOL   C13347321   1.224   7.767   6.994  0.1628 -0.8991 -0.4511
   95MOL   C13447322   1.372   0.011   6.957  0.1875 -0.5002  0.3405
   95MOL   C13547323   1.476   7.702   7.028  0.8838 -0.0854  0.1265
   95MOL   H13647324   0.708   0.030   6.462 -3.0355 -1.1196  1.9683
   95MOL   H13747325   0.806   7.687   6.549 -3.3437 -1.1081  0.2687
   95MOL   H13847326   0.736   0.186   6.668  2.7784  0.5752  0.6491
   95MOL   H13947327   0.780   0.137   6.941  0.3658  0.5427 -0.2306
   95MOL   H14047328   0.891   0.205   6.835  2.1287 -0.9776 -0.8380
   95MOL   H14147329   0.947   7.737   7.004  1.2577 -1.4901 -1.0281
   95MOL   H14247330   0.971   0.125   7.050 -0.6704 -1.8646  1.2780
   95MOL   H14347331   1.104   0.005   6.801  0.2916 -0.6472  0.7784
   95MOL   H14447332   1.156   0.145   6.882  0.0374 -0.1608  1.6982
   95MOL   H14547333   1.224   0.037   7.092 -1.1933 -1.9076  0.0596
   95MOL   H14647334   1.198   7.662   7.007 -0.7274 -0.6700 -0.2918
   95MOL   H14747335   1.387   7.771   6.850  0.6518  0.2854  0.2781
   95MOL   H14847336   1.393   0.116   6.978 -0.2772 -0.6967  1.8538
   95MOL   H14947337   1.490   7.600   6.993 -0.5081  0.1035 -1.0306
   95MOL   H15047338   1.577   7.741   7.015  0.9048 -0.0540  0.3995
   95MOL   H15147339   1.442   7.695   7.131  1.2849 -0.6841  0.2153
   95MOL   C15247340   0.596   0.016   6.709  0.0652  0.7571 -0.6602
   95MOL   C15347341   0.481   0.102   6.647 -0.3181  0.7587  0.1845
   95MOL   O15447342   0.474   0.091   6.506  0.3430  0.2735 -0.3403
   95MOL   C15547343   0.418   0.200   6.437 -0.7113  0.4313 -0.2098
   95MOL   C15647344   0.436   0.199   6.289 -0.5122  0.2648  0.6683
   95MOL   C15747345   0.582   0.235   6.265  0.5018 -0.0327  0.1921
   95MOL   C15847346   0.627   0.220   6.115  0.7953  0.1696  0.2115
   95MOL   C15947347   0.663   0.074   6.072  0.1836 -0.1354  0.2496
   95MOL   C16047348   0.661   0.069   5.917 -0.5370 -0.5434 -0.4708
   95MOL   H16147349   0.590   7.690   6.676  3.4398  0.0705  0.7480
   95MOL   H16247350   0.582   0.010   6.817 -1.5310  3.1908 -0.6884
   95MOL   H16347351   0.499   0.207   6.670 -0.0111  1.2863 -2.3456
   95MOL   H16447352   0.449   0.293   6.485 -2.4286  1.5947 -1.3042
   95MOL   H16547353   0.311   0.203   6.458 -0.3087  0.1437  1.9331
   95MOL   H16647354   0.373   0.278   6.247 -0.1621  0.3371  0.2786
   95MOL   H16747355   0.408   0.099   6.258 -0.4711  0.0398  1.3490
   95MOL   H16847356   0.595   0.334   6.310  1.3303 -0.0985  0.1195
   95MOL   H16947357   0.653   0.180   6.327  1.0970  0.1509 -0.3216
   95MOL   H17047358   0.549   0.264   6.054  1.0799  2.6089  1.4977
   95MOL   H17147359   0.713   0.283   6.091 -1.2498  2.1289 -2.1715
   95MOL   H17247360   0.761   0.044   6.110 -0.4253 -1.3692  0.9100
   95MOL   H17347361   0.588   0.002   6.106 -1.6526 -0.0953 -3.4498
   95MOL   H17447362   0.570   0.111   5.874 -1.5730 -0.2536  1.9105
   95MOL   H17547363   0.751   0.116   5.878 -1.2967  0.7443 -0.6989
   95MOL   H17647364   0.685   7.747   5.880 -1.1175  0.4981 -3.8215
   95MOL   C17747365   0.341   0.068   6.709 -0.2197  0.0577  0.1967
   95MOL   C17847366   0.324   0.123   6.858  0.8438  0.6160 -0.0439
   95MOL   O17947367   0.300   0.261   6.846  0.2631  0.0210  0.4864
   95MOL   C18047368   0.298   0.335   6.968  0.6181 -0.2827 -0.0290
   95MOL   C18147369   0.182   0.434   6.958 -0.0656  0.0137 -0.2324
   95MOL   C18247370   0.035   0.376   6.955  0.0337 -0.0630  0.3789
   95MOL   C18347371   7.700   0.485   6.947 -0.8042  0.5400 -0.4029
   95MOL   C18447372   7.559   0.433   6.976  0.1917 -0.0516  0.4636
   95MOL   C18547373   7.452   0.519   6.910 -0.3185  0.2093  0.4840
   95MOL   H18647374   0.267   0.119   6.647  1.9051  1.2898 -1.3840
   95MOL   H18747375   0.315   7.741   6.687  2.6968 -0.8318  0.7327
   95MOL   H18847376   0.414   0.123   6.920  1.1560  4.4926 -0.4034
   95MOL   H18947377   0.389   0.395   6.972  1.0068 -0.9020  0.5240
   95MOL   H19047378   0.294   0.281   7.063 -0.3626  0.4276  0.3443
   95MOL   H19147379   0.197   0.494   6.868 -1.5005  0.2161 -0.3463
   95MOL   H19247380   0.181   0.509   7.037 -1.5696  0.3362 -0.5446
   95MOL   H19347381   0.034   0.314   6.865 -1.5231  2.0900 -1.1240
   95MOL   H19447382   0.023   0.306   7.038  1.1319 -2.3381 -1.3395
   95MOL   H19547383   7.718   0.555   7.029 -0.0160 -1.0684  0.8051
   95MOL   H19647384   7.712   0.546   6.857 -0.6169  2.3430  0.8036
   95MOL   H19747385   7.553   0.332   6.935 -3.0939  0.6007 -0.9039
   95MOL   H19847386   7.532   0.432   7.081  1.2749  2.4643  0.8089
   95MOL   H19947387   7.466   0.502   6.804  0.3320 -1.7735  0.8521
   95MOL   H20047388   7.350   0.499   6.944 -0.4269  2.6592  1.7028
   95MOL   H20147389   7.469   0.621   6.945 -0.4852  0.0822  0.9467
   95MOL   C20247390   0.197   0.057   6.928 -1.0149  0.4405  0.3949
   95MOL   C20347391   0.211   7.677   6.949 -0.1508 -0.3514 -0.1535
   95MOL   O20447392   0.101   7.632   7.030  0.0649 -0.4959  0.3559
   95MOL   C20547393   7.750   7.610   6.958  0.3449  0.0883  0.5679
   95MOL   C20647394   7.755   7.479   6.877 -0.3663  0.0264 -0.4799
   95MOL   C20747395   0.012   7.351   6.953  0.2572  0.3372  0.1992
   95MOL   C20847396   0.016   7.231   6.860  0.4953 -0.1801  0.5583
   95MOL   C20947397   0.020   7.100   6.928 -0.3905  0.1320 -0.1502
   95MOL   C21047398   0.032   6.984   6.829  0.0634 -0.1469  0.0593
   95MOL   H21147399   0.168   0.109   7.020  3.9478  2.4498  1.0006
   95MOL   H21247400   0.121   0.075   6.853  0.1184  0.5811 -0.7303
   95MOL   H21347401   0.213   7.637   6.848 -0.8442  2.0009 -1.1351
   95MOL   H21447402   7.725   7.686   6.885  1.4830 -0.0382  0.0269
   95MOL   H21547403   7.670   7.612   7.031 -0.5193 -2.2639 -0.2695
   95MOL   H21647404   0.034   7.484   6.784  2.3401  0.0026  1.0730
   95MOL   H21747405   7.653   7.464   6.843 -0.3550 -3.0044  0.6346
   95MOL   H21847406   0.108   7.367   7.002 -0.4071  1.3279  1.1910
   95MOL   H21947407   7.715   7.331   7.030 -0.4944  0.1262 -0.5739
   95MOL   H22047408   7.699   7.222   6.807  0.6131  0.7473  0.1801
   95MOL   H22147409   0.098   7.235   6.789 -1.1297 -0.0547 -1.3453
   95MOL   H22247410   0.102   7.101   7.000 -0.1456 -2.9729 -0.3450
   95MOL   H22347411   7.704   7.090   6.983  1.1944 -0.4113  2.5319
   95MOL   H22447412   0.033   6.885   6.874 -3.3596 -0.2141  0.1214
   95MOL   H22547413   7.729   6.990   6.755 -0.1750 -0.2927  0.3046
   95MOL   H22647414   0.125   6.994   6.774  0.8510 -0.2501  1.3747
   95MOL   C22747415   0.339   7.644   7.025 -0.0795 -0.1715 -0.0527
   95MOL   C22847416   0.437   7.543   6.952 -0.5640 -0.8425 -0.1444
   95MOL   O22947417   0.526   7.508   7.055  0.0295  0.1767 -0.3841
   95MOL   C23047418   0.641   7.588   7.058  0.0452  0.3355 -0.0741
   95MOL   C23147419   0.730   7.529   7.173  0.1620  0.1892  0.2307
   95MOL   C23247420   0.658   7.512   7.315 -0.0025 -0.3370  0.1817
   95MOL   C23347421   0.751   7.436   7.412 -0.7670 -0.7917 -0.1640
   95MOL   C23447422   0.767   7.294   7.377 -0.2017  0.8496  0.0259
   95MOL   C23547423   0.853   7.227   7.479 -0.1925 -0.3000  0.0085
   95MOL   H23647424   0.395   7.726   7.069  0.3618  0.4811 -1.7758
   95MOL   H23747425   0.306   7.595   7.116  0.5949  0.0782  0.3358
   95MOL   H23847426   0.488   7.585   6.866  1.9929  0.6155  1.9965
   95MOL   H23947427   0.618   7.694   7.072  3.1707  0.9293  0.8416
   95MOL   H24047428   0.705   7.587   6.970 -0.5775  1.0199 -0.5429
   95MOL   H24147429   0.830   7.566   7.198  0.4602 -0.7600  0.4620
   95MOL   H24247430   0.750   7.427   7.140 -0.4908  0.2896 -0.4645
   95MOL   H24347431   0.620   7.604   7.359 -0.8486 -0.0513 -1.1215
   95MOL   H24447432   0.565   7.458   7.296 -1.3957  2.0619 -0.0313
   95MOL   H24547433   0.844   7.493   7.414 -1.0674 -0.2247 -1.7193
   95MOL   H24647434   0.712   7.456   7.512 -1.4927 -0.1483 -0.5608
   95MOL   H24747435   0.670   7.246   7.380  0.7121 -0.9815  1.0780
   95MOL   H24847436   0.802   7.287   7.273 -2.1559  0.7595 -0.6384
   95MOL   H24947437   0.849   7.119   7.471  0.0594 -0.2243 -1.3341
   95MOL   H25047438   0.956   7.263   7.491 -0.4575  0.1613  0.9591
   95MOL   H25147439   0.815   7.233   7.580 -0.0627  1.0293 -0.0120
   95MOL   C25247440   0.377   7.404   6.919  0.0543 -0.8439 -0.9027
   95MOL   C25347441   0.486   7.321   6.850  0.0475  0.5203 -0.0333
   95MOL   O25447442   0.475   7.368   6.715 -0.4206  0.2982 -0.1506
   95MOL   C25547443   0.596   7.371   6.639  0.1353  0.7361 -0.5081
   95MOL   C25647444   0.563   7.420   6.500  0.2921  0.5283 -0.4265
   95MOL   C25747445   0.690   7.416   6.413  0.0422 -0.4250  0.0935
   95MOL   C25847446   0.661   7.428   6.263  0.0156  0.1156  0.1778
   95MOL   C25947447   0.793   7.410   6.179  0.0659  0.0516 -0.1119
   95MOL   C26047448   0.769   7.465   6.039  0.0441  0.5213 -0.3078
   95MOL   H26147449   0.344   7.366   7.016  2.0947 -0.5486 -0.0742
   95MOL   H26247450   0.293   7.403   6.849 -1.5945 -0.2631  1.0078
   95MOL   H26347451   0.588   7.340   6.885  1.1655  2.2390 -3.9409
   95MOL   H26447452   0.647   7.275   6.640  0.6568  1.0045  1.0462
   95MOL   H26547453   0.660   7.445   6.687  0.0022 -0.6162  1.8368
   95MOL   H26647454   0.515   7.518   6.499 -0.7374  0.0302 -0.3690
   95MOL   H26747455   0.495   7.357   6.442 -0.2496  2.6118 -2.1218
   95MOL   H26847456   0.757   7.499   6.437  0.2346 -0.1138 -1.4775
   95MOL   H26947457   0.739   7.321   6.433  0.1934 -0.1156  1.2650
   95MOL   H27047458   0.590   7.354   6.227 -1.7708  1.8780  0.0074
   95MOL   H27147459   0.609   7.522   6.246 -1.1436 -0.2100  1.8160
   95MOL   H27247460   0.885   7.459   6.211 -1.2078  2.3391  0.1124
   95MOL   H27347461   0.829   7.308   6.162 -1.3553 -1.1664  3.6555
   95MOL   H27447462   0.838   7.442   5.957 -1.8640 -1.6286 -1.3779
   95MOL   H27547463   0.668   7.442   6.005 -0.0682 -0.1750  0.4711
   95MOL   H27647464   0.767   7.573   6.043 -0.2638  0.5275 -0.6295
   95MOL   C27747465   0.455   7.168   6.844 -0.9813  0.0608  0.3306
   95MOL   C27847466   0.487   7.085   6.971 -0.2950  0.5313  0.3937
   95MOL   O27947467   0.395   7.113   7.075  0.4932  0.2272 -0.0702
   95MOL   C28047468   0.452   7.177   7.194 -0.0841  0.6976 -0.0199
   95MOL   C28147469   0.350   7.210   7.292 -0.2281 -0.1502 -0.6085
   95MOL   C28247470   0.279   7.090   7.358  0.0025 -0.0407  0.6696
   95MOL   C28347471   0.191   7.125   7.473 -0.3093 -0.0178 -0.2761
   95MOL   C28447472   0.148   7.004   7.553  0.7184  0.0084  0.0815
   95MOL   C28547473   0.034   7.055   7.640 -0.0022 -0.4232  0.2705
   95MOL   H28647474   0.351   7.155   6.814 -0.0017  1.0159 -3.7403
   95MOL   H28747475   0.514   7.128   6.762  0.6412  0.0093  1.4879
   95MOL   H28847476   0.589   7.113   6.997 -0.2912  1.1771 -0.2861
   95MOL   H28947477   0.491   7.270   7.151 -2.1616  2.4233  1.7151
   95MOL   H29047478   0.529   7.111   7.232 -0.9345 -0.0856  0.3787
   95MOL   H29147479   0.282   7.280   7.243  0.4992 -0.3473 -1.9290
   95MOL   H29247480   0.395   7.267   7.374 -0.8329  0.5344 -0.7396
   95MOL   H29347481   0.224   7.044   7.276  1.0320 -1.6395  0.8381
   95MOL   H29447482   0.362   7.029   7.396  1.2236  0.8759 -0.4935
   95MOL   H29547483   0.235   7.205   7.532  0.9615 -1.7037  1.1020
   95MOL   H29647484   0.102   7.166   7.425  0.0752  0.5055 -0.5488
   95MOL   H29747485   0.114   6.920   7.492 -0.0666 -0.0787  0.6189
   95MOL   H29847486   0.236   6.975   7.610  1.3977  0.2281 -0.8479
   95MOL   H29947487   7.725   7.106   7.597  0.7867  0.7763  0.0733
   95MOL   H30047488   7.755   6.978   7.691  0.6107 -1.7678 -1.0390
   95MOL   H30147489   0.063   7.131   7.712  0.1223  0.3476 -0.5784
   95MOL   C30247490   0.487   6.930   6.942  0.9588 -0.0153 -0.1750
   95MOL   C30347491   0.537   6.825   7.044 -0.2264 -0.3585 -0.1230
   95MOL   O30447492   0.678   6.840   7.032 -0.7303 -0.2573 -0.0178
   95MOL   C30547493   0.738   6.850   7.168 -0.1740 -0.2847 -0.2526
   95MOL   C30647494   0.890   6.859   7.156  0.0197 -0.0169  0.0886
   95MOL   C30747495   0.979   6.857   7.277 -0.0462  0.8253  0.1645
   95MOL   C30847496   0.961   6.733   7.366  0.5782 -0.1342 -0.7729
   95MOL   C30947497   0.980   6.596   7.304 -0.9126 -0.9850  0.1911
   95MOL   C31047498   0.896   6.492   7.387  0.1603 -0.6222 -0.1936
   95MOL   H31147499   0.385   6.918   6.906  1.0041  0.8433 -0.6016
   95MOL   H31247500   0.544   6.910   6.852 -0.1328  3.8088 -1.7911
   95MOL   H31347501   0.503   6.846   7.146 -0.8774 -3.0697  0.2565
   95MOL   H31447502   0.706   6.764   7.227  0.0806 -1.5443 -1.9038
   95MOL   H31547503   0.697   6.935   7.222 -1.6507 -1.5002  0.5687
   95MOL   H31647504   0.914   6.949   7.100 -2.1344  0.4343 -0.1451
   95MOL   H31747505   0.915   6.779   7.087 -0.0425 -1.5548  1.7972
   95MOL   H31847506   1.084   6.857   7.246  0.1125  1.3391  0.6929
   95MOL   H31947507   0.965   6.951   7.330  1.3739  1.2233 -0.1203
   95MOL   H32047508   1.012   6.729   7.462 -1.8414 -1.8356  0.4828
   95MOL   H32147509   0.860   6.747   7.405  0.9685  1.4132 -0.2720
   95MOL   H32247510   0.957   6.600   7.197  1.1091  0.2623 -0.2079
   95MOL   H32347511   1.087   6.579   7.308 -0.5903  1.4292  2.6219
   95MOL   H32447512   0.791   6.512   7.363 -0.2735 -1.6490  0.8478
   95MOL   H32547513   0.920   6.388   7.370 -1.3357 -1.3578  2.0170
   95MOL   H32647514   0.909   6.509   7.494 -3.8317  3.4208 -0.1680
   95MOL   C32747515   0.496   6.676   7.025  0.1938  0.7547 -0.2390
   95MOL   C32847516   0.341   6.649   7.068 -0.7337 -0.3694  0.1262
   95MOL   O32947517   0.307   6.523   7.024  0.2793  0.2038 -0.1171
   95MOL   C33047518   0.253   6.533   6.895 -0.4133  0.1105  0.2435
   95MOL   C33147519   0.202   6.395   6.860  0.9251  0.7597  0.6964
   95MOL   C33247520   0.310   6.285   6.859  0.8765 -0.2488  0.4684
   95MOL   C33347521   0.245   6.141   6.858 -0.3583 -0.1333 -0.5899
   95MOL   C33447522   0.347   6.024   6.856  0.9684 -0.0234 -0.1747
   95MOL   C33547523   0.284   5.888   6.873  0.0236  0.1034  1.0154
   95MOL   H33647524   0.560   6.609   7.082 -0.1401  1.1889  0.6432
   95MOL   H33747525   0.503   6.642   6.921 -1.9983 -0.9627  0.1343
   95MOL   H33847526   0.276   6.727   7.030 -1.6499 -0.7473  0.8979
   95MOL   H33947527   0.309   6.590   6.822 -0.2651  1.3466  1.3096
   95MOL   H34047528   0.153   6.578   6.895 -0.9263 -0.9643 -1.8848
   95MOL   H34147529   0.156   6.415   6.763 -0.3866  1.5886  1.4885
   95MOL   H34247530   0.125   6.365   6.931  1.5265 -1.2171  0.5462
   95MOL   H34347531   0.376   6.311   6.776  3.8895  0.8016  3.1292
   95MOL   H34447532   0.376   6.290   6.945 -0.7888 -1.5028  1.8626
   95MOL   H34547533   0.194   6.137   6.955  2.5287  1.0046  1.0470
   95MOL   H34647534   0.169   6.132   6.781 -1.6626 -0.1748  0.6933
   95MOL   H34747535   0.399   6.023   6.761  0.5619  0.2048 -0.4027
   95MOL   H34847536   0.426   6.042   6.929  1.3749  1.1562 -0.8849
   95MOL   H34947537   0.358   5.810   6.857  1.6833  1.9144 -0.4774
   95MOL   H35047538   0.249   5.875   6.976  0.3601 -1.6534  0.9173
   95MOL   H35147539   0.198   5.861   6.813  0.8827  2.0585 -1.1738
   95MOL   C35247540   0.321   6.635   7.218  0.0428  0.4688 -0.1444
   95MOL   C35347541   0.179   6.617   7.268 -0.8416  0.4999 -0.6470
   95MOL   O35447542   0.102   6.727   7.237  0.5092  0.3074 -0.1039
   95MOL   C35547543   0.001   6.701   7.144 -0.1361 -0.4494  1.1559
   95MOL   C35647544   7.677   6.818   7.158 -0.6186 -0.3779 -0.4121
   95MOL   C35747545   7.571   6.792   7.271  1.2918 -0.2709 -0.1964
   95MOL   C35847546   7.468   6.907   7.285  0.5560  0.3739 -0.6809
   95MOL   C35947547   7.390   6.913   7.413 -0.1807 -0.6476  0.6884
   95MOL   C36047548   7.317   7.055   7.431 -0.5855  0.1281 -0.1961
   95MOL   H36147549   0.381   6.549   7.249  1.7897  1.8657  0.4878
   95MOL   H36247550   0.371   6.722   7.261  0.8021  0.0412 -0.1514
   95MOL   H36347551   0.145   6.523   7.225  0.4678  0.1503 -0.9290
   95MOL   H36447552   7.723   6.610   7.168 -0.0163 -1.5950 -2.6077
   95MOL   H36547553   0.032   6.688   7.040  1.7442 -0.9405  1.7596
   95MOL   H36647554   7.635   6.840   7.060 -0.5688 -3.4087 -1.1895
   95MOL   H36747555   7.722   6.912   7.189 -0.5490 -0.6523  0.3276
   95MOL   H36847556   7.524   6.694   7.264  2.6695 -1.0546  1.1509
   95MOL   H36947557   7.616   6.773   7.369  1.5417  0.0454 -0.2482
   95MOL   H37047558   7.515   7.005   7.279 -0.3167  0.9085  0.8851
   95MOL   H37147559   7.403   6.910   7.198 -1.9392  1.9026  1.1692
   95MOL   H37247560   7.318   6.831   7.416  0.2858 -0.9876  2.8254
   95MOL   H37347561   7.454   6.903   7.501  0.6431 -0.7492  0.0892
   95MOL   H37447562   7.259   7.071   7.340  1.0592  1.0698 -1.1074
   95MOL   H37547563   7.238   7.048   7.505  1.0974  0.5780  1.7076
   95MOL   H37647564   7.380   7.142   7.452 -1.9277  0.8471  0.8853
   95MOL   C37747565   0.173   6.616   7.425  0.5401 -0.0453 -0.2677
   95MOL   C37847566   0.040   6.540   7.473 -0.4220  0.1427  0.1071
   95MOL   O37947567   0.039   6.574   7.611 -0.2233  0.0830  0.4562
   95MOL   C38047568   7.700   6.621   7.667 -0.1230 -0.6927  0.4410
   95MOL   C38147569   7.743   6.667   0.036 -0.2675 -0.3616 -0.2862
   95MOL   C38247570   7.644   6.766   0.101 -0.6510  0.3558  0.2955
   95MOL   C38347571   7.686   6.821   0.237 -0.6552  0.4531  0.0018
   95MOL   C38447572   0.045   6.890   0.254  0.1730 -0.1463  0.3231
   95MOL   C38547573   0.065   6.940   0.392 -0.6064  0.3820  0.1129
   95MOL   H38647574   0.258   6.559   7.463  0.0770  0.2162  1.1653
   95MOL   H38747575   0.181   6.717   7.464 -0.4209 -0.2736  0.5521
   95MOL   H38847576   7.738   6.586   7.414 -1.2372 -2.3978 -0.8211
   95MOL   H38947577   7.627   6.541   7.683 -0.3376 -0.3769  1.0802
   95MOL   H39047578   7.663   6.691   7.593 -0.6395 -1.4125  0.0123
   95MOL   H39147579   0.062   6.718   0.030 -0.2874 -0.3114 -0.1726
   95MOL   H39247580   7.776   6.587   0.103 -1.3918  0.3168  1.1130
   95MOL   H39347581   7.612   6.844   0.032  1.4931  0.6929 -0.3769
   95MOL   H39447582   7.569   6.696   0.137  1.1895 -1.3725  0.8559
   95MOL   H39547583   7.612   6.900   0.252  0.5867  1.8923 -1.2867
   95MOL   H39647584   7.667   6.744   0.312  0.4647  0.5370  0.3728
   95MOL   H39747585   0.121   6.816   0.229  0.8714  0.3735  0.8987
   95MOL   H39847586   0.058   6.970   0.181  0.6756  0.9753  1.6286
   95MOL   H39947587   7.765   7.016   0.406 -0.4459  0.2456  1.7933
   95MOL   H40047588   0.062   6.867   0.473 -1.2010  0.4616  0.1635
   95MOL   H40147589   0.162   6.988   0.406 -0.1214 -0.4764 -0.2879
   95MOL   C40247590   0.036   6.393   7.449 -0.3980  0.4204 -0.5957
   95MOL   C40347591   7.680   6.323   7.479 -0.4601 -0.0755  0.1009
   95MOL   O40447592   7.682   6.191   7.426 -0.2399 -0.5089  0.1283
   95MOL   C40547593   7.749   6.099   7.509  0.4946 -0.0943 -0.1094
   95MOL   C40647594   7.691   5.959   7.469 -0.4465  0.2468 -0.2463
   95MOL   C40747595   7.544   5.956   7.475  0.0594  0.1827  0.0521
   95MOL   C40847596   7.490   5.820   7.422 -1.0623  0.0122  0.3334
   95MOL   C40947597   7.333   5.822   7.395 -0.4643 -0.6309  0.3073
   95MOL   C41047598   7.250   5.885   7.508  0.0510  0.3467 -0.9489
   95MOL   H41147599   0.124   6.352   7.499 -2.1466 -0.0746  2.1909
   95MOL   H41247600   0.054   6.367   7.345  0.6822 -1.9540  0.1407
   95MOL   H41347601   7.668   6.319   7.588 -0.3578 -3.7546  0.0511
   95MOL   H41447602   7.714   6.107   7.612  0.2288 -0.4761 -0.1698
   95MOL   H41547603   0.080   6.107   7.503  0.6044 -1.1396  0.4678
   95MOL   H41647604   7.735   5.885   7.536 -0.8650  1.1173  1.0217
   95MOL   H41747605   7.718   5.932   7.367 -0.6661 -0.1864 -0.1868
   95MOL   H41847606   7.509   5.990   7.572 -1.3404  1.7058 -0.9651
   95MOL   H41947607   7.514   6.035   7.406  0.8791  0.6655  0.2397
   95MOL   H42047608   7.561   5.791   7.344  0.1187 -0.9443  1.7440
   95MOL   H42147609   7.514   5.744   7.497  3.2455  1.7345  0.7992
   95MOL   H42247610   7.310   5.875   7.302  3.9040  0.5298 -0.2200
   95MOL   H42347611   7.300   5.721   7.372  0.4726 -0.3528 -2.3758
   95MOL   H42447612   7.274   5.988   7.534 -1.0881  0.1512  0.9673
   95MOL   H42547613   7.145   5.881   7.479  0.0416 -0.6867 -0.7670
   95MOL   H42647614   7.257   5.836   7.605  3.1076 -1.0181 -1.8119
   95MOL   C42747615   7.558   6.395   7.414  0.0889  0.1035  0.9168
   95MOL   C42847616   7.425   6.343   7.452  0.3072  0.2095  0.8647
   95MOL   O42947617   7.407   6.355   7.590  0.0275  0.0196  0.2150
   95MOL   C43047618   7.349   6.247   7.654 -0.0583 -0.3080 -0.6075
   95MOL   C43147619   7.307   6.291   0.018  0.7208 -0.4366  0.0251
   95MOL   C43247620   7.414   6.348   0.118 -0.0481  0.2591 -0.6180
   95MOL   C43347621   7.359   6.438   0.230 -0.3444 -0.5170 -0.4707
   95MOL   C43447622   7.459   6.466   0.346  0.1249 -0.0017  0.0175
   95MOL   C43547623   7.409   6.564   0.443  0.1859 -0.3958  0.1135
   95MOL   H43647624   7.552   6.496   7.453 -1.4771  0.2523  0.2949
   95MOL   H43747625   7.573   6.416   7.308 -2.0036 -0.2314  0.5382
   95MOL   H43847626   7.442   6.239   7.425 -2.6254  0.5173 -2.5169
   95MOL   H43947627   7.423   6.168   7.662  0.8711  0.3432 -2.3452
   95MOL   H44047628   7.264   6.220   7.591 -0.7198 -0.2478  0.2531
   95MOL   H44147629   7.244   6.214   0.063  1.2157  0.3700  2.1528
   95MOL   H44247630   7.226   6.363   0.005 -2.1777 -3.9191 -2.6942
   95MOL   H44347631   7.461   6.259   0.161  1.8162  1.9834  1.0706
   95MOL   H44447632   7.503   6.393   0.074 -0.5065  1.6391 -0.1800
   95MOL   H44547633   7.328   6.528   0.177  0.8145  1.3569  1.9034
   95MOL   H44647634   7.276   6.385   0.275 -1.6761  0.2532 -1.9660
   95MOL   H44747635   7.482   6.373   0.397  0.5804 -0.3055 -0.7306
   95MOL   H44847636   7.556   6.498   0.307  1.0998 -3.1953 -0.3076
   95MOL   H44947637   7.334   6.516   0.506 -0.9800  0.3831 -0.6539
   95MOL   H45047638   7.496   6.595   0.500 -0.6080 -1.9977  2.2629
   95MOL   H45147639   7.364   6.646   0.387  2.5826  1.0619  0.2575
   95MOL   C45247640   7.313   6.415   7.383 -0.0060 -0.2613 -0.1868
   95MOL   C45347641   7.312   6.404   7.225  0.1527  0.0220 -0.2131
   95MOL   O45447642   7.201   6.478   7.175 -0.3839  0.0889 -0.1456
   95MOL   C45547643   7.206   6.531   7.039  0.4382  0.5711  0.3336
   95MOL   C45647644   7.090   6.629   7.015 -0.3722  0.1744 -0.2977
   95MOL   C45747645   6.949   6.563   7.007  0.6881  0.1124  0.6165
   95MOL   C45847646   6.835   6.653   6.961  0.4445  0.2212 -0.3507
   95MOL   C45947647   6.708   6.571   6.944 -0.2618 -0.0293 -0.3149
   95MOL   C46047648   6.583   6.655   6.930  0.6770  0.6091  0.2382
   95MOL   H46147649   7.221   6.385   7.432  0.2259 -0.5371  0.0785
   95MOL   H46247650   7.326   6.521   7.406  0.3417 -0.5826  1.1120
   95MOL   H46347651   7.401   6.441   7.174  0.5413 -0.3019  0.2330
   95MOL   H46447652   7.205   6.451   6.965  0.9671  1.3503 -0.5294
   95MOL   H46547653   7.294   6.587   7.009  1.7719 -1.4953  0.3029
   95MOL   H46647654   7.105   6.662   6.912 -0.6939  1.7630  0.1457
   95MOL   H46747655   7.089   6.723   7.071 -1.0558 -0.4097  0.6800
   95MOL   H46847656   6.962   6.484   6.933 -0.8021 -1.0156  1.5358
   95MOL   H46947657   6.929   6.513   7.102 -0.3614 -2.9179 -1.1154
   95MOL   H47047658   6.837   6.736   7.032 -1.3612  0.6526 -0.7844
   95MOL   H47147659   6.856   6.693   6.861  1.7599 -0.3693 -0.3310
   95MOL   H47247660   6.726   6.493   6.871 -1.3958 -1.2785  0.7100
   95MOL   H47347661   6.696   6.513   7.036 -0.6457 -0.5773 -0.7089
   95MOL   H47447662   6.572   6.701   7.028 -0.7669 -0.0370  0.3830
   95MOL   H47547663   6.596   6.724   6.847 -0.0625  0.9518  0.4099
   95MOL   H47647664   6.499   6.592   6.900  1.0015  0.4986 -0.4604
   95MOL   C47747665   7.285   6.260   7.172  0.1300  0.2025  0.1166
   95MOL   C47847666   7.153   6.202   7.239  0.6853  0.3330  0.1915
   95MOL   O47947667   7.124   6.075   7.176  0.5092 -0.3444  0.1480
   95MOL   C48047668   6.989   6.041   7.200  0.4154  0.0937 -0.2486
   95MOL   C48147669   6.954   5.894   7.196 -0.1231 -0.1972  0.2179
   95MOL   C48247670   6.797   5.875   7.206  0.6848 -0.1316  0.7259
   95MOL   C48347671   6.754   5.730   7.229 -0.2001 -0.7938  0.5669
   95MOL   C48447672   6.598   5.710   7.232 -0.3621 -0.6077 -0.0531
   95MOL   C48547673   6.556   5.571   7.283  0.2166  0.2473 -0.2661
   95MOL   H48647674   7.269   6.256   7.064 -3.5191 -0.4463  0.6017
   95MOL   H48747675   7.367   6.192   7.197 -0.7280 -0.5150  1.0111
   95MOL   H48847676   7.188   6.191   7.341  0.9139  2.4740  0.3816
   95MOL   H48947677   6.923   6.103   7.141  0.0642 -0.4663 -0.4516
   95MOL   H49047678   6.957   6.069   7.300 -0.1404 -0.5052 -0.2532
   95MOL   H49147679   7.002   5.836   7.275  3.5090  2.2908 -0.0493
   95MOL   H49247680   6.996   5.844   7.108  1.1613  0.7797  0.2536
   95MOL   H49347681   6.758   5.950   7.275  1.2581  1.7587 -0.9599
   95MOL   H49447682   6.750   5.903   7.111 -0.8184 -0.0309  1.4868
   95MOL   H49547683   6.799   5.670   7.151  0.1995 -0.1252  0.2771
   95MOL   H49647684   6.793   5.696   7.325  2.8195 -2.2607 -1.1269
   95MOL   H49747685   6.544   5.790   7.284  0.0213 -0.5673  0.2855
   95MOL   H49847686   6.555   5.718   7.133 -0.9378 -2.0833  0.0694
   95MOL   H49947687   6.567   5.554   7.390  0.7267 -2.4611 -0.7018
   95MOL   H50047688   6.450   5.556   7.260  0.4040  2.3760 -2.7542
   95MOL   H50147689   6.607   5.495   7.224 -1.1413 -1.4982  0.7483
   95MOL   H50247690   7.074   6.277   7.226 -0.1966 -0.7457 -0.7779
   96MOL     C147691   0.012   5.452   5.606 -0.0406  0.0880  0.0601
   96MOL     C247692   0.011   5.466   5.753 -0.1176  0.2228  0.7057
   96MOL     O347693   7.659   5.491   5.798 -0.3700  0.3187  0.4538
   96MOL     C447694   7.625   5.460   5.930 -0.6597  0.3163 -0.5058
   96MOL     C547695   7.606   5.306   5.958 -0.0704  0.5312 -0.5627
   96MOL     C647696   7.595   5.275   6.111 -0.0416  0.2064  0.6356
   96MOL     C747697   7.735   5.283   6.190  0.1330  0.4641 -0.4387
   96MOL     C847698   0.020   5.138   6.212 -0.5623  0.0976 -0.2698
   96MOL     C947699   0.072   5.063   6.092  0.4539 -0.0075 -0.4928
   96MOL    H1047700   0.109   5.436   5.557 -0.2267 -1.9453  0.3022
   96MOL    H1147701   7.718   5.374   5.578 -0.3073  0.0417  0.8630
   96MOL    H1247702   0.039   5.368   5.792  1.5304 -0.5832 -2.3344
   96MOL    H1347703   7.528   5.507   5.948 -0.0440  1.3878  0.0371
   96MOL    H1447704   7.688   5.511   6.002 -2.8347  1.5791  0.5723
   96MOL    H1547705   7.677   5.244   5.904 -3.1518 -3.2275 -0.4384
   96MOL    H1647706   7.508   5.284   5.916 -1.4801  0.8535  2.4663
   96MOL    H1747707   7.512   5.332   6.155 -0.2838  0.4992 -0.1940
   96MOL    H1847708   7.559   5.172   6.115 -3.2823  1.2572  0.3902
   96MOL    H1947709   0.022   5.363   6.154 -0.6451 -0.6424 -4.5642
   96MOL    H2047710   7.692   5.317   6.285 -3.4903  0.2428 -1.9266
   96MOL    H2147711   7.729   5.082   6.276 -0.5566  0.5621  0.1491
   96MOL    H2247712   0.104   5.156   6.279  1.2338  0.3548 -2.5320
   96MOL    H2347713   0.115   4.965   6.113 -0.4391 -0.0287  1.3296
   96MOL    H2447714   7.769   5.054   6.019  1.3998 -0.0599 -1.5388
   96MOL    H2547715   0.157   5.119   6.053  2.3833 -1.1766  1.8603
   96MOL    H2647716   7.747   5.535   5.550  2.0702  0.1754 -1.5112
   96MOL    C2747717   0.121   5.565   5.797 -0.4155 -0.5895 -0.3291
   96MOL    C2847718   0.267   5.520   5.782 -0.4606 -0.1179 -0.2317
   96MOL    O2947719   0.341   5.643   5.782  0.4778  0.0786  0.4445
   96MOL    C3047720   0.436   5.665   5.685 -0.3178 -0.3251  0.8728
   96MOL    C3147721   0.367   5.666   5.550  0.7541 -0.5011 -0.0259
   96MOL    C3247722   0.296   5.802   5.529 -0.3814  0.2669  0.6110
   96MOL    C3347723   0.232   5.810   5.389 -0.0031 -0.3109 -0.4993
   96MOL    C3447724   0.163   5.935   5.346 -0.3065 -0.3847  0.1917
   96MOL    C3547725   0.098   5.919   5.210  0.1388  0.0249  0.4017
   96MOL    H3647726   0.100   5.656   5.741 -3.1823 -1.7743 -1.2906
   96MOL    H3747727   0.099   5.591   5.900 -1.0327 -1.0512 -0.3432
   96MOL    H3847728   0.267   5.463   5.690 -1.1574  0.6537 -0.7196
   96MOL    H3947729   0.520   5.597   5.699  1.3832  1.0657 -2.0377
   96MOL    H4047730   0.486   5.762   5.691 -0.3124 -0.1365 -1.6952
   96MOL    H4147731   0.307   5.579   5.523 -0.8606  0.7164 -0.4839
   96MOL    H4247732   0.444   5.662   5.473  0.1087  1.0870 -0.7849
   96MOL    H4347733   0.214   5.824   5.597  0.6472  0.7970  1.6921
   96MOL    H4447734   0.371   5.881   5.530 -0.4716  0.3594  0.3021
   96MOL    H4547735   0.310   5.801   5.313  2.1716  1.0534  1.4917
   96MOL    H4647736   0.160   5.729   5.378  2.4031 -2.2973 -2.3407
   96MOL    H4747737   0.078   5.947   5.414 -1.0940 -0.9194 -0.6823
   96MOL    H4847738   0.225   6.023   5.360  0.7479 -0.8607 -1.3468
   96MOL    H4947739   0.005   5.862   5.218 -0.9527  1.8020  0.6817
   96MOL    H5047740   0.057   6.010   5.165  0.7135  1.2283  2.2137
   96MOL    H5147741   0.172   5.888   5.137 -0.1193 -2.4115  1.1275
   96MOL    C5247742   0.310   5.428   5.902  0.1114 -0.1828 -0.3866
   96MOL    C5347743   0.451   5.367   5.910  0.2474  0.4823 -0.0631
   96MOL    O5447744   0.462   5.282   6.022  0.4636  0.4668 -0.7000
   96MOL    C5547745   0.557   5.313   6.120  0.0264  0.7416 -0.2376
   96MOL    C5647746   0.572   5.210   6.226 -0.1003  0.3725 -0.5767
   96MOL    C5747747   0.580   5.066   6.178 -0.5619  0.4164 -0.2189
   96MOL    C5847748   0.565   4.957   6.294  1.0744 -0.0633 -0.1291
   96MOL    C5947749   0.594   4.807   6.248 -0.4399 -0.2306  0.1383
   96MOL    C6047750   0.612   4.705   6.362  0.2523 -0.1536  0.2180
   96MOL    H6147751   0.242   5.347   5.927  0.9906 -0.6602  0.5055
   96MOL    H6247752   0.287   5.484   5.993  2.4079  1.7932 -0.9351
   96MOL    H6347753   0.520   5.448   5.931 -0.3055  0.8488  0.3421
   96MOL    H6447754   0.546   5.414   6.160  1.0796  0.0059  1.9701
   96MOL    H6547755   0.651   5.319   6.065  1.7901 -4.0630  1.9850
   96MOL    H6647756   0.485   5.220   6.292  0.0801 -0.0674 -0.2714
   96MOL    H6747757   0.652   5.237   6.295 -0.5009  0.5776 -0.1896
   96MOL    H6847758   0.510   5.041   6.098  1.1630 -1.6619 -1.1089
   96MOL    H6947759   0.681   5.054   6.138 -1.3664 -1.5119 -1.7720
   96MOL    H7047760   0.639   4.992   6.366  0.3905  0.4329  0.3371
   96MOL    H7147761   0.469   4.973   6.342  2.1251 -1.7496  2.6692
   96MOL    H7247762   0.507   4.774   6.192 -0.7104  1.0458 -0.2006
   96MOL    H7347763   0.683   4.813   6.184  0.2911  2.4064  1.3644
   96MOL    H7447764   0.684   4.735   6.439 -0.3522 -0.5386  0.9316
   96MOL    H7547765   0.513   4.684   6.401  0.4238 -1.2129  0.1014
   96MOL    H7647766   0.648   4.625   6.297  0.0580 -0.1254  0.0760
   96MOL    C7747767   0.495   5.286   5.786 -0.0821  0.6614  0.9318
   96MOL    C7847768   0.641   5.259   5.786  0.9326 -0.1303 -0.1904
   96MOL    O7947769   0.702   5.386   5.773  0.0817  0.0990  0.2959
   96MOL    C8047770   0.842   5.383   5.823 -0.0768  0.0315  0.2772
   96MOL    C8147771   0.906   5.528   5.826  0.2309  0.6764  0.2320
   96MOL    C8247772   0.853   5.615   5.945  0.0854  0.2037 -0.5186
   96MOL    C8347773   0.941   5.743   5.972 -0.4470  0.1742  0.7820
   96MOL    C8447774   0.963   5.827   5.843  0.0913  0.3531  0.0872
   96MOL    C8547775   1.035   5.960   5.868 -0.5949 -0.2116  0.3117
   96MOL    H8647776   0.466   5.334   5.693 -0.0265 -1.0383  0.0102
   96MOL    H8747777   0.443   5.191   5.784  1.1852 -0.0771  1.9069
   96MOL    H8847778   0.669   5.220   5.884  0.1208 -0.5384 -0.1114
   96MOL    H8947779   0.910   5.323   5.763  0.5507  1.1398 -0.1184
   96MOL    H9047780   0.866   5.344   5.922  2.2148 -0.6316 -0.5172
   96MOL    H9147781   0.914   5.575   5.729 -1.8637  1.2467  0.3067
   96MOL    H9247782   1.012   5.512   5.847 -0.1809 -0.5472  1.4952
   96MOL    H9347783   0.746   5.626   5.931  0.2512  0.5417 -1.5769
   96MOL    H9447784   0.844   5.548   6.030 -0.9410  0.7368 -0.1975
   96MOL    H9547785   0.914   5.806   6.057  1.2135  0.9621  0.7428
   96MOL    H9647786   1.037   5.708   6.010 -0.1849  0.3226  0.2501
   96MOL    H9747787   1.007   5.770   5.762 -0.3340 -1.7165  1.2839
   96MOL    H9847788   0.864   5.854   5.807 -0.2090 -2.4531 -1.2657
   96MOL    H9947789   1.002   6.013   5.957  0.1894 -0.8682  1.0088
   96MOL   H10047790   1.142   5.948   5.886  0.1803  2.1612 -2.2929
   96MOL   H10147791   1.019   6.019   5.778 -0.0696 -0.1565  0.2506
   96MOL   C10247792   0.693   5.160   5.673 -0.4059 -0.5344  0.0414
   96MOL   C10347793   0.663   5.203   5.528  0.5844  0.2044  0.8815
   96MOL   O10447794   0.771   5.141   5.446  0.5736  0.3297 -0.1983
   96MOL   C10547795   0.883   5.220   5.414 -0.2442  0.5433  0.4667
   96MOL   C10647796   1.000   5.138   5.361 -0.2629 -0.8452 -0.3868
   96MOL   C10747797   0.972   5.072   5.219  0.5120 -0.9206  0.0750
   96MOL   C10847798   1.096   5.000   5.175 -0.4909 -0.4591  0.3054
   96MOL   C10947799   1.085   4.933   5.036 -0.0843 -0.2242 -0.4928
   96MOL   C11047800   0.992   4.814   5.021 -0.6407  0.5730 -0.3691
   96MOL   H11147801   0.800   5.142   5.686  0.1878  2.7362  0.0483
   96MOL   H11247802   0.657   5.057   5.674  1.2458 -1.1921 -2.5348
   96MOL   H11347803   0.668   5.312   5.515 -0.7741  0.1017 -0.6404
   96MOL   H11447804   0.910   5.280   5.501 -4.0907  0.4400  1.8166
   96MOL   H11547805   0.855   5.291   5.336 -0.7687 -1.0727 -0.8434
   96MOL   H11647806   1.039   5.069   5.435 -0.8356  0.6339  1.3368
   96MOL   H11747807   1.082   5.209   5.352  0.2512 -1.5902 -1.7940
   96MOL   H11847808   0.878   5.017   5.210 -1.6569  2.9382 -2.2381
   96MOL   H11947809   0.949   5.152   5.148  1.0403  1.1416  2.1437
   96MOL   H12047810   1.189   5.053   5.191 -0.6948  0.0271 -0.1395
   96MOL   H12147811   1.104   4.912   5.240  2.1838 -1.3650 -1.1518
   96MOL   H12247812   1.061   5.002   4.955 -1.0566 -0.9136 -0.7988
   96MOL   H12347813   1.185   4.900   5.008  0.7649  2.0664 -0.2905
   96MOL   H12447814   0.887   4.842   5.008 -0.7375  2.0236  3.0096
   96MOL   H12547815   1.017   4.743   4.942  0.5793 -1.1821  1.5403
   96MOL   H12647816   0.998   4.762   5.116  0.9338  0.2693 -0.6210
   96MOL   C12747817   0.530   5.149   5.465  0.2018 -0.1438  0.2217
   96MOL   C12847818   0.490   5.213   5.331 -0.2563 -0.2087 -1.1341
   96MOL   O12947819   0.356   5.164   5.326  0.2970 -0.2357  0.5346
   96MOL   C13047820   0.265   5.259   5.372  0.0887  0.3342 -0.1760
   96MOL   C13147821   0.127   5.194   5.402 -0.2090 -0.1753 -0.2834
   96MOL   C13247822   0.134   5.114   5.538 -0.1112 -0.3351  0.5688
   96MOL   C13347823   7.771   5.066   5.578  0.0167  0.4358 -0.3392
   96MOL   C13447824   7.775   4.956   5.683  0.3036 -0.4074  0.3193
   96MOL   C13547825   7.648   4.941   5.764  0.1644 -0.1776  0.6027
   96MOL   H13647826   0.535   5.040   5.462 -0.4802 -0.2488  2.0313
   96MOL   H13747827   0.452   5.170   5.539 -0.8924  1.8555 -1.4282
   96MOL   H13847828   0.503   5.320   5.321 -2.2831  0.0139 -1.5606
   96MOL   H13947829   0.258   5.340   5.299 -1.7189  0.6149  0.2733
   96MOL   H14047830   0.297   5.304   5.466 -0.0621 -0.2655  0.1696
   96MOL   H14147831   0.099   5.127   5.321  1.7330  0.5172 -1.5689
   96MOL   H14247832   0.047   5.266   5.385 -0.4072 -0.4613 -0.5468
   96MOL   H14347833   0.202   5.033   5.515 -1.0779 -1.4140  1.4540
   96MOL   H14447834   0.177   5.170   5.621 -0.2936 -0.1256  0.5243
   96MOL   H14547835   7.708   5.147   5.615  0.2475  0.9429 -1.0486
   96MOL   H14647836   7.726   5.027   5.487 -1.9644  1.9209 -0.0338
   96MOL   H14747837   0.038   4.861   5.648  2.1208  0.4707 -0.0323
   96MOL   H14847838   0.081   4.990   5.744  1.0273  0.1436 -0.9435
   96MOL   H14947839   7.590   4.856   5.730 -0.5133  0.6332 -0.2813
   96MOL   H15047840   7.678   4.904   5.862 -1.3005  0.5511  1.3406
   96MOL   H15147841   7.592   5.034   5.777  1.5296  0.7035  0.2717
   96MOL   C15247842   0.554   5.164   5.203 -0.2520  0.0339  0.3932
   96MOL   C15347843   0.507   5.234   5.073  0.8532  0.3248  0.3073
   96MOL   O15447844   0.608   5.200   4.980 -0.5059  0.4676 -0.0594
   96MOL   C15547845   0.708   5.301   4.969  0.6465 -0.8894  0.8972
   96MOL   C15647846   0.791   5.247   4.852  0.1075  0.0303  0.1137
   96MOL   C15747847   0.895   5.345   4.794 -0.3729 -0.4966  0.3440
   96MOL   C15847848   0.983   5.297   4.682  0.0580  0.6569 -0.0851
   96MOL   C15947849   1.091   5.392   4.636 -0.3219  0.3590 -0.2889
   96MOL   C16047850   1.169   5.348   4.511  0.0685 -0.3053  0.2754
   96MOL   H16147851   0.661   5.184   5.215 -0.2374  0.0113  0.3024
   96MOL   H16247852   0.554   5.055   5.204 -1.2881 -0.0643 -2.8516
   96MOL   H16347853   0.499   5.341   5.090 -0.9713  0.5129 -1.5211
   96MOL   H16447854   0.763   5.323   5.061 -1.7310 -0.2165  2.1769
   96MOL   H16547855   0.659   5.393   4.939  4.1070  0.7573  0.0240
   96MOL   H16647856   0.732   5.216   4.766  1.4411 -0.5018 -0.6179
   96MOL   H16747857   0.855   5.168   4.889  0.1642  0.7387  1.5792
   96MOL   H16847858   0.852   5.442   4.769 -2.3321 -1.4899 -0.2613
   96MOL   H16947859   0.968   5.371   4.871  0.8421 -2.2407 -0.1787
   96MOL   H17047860   1.020   5.196   4.700 -1.3635  0.1083 -0.1565
   96MOL   H17147861   0.919   5.295   4.594  0.1148 -0.1691 -0.1086
   96MOL   H17247862   1.037   5.485   4.615  0.7729  1.4810  1.7090
   96MOL   H17347863   1.159   5.423   4.716 -1.0587 -0.0986  0.5324
   96MOL   H17447864   1.236   5.271   4.547  1.5265  1.5612  1.6401
   96MOL   H17547865   1.097   5.301   4.443 -2.4125  1.5032  1.5772
   96MOL   H17647866   1.217   5.437   4.468 -1.3031 -0.7918 -2.4023
   96MOL   C17747867   0.382   5.161   5.016  0.3886 -0.3034  0.1102
   96MOL   C17847868   0.297   5.241   4.909  0.1332  0.3952  0.3302
   96MOL   O17947869   0.241   5.352   4.977  0.0403  0.2012 -0.5362
   96MOL   C18047870   0.106   5.332   5.030  0.0946 -0.1093  0.7860
   96MOL   C18147871   0.053   5.448   5.103 -0.5315 -0.9206  0.1687
   96MOL   C18247872   7.684   5.442   5.136  0.1588  0.2195  0.3872
   96MOL   C18347873   7.634   5.529   5.254  0.5424  0.0539  0.5781
   96MOL   C18447874   7.479   5.502   5.291  0.2852  0.0232 -0.1559
   96MOL   C18547875   7.462   5.380   5.380 -0.2277  0.7279 -0.2233
   96MOL   H18647876   0.419   5.064   4.982  1.9005  0.4503 -0.4889
   96MOL   H18747877   0.327   5.150   5.109 -0.7468 -0.5961 -0.5962
   96MOL   H18847878   0.216   5.181   4.866 -0.7624  1.3269  0.6999
   96MOL   H18947879   0.113   5.238   5.086 -0.5375 -0.3871  0.4076
   96MOL   H19047880   0.030   5.309   4.955  2.7781 -0.4928 -1.8841
   96MOL   H19147881   0.067   5.546   5.056 -0.7360 -1.0813 -0.2300
   96MOL   H19247882   0.109   5.460   5.195 -0.2183  2.5613 -0.3930
   96MOL   H19347883   7.644   5.462   5.036 -0.0471 -1.3983  0.1268
   96MOL   H19447884   7.665   5.337   5.157 -0.2323 -0.2675 -2.1974
   96MOL   H19547885   7.697   5.519   5.343  0.6803 -0.1885  0.4559
   96MOL   H19647886   7.639   5.632   5.218  2.1985  0.2064  1.1773
   96MOL   H19747887   7.435   5.585   5.345  1.0880  0.3258  0.0352
   96MOL   H19847888   7.418   5.490   5.202  0.1669  2.7973 -0.4897
   96MOL   H19947889   7.499   5.388   5.482  2.3263  1.8308 -1.1884
   96MOL   H20047890   7.356   5.356   5.380 -0.1937  0.5776 -0.2225
   96MOL   H20147891   7.518   5.300   5.332 -0.3399  1.2728 -1.2859
   96MOL   C20247892   0.367   5.297   4.789 -0.0038 -0.5272 -0.4185
   96MOL   C20347893   0.284   5.337   4.671  0.7550 -0.1775  0.1255
   96MOL   O20447894   0.208   5.229   4.622  0.6092 -0.0466  0.7292
   96MOL   C20547895   0.082   5.272   4.577  0.4817  0.9935 -0.5169
   96MOL   C20647896   7.774   5.166   4.510 -0.1564  0.1056 -0.4512
   96MOL   C20747897   7.637   5.213   4.485  0.5599  0.5490 -0.3439
   96MOL   C20847898   7.528   5.101   4.459  0.2501  0.2152  0.3310
   96MOL   C20947899   7.388   5.146   4.411 -0.1361 -0.5852  0.8387
   96MOL   C21047900   7.300   5.194   4.526 -1.2299  0.1491 -0.5677
   96MOL   H21147901   0.425   5.377   4.835 -1.3688 -0.6583  1.5704
   96MOL   H21247902   0.435   5.218   4.757  0.0263  0.6843 -3.5520
   96MOL   H21347903   0.219   5.419   4.699  1.1810 -0.1351  0.9956
   96MOL   H21447904   0.103   5.348   4.502  0.1647 -0.5240 -2.1806
   96MOL   H21547905   0.025   5.316   4.659  0.0005  2.7412 -1.7380
   96MOL   H21647906   7.757   5.079   4.575  0.8341  1.6713  1.9519
   96MOL   H21747907   0.037   5.133   4.414  0.8794  0.9631 -0.3174
   96MOL   H21847908   7.606   5.250   4.582  1.6086 -2.4162  1.2066
   96MOL   H21947909   7.624   5.308   4.433  0.8269  0.9240  0.2621
   96MOL   H22047910   7.564   5.022   4.393 -0.4599  1.1894 -1.2359
   96MOL   H22147911   7.512   5.046   4.552  1.5315 -0.1995  0.3225
   96MOL   H22247912   7.392   5.225   4.336 -0.1945 -0.0563  1.3917
   96MOL   H22347913   7.329   5.067   4.365  0.3643  0.1349 -1.1035
   96MOL   H22447914   7.298   5.113   4.599  0.6167  0.3856 -0.2206
   96MOL   H22547915   7.343   5.281   4.576 -3.7290  2.8043 -2.8850
   96MOL   H22647916   7.202   5.225   4.491 -0.6980  0.1192 -2.1083
   96MOL   C22747917   0.372   5.394   4.557  0.1179 -0.2089 -0.6126
   96MOL   C22847918   0.453   5.521   4.592  0.1239 -0.5045 -0.3294
   96MOL   O22947919   0.536   5.557   4.481  0.2287 -0.0874 -0.0630
   96MOL   C23047920   0.662   5.495   4.472  0.1194  0.6223  0.6591
   96MOL   C23147921   0.731   5.577   4.359 -0.7405  0.0148  0.2284
   96MOL   C23247922   0.874   5.531   4.316 -0.0473  0.7826 -0.2164
   96MOL   C23347923   0.952   5.636   4.229  0.0762 -0.4703 -0.2525
   96MOL   C23447924   1.040   5.713   4.327 -0.6632  0.5418  1.0217
   96MOL   C23547925   1.144   5.805   4.264  0.1762 -0.2734  0.4097
   96MOL   H23647926   0.441   5.314   4.526  1.7870  0.4761  1.1943
   96MOL   H23747927   0.327   5.410   4.460 -0.0193 -2.0877 -0.8862
   96MOL   H23847928   0.508   5.507   4.685 -0.9969  1.4965  0.6450
   96MOL   H23947929   0.643   5.390   4.450  1.6656  0.4705 -0.0621
   96MOL   H24047930   0.713   5.504   4.568  0.1659 -0.6177  0.7610
   96MOL   H24147931   0.738   5.683   4.383  1.4069 -0.1053  0.1963
   96MOL   H24247932   0.665   5.581   4.272 -0.7255  0.7420  0.2443
   96MOL   H24347933   0.933   5.499   4.402  0.5173 -0.5843 -1.0938
   96MOL   H24447934   0.863   5.437   4.261 -1.8780  0.5694  0.4827
   96MOL   H24547935   1.027   5.595   4.162 -1.2757 -0.9744 -1.4981
   96MOL   H24647936   0.894   5.699   4.161  1.5975  0.1381 -1.0064
   96MOL   H24747937   0.965   5.753   4.396 -0.5631  0.2414  1.3044
   96MOL   H24847938   1.095   5.640   4.385 -1.0209 -0.2725  0.3437
   96MOL   H24947939   1.195   5.858   4.344  2.8298 -0.3412 -1.1947
   96MOL   H25047940   1.211   5.747   4.200 -1.3669 -0.6116 -0.9520
   96MOL   H25147941   1.102   5.881   4.197  0.5665 -0.0601  0.4086
   96MOL   C25247942   0.365   5.649   4.616  0.1420  0.3280 -0.3515
   96MOL   C25347943   0.396   5.711   4.752 -0.0680 -0.3758  1.1169
   96MOL   O25447944   0.284   5.800   4.791 -0.3198  0.1280 -0.3363
   96MOL   C25547945   0.177   5.742   4.864 -0.8895  0.6165 -0.8180
   96MOL   C25647946   0.056   5.832   4.864  0.2619 -0.2301 -0.6782
   96MOL   C25747947   7.701   5.765   4.904 -0.3403 -0.2285 -0.1690
   96MOL   C25847948   7.592   5.867   4.910 -0.2485 -0.4826 -0.3928
   96MOL   C25947949   7.464   5.827   4.989 -0.6251  0.3265  0.4783
   96MOL   C26047950   7.369   5.948   4.993  0.2902  0.1974  0.5819
   96MOL   H26147951   0.375   5.719   4.534  0.2179 -0.2983 -0.8855
   96MOL   H26247952   0.261   5.621   4.597  0.8903 -1.9269 -1.3078
   96MOL   H26347953   0.399   5.632   4.828  2.4498 -0.2327  1.2063
   96MOL   H26447954   0.209   5.706   4.962  2.1777 -1.4154 -2.4788
   96MOL   H26547955   0.150   5.651   4.809 -0.1596 -0.3589  0.4027
   96MOL   H26647956   0.040   5.858   4.759 -2.0654 -0.9825 -0.5550
   96MOL   H26747957   0.083   5.926   4.911  0.3255 -0.3608 -0.4502
   96MOL   H26847958   7.676   5.700   4.820 -1.6220  0.0963 -0.0512
   96MOL   H26947959   7.709   5.705   4.995  0.0301 -1.3743 -0.9366
   96MOL   H27047960   7.633   5.954   4.961 -1.1562  0.3669 -1.0998
   96MOL   H27147961   7.579   5.916   4.814  1.6121 -1.0833 -0.9709
   96MOL   H27247962   7.416   5.749   4.929  0.5215  0.7525 -1.0274
   96MOL   H27347963   7.484   5.783   5.086  1.5141 -3.2588 -1.4609
   96MOL   H27447964   7.423   6.041   4.977 -2.8372  1.6478 -2.2192
   96MOL   H27547965   7.302   5.936   4.908  1.5773 -1.2045 -0.2587
   96MOL   H27647966   7.301   5.945   5.079 -0.7028 -1.9844 -0.2214
   96MOL   C27747967   0.527   5.788   4.752 -0.4769 -0.6172 -0.1406
   96MOL   C27847968   0.560   5.864   4.885  0.3251  0.9551  0.9734
   96MOL   O27947969   0.597   5.762   4.980 -0.4928  0.1020  0.2485
   96MOL   C28047970   0.498   5.730   5.079 -0.5863 -0.3636 -0.0443
   96MOL   C28147971   0.551   5.628   5.183  0.2919  0.2268  0.2684
   96MOL   C28247972   0.655   5.687   5.268  0.1258  0.4639 -0.7191
   96MOL   C28347973   0.736   5.593   5.357  0.6095  0.5652 -0.3503
   96MOL   C28447974   0.857   5.659   5.420 -0.1159 -0.2693 -0.7288
   96MOL   C28547975   0.827   5.773   5.525  0.8183 -0.5232 -0.2361
   96MOL   H28647976   0.613   5.737   4.708 -1.6557 -1.3603 -1.6140
   96MOL   H28747977   0.503   5.863   4.677  0.4556 -0.9844 -0.8188
   96MOL   H28847978   0.468   5.905   4.927 -1.0424 -0.5318 -0.5109
   96MOL   H28947979   0.409   5.684   5.037  0.8698 -1.0452 -2.4821
   96MOL   H29047980   0.473   5.824   5.128  2.2027  0.3980 -0.0011
   96MOL   H29147981   0.571   5.529   5.142 -0.2076 -0.2902  1.2432
   96MOL   H29247982   0.463   5.600   5.242  0.2475  1.3040  0.7222
   96MOL   H29347983   0.727   5.741   5.206 -1.9959 -0.4331 -4.0441
   96MOL   H29447984   0.621   5.767   5.335  1.1031  1.5583 -1.4999
   96MOL   H29547985   0.680   5.554   5.441 -0.4017 -3.0654 -2.5801
   96MOL   H29647986   0.780   5.508   5.304  0.4492  0.1527  0.1774
   96MOL   H29747987   0.916   5.586   5.476 -0.9085 -0.2627  0.1289
   96MOL   H29847988   0.921   5.692   5.338 -0.0454  1.5763  0.0428
   96MOL   H29947989   0.924   5.816   5.549  0.7699 -0.2660 -0.4913
   96MOL   H30047990   0.758   5.852   5.495 -0.9561 -0.6389  3.3454
   96MOL   H30147991   0.791   5.720   5.613  0.3152 -1.1905 -0.8327
   96MOL   C30247992   0.683   5.961   4.881  0.0655 -0.5488  0.2008
   96MOL   C30347993   0.805   5.917   4.804 -0.1657  0.0953  0.6667
   96MOL   O30447994   0.783   5.911   4.662 -0.3093 -0.1582  0.1914
   96MOL   C30547995   0.803   6.034   4.594  0.3356 -0.0341  0.7940
   96MOL   C30647996   0.778   6.025   4.447  0.2946  0.5376  0.3586
   96MOL   C30747997   0.639   5.978   4.409  0.0435  0.7478  0.7890
   96MOL   C30847998   0.614   5.967   4.253 -0.2558  0.5620 -0.5131
   96MOL   C30947999   0.472   5.927   4.221 -0.3036 -0.4396  0.0642
   96MOL   C31048000   0.443   5.907   4.068  0.2877  1.2564 -0.1451
   96MOL   H31148001   0.647   6.056   4.839 -0.3005 -0.7376  0.0811
   96MOL   H31248002   0.707   5.991   4.983 -1.4017 -0.6224  0.5805
   96MOL   H31348003   0.884   5.990   4.822  0.8737 -0.3948 -1.7200
   96MOL   H31448004   0.902   6.072   4.619  0.7467  1.1572 -2.4586
   96MOL   H31548005   0.724   6.103   4.623 -0.1993  0.1505 -1.0451
   96MOL   H31648006   0.844   5.949   4.405 -1.8994 -1.5266  0.5671
   96MOL   H31748007   0.819   6.116   4.403  2.2036 -1.3576 -1.9347
   96MOL   H31848008   0.624   5.878   4.452  1.5837 -1.4584 -3.5606
   96MOL   H31948009   0.566   6.048   4.449  1.1501  2.0050  0.6211
   96MOL   H32048010   0.632   6.067   4.213 -2.0284  1.4516  0.8567
   96MOL   H32148011   0.695   5.912   4.205  2.0824  0.4381  3.3444
   96MOL   H32248012   0.445   5.833   4.270  1.7797 -0.5522  1.0993
   96MOL   H32348013   0.414   6.009   4.262  1.4665  0.6832  0.3601
   96MOL   H32448014   0.424   5.999   4.013  0.4321  0.5784 -1.3427
   96MOL   H32548015   0.525   5.860   4.015  0.0032  0.0912  0.4103
   96MOL   H32648016   0.354   5.843   4.077  1.0012  0.2650 -0.0620
   96MOL   C32748017   0.869   5.781   4.854  0.1147  0.0994  0.1212
   96MOL   C32848018   1.022   5.775   4.854 -0.6326  0.2785 -0.8370
   96MOL   O32948019   1.083   5.655   4.911 -0.3106 -0.6208 -0.4200
   96MOL   C33048020   1.125   5.672   5.042  0.6705  0.6439 -0.3187
   96MOL   C33148021   1.169   5.536   5.103 -0.0532 -0.2889 -0.9435
   96MOL   C33248022   1.284   5.481   5.023 -0.6614  0.3196  0.0739
   96MOL   C33348023   1.353   5.366   5.093 -0.3212  0.0782 -0.7790
   96MOL   C33448024   1.457   5.289   5.006 -0.1873 -0.4559  0.5119
   96MOL   C33548025   1.399   5.210   4.879  0.5873  0.4127 -0.6923
   96MOL   H33648026   0.832   5.696   4.795  0.9032 -0.0943 -0.0944
   96MOL   H33748027   0.835   5.749   4.952  2.2460  0.2702  0.9267
   96MOL   H33848028   1.044   5.866   4.909 -0.9334  0.4082 -0.9306
   96MOL   H33948029   1.034   5.707   5.092  1.4841  3.2182 -0.5892
   96MOL   H34048030   1.206   5.742   5.061  2.3974 -1.4656  0.3053
   96MOL   H34148031   1.082   5.472   5.093 -0.8451  0.2794  1.9565
   96MOL   H34248032   1.199   5.538   5.208  0.5194 -0.3906 -1.1006
   96MOL   H34348033   1.247   5.448   4.926  0.0087 -0.1729 -0.0200
   96MOL   H34448034   1.359   5.558   5.006  0.1399  0.0323  2.1171
   96MOL   H34548035   1.408   5.405   5.178 -1.1835 -2.1394  0.8201
   96MOL   H34648036   1.286   5.288   5.128  0.6021  0.1858  1.2938
   96MOL   H34748037   1.550   5.341   4.981 -0.1636 -1.7721 -2.3018
   96MOL   H34848038   1.511   5.210   5.058 -1.1086 -2.2067 -1.1545
   96MOL   H34948039   1.326   5.144   4.925  1.0324  0.3019 -0.1310
   96MOL   H35048040   1.354   5.276   4.804  0.2579 -1.0542 -1.8026
   96MOL   H35148041   1.471   5.139   4.839 -1.0968 -2.6419  1.4627
   96MOL   C35248042   1.084   5.777   4.713 -0.1317 -0.1048  0.4686
   96MOL   C35348043   1.231   5.825   4.696  0.6970 -0.5075 -0.0914
   96MOL   O35448044   1.235   5.922   4.594 -0.6390 -0.0410 -0.1632
   96MOL   C35548045   1.231   6.051   4.642  0.0136 -0.1294 -0.0228
   96MOL   C35648046   1.199   6.152   4.528 -0.2627 -0.1642 -0.2291
   96MOL   C35748047   1.121   6.274   4.591  0.0795 -0.6691  0.1045
   96MOL   C35848048   1.065   6.375   4.487  0.7115  0.0987  0.1960
   96MOL   C35948049   0.976   6.482   4.551 -0.0860 -0.1405  0.0425
   96MOL   C36048050   0.924   6.588   4.454  0.3313 -0.1292  0.1834
   96MOL   H36148051   1.065   5.683   4.662 -1.8740 -0.0351  0.9606
   96MOL   H36248052   1.022   5.832   4.642 -2.9063 -1.9927  1.3584
   96MOL   H36348053   1.257   5.864   4.795 -1.6863  0.6144  0.1335
   96MOL   H36448054   1.320   6.078   4.698 -1.0327  4.1842 -0.2702
   96MOL   H36548055   1.155   6.057   4.720  1.1248  0.8063  0.9998
   96MOL   H36648056   1.158   6.100   4.441  2.2685 -1.2172 -0.8209
   96MOL   H36748057   1.291   6.194   4.488  0.1645  0.1633  1.0623
   96MOL   H36848058   1.038   6.237   4.651  0.6899  1.9575  2.6535
   96MOL   H36948059   1.193   6.325   4.655 -0.8738 -0.8950  1.3901
   96MOL   H37048060   1.150   6.420   4.437 -1.3791  2.5406 -1.3104
   96MOL   H37148061   1.017   6.319   4.406  0.0382  2.1745 -0.8852
   96MOL   H37248062   0.885   6.430   4.581  0.0604 -0.2777  0.2467
   96MOL   H37348063   1.023   6.532   4.635 -1.7525  2.1995 -0.3854
   96MOL   H37448064   0.918   6.691   4.489  1.6583  0.2102 -0.5391
   96MOL   H37548065   0.993   6.590   4.369  1.4518  0.2293  1.1003
   96MOL   H37648066   0.825   6.573   4.409  0.0050  0.4815  0.6945
   96MOL   C37748067   1.326   5.717   4.652 -0.0164 -0.3479 -0.9139
   96MOL   C37848068   1.475   5.752   4.662 -0.4431 -0.3655  0.1079
   96MOL   O37948069   1.505   5.787   4.795 -0.2695 -0.1383  0.3237
   96MOL   C38048070   1.570   5.683   4.867 -0.3977 -0.2526  1.0753
   96MOL   C38148071   1.580   5.739   5.015 -0.0741  0.1283 -0.2677
   96MOL   C38248072   1.649   5.633   5.107 -0.4863 -0.1650 -0.0253
   96MOL   C38348073   1.657   5.672   5.252 -0.5453  0.2497  0.9117
   96MOL   C38448074   1.713   5.549   5.338  0.3498  0.2304  0.1125
   96MOL   C38548075   1.700   5.575   5.491  0.1738 -0.2046 -0.2282
   96MOL   H38648076   1.322   5.628   4.714  0.4102 -0.1538 -0.6028
   96MOL   H38748077   1.305   5.680   4.551  2.4988  1.4278 -2.1615
   96MOL   H38848078   1.534   5.665   4.633 -0.5733  0.0112 -1.2872
   96MOL   H38948079   1.668   5.653   4.829 -0.1838  0.6373  0.9008
   96MOL   H39048080   1.514   5.590   4.875  1.8462 -1.7294  0.1741
   96MOL   H39148081   1.478   5.760   5.045  0.5145 -0.5108  2.3305
   96MOL   H39248082   1.636   5.832   5.023 -0.7812  0.6542 -1.3519
   96MOL   H39348083   1.603   5.535   5.091  1.8390 -1.0045 -1.8865
   96MOL   H39448084   1.751   5.613   5.074 -0.7897  0.2377 -1.2244
   96MOL   H39548085   1.725   5.756   5.257 -0.7474  0.7527 -3.0921
   96MOL   H39648086   1.559   5.702   5.290 -0.8661 -1.6424  1.6432
   96MOL   H39748087   1.655   5.459   5.317 -0.9364  0.8471  0.9216
   96MOL   H39848088   1.815   5.520   5.313 -0.0042 -1.1373  0.2054
   96MOL   H39948089   1.756   5.665   5.517 -1.8128  1.1425 -0.4990
   96MOL   H40048090   1.600   5.599   5.526  0.4420 -1.8994  1.8231
   96MOL   H40148091   1.746   5.502   5.558 -0.7465  1.1069  1.9024
   96MOL   C40248092   1.539   5.866   4.584  0.3574 -0.4370 -0.1302
   96MOL   C40348093   1.543   5.847   4.434  0.1278 -0.4624 -0.0639
   96MOL   O40448094   1.633   5.741   4.402  0.5329 -0.3042 -0.2793
   96MOL   C40548095   1.585   5.640   4.324  0.3202  0.3072 -0.6362
   96MOL   C40648096   1.693   5.541   4.279 -0.4511 -0.6144 -0.3284
   96MOL   C40748097   1.808   5.614   4.198  0.1691 -0.6776  0.2059
   96MOL   C40848098   1.921   5.518   4.158  0.1445 -0.3521  0.3668
   96MOL   C40948099   2.016   5.582   4.067  0.8733 -0.0043  0.5338
   96MOL   C41048100   1.997   5.573   3.915  0.0324  0.0929  0.5675
   96MOL   H41148101   1.639   5.889   4.621  0.5368 -0.3233 -0.6893
   96MOL   H41248102   1.484   5.957   4.610  0.9172 -0.2828  0.5482
   96MOL   H41348103   1.440   5.831   4.403 -0.1630  1.1264  0.0364
   96MOL   H41448104   1.541   5.686   4.235 -0.0396  0.4016 -0.4114
   96MOL   H41548105   1.506   5.591   4.380 -1.4436  3.6408 -0.0706
   96MOL   H41648106   1.634   5.463   4.231 -4.0172  1.0468  1.1487
   96MOL   H41748107   1.738   5.496   4.367  1.9264 -0.0426 -1.2116
   96MOL   H41848108   1.762   5.661   4.111  0.2836  0.2994  0.6720
   96MOL   H41948109   1.846   5.701   4.251  0.2840 -1.1896  0.9783
   96MOL   H42048110   1.971   5.475   4.245  1.0210  0.9819  0.5254
   96MOL   H42148111   1.890   5.436   4.093  1.6695  1.2899 -2.5034
   96MOL   H42248112   2.022   5.689   4.088 -2.0988 -0.0465  1.9244
   96MOL   H42348113   2.115   5.543   4.087  0.0341 -3.0339 -0.9629
   96MOL   H42448114   2.091   5.604   3.871  0.7056 -2.1095  0.4165
   96MOL   H42548115   1.965   5.473   3.889 -0.4476  0.1321  0.9901
   96MOL   H42648116   1.912   5.640   3.896 -0.9556 -0.7954  1.7761
   96MOL   C42748117   1.610   5.972   4.375 -0.2877  0.9304 -0.0318
   96MOL   C42848118   1.587   5.994   4.226  0.2507  0.0395 -0.6348
   96MOL   O42948119   1.440   6.014   4.208 -0.0497  0.2431 -0.0620
   96MOL   C43048120   1.384   6.002   4.086 -0.2849 -0.6634 -0.1984
   96MOL   C43148121   1.244   6.076   4.085 -0.3009 -0.1659 -0.1667
   96MOL   C43248122   1.252   6.222   4.036  0.4936  0.1102 -0.0484
   96MOL   C43348123   1.118   6.300   4.047  0.0037  0.0097 -0.6404
   96MOL   C43448124   1.128   6.444   4.002 -0.3574  0.1714  0.6291
   96MOL   C43548125   0.995   6.507   3.993 -0.3452 -1.2196 -0.4448
   96MOL   H43648126   1.564   6.061   4.418  0.1624  0.8699  0.5710
   96MOL   H43748127   1.716   5.986   4.396 -0.1138 -0.5295  0.0944
   96MOL   H43848128   1.615   5.906   4.167  0.8574  0.1410 -0.5063
   96MOL   H43948129   1.359   5.898   4.061 -1.1912 -0.9871  1.9704
   96MOL   H44048130   1.445   6.035   4.002 -0.2840 -1.9968 -0.7485
   96MOL   H44148131   1.220   6.079   4.192  0.2697  0.6993 -0.0608
   96MOL   H44248132   1.170   6.026   4.022  1.1396 -0.9514 -1.2543
   96MOL   H44348133   1.332   6.279   4.083 -1.3675  2.2896  0.5814
   96MOL   H44448134   1.286   6.213   3.933  1.8638 -1.7293  0.5375
   96MOL   H44548135   1.051   6.250   3.977  2.7716 -1.2270 -2.5106
   96MOL   H44648136   1.072   6.284   4.145 -0.1074 -0.7020 -0.8033
   96MOL   H44748137   1.188   6.500   4.073 -2.2759  2.1803  0.6917
   96MOL   H44848138   1.171   6.459   3.903  1.6556 -2.0989  1.1135
   96MOL   H44948139   0.996   6.599   3.933  2.1749 -0.9911 -0.1339
   96MOL   H45048140   0.924   6.433   3.957 -0.0724 -1.5886 -0.2225
   96MOL   H45148141   0.954   6.525   4.092  0.7731  1.5948 -0.4471
   96MOL   C45248142   1.664   6.115   4.175 -0.6853 -0.5009  0.2980
   96MOL   C45348143   1.808   6.085   4.135  0.3428 -0.6446 -0.0127
   96MOL   O45448144   1.877   6.205   4.103 -0.0694  0.2031  0.0094
   96MOL   C45548145   2.008   6.219   4.159 -0.6102 -0.1954  0.2448
   96MOL   C45648146   2.104   6.287   4.068  0.4677 -0.2129  0.0524
   96MOL   C45748147   2.048   6.411   3.998  0.0954 -0.4566  0.2005
   96MOL   C45848148   2.159   6.517   3.976 -0.0372 -0.5422  0.3363
   96MOL   C45948149   2.123   6.639   3.887 -0.0276 -0.2124  0.4026
   96MOL   C46048150   2.244   6.735   3.882 -0.6381  0.4596 -0.4593
   96MOL   H46148151   1.616   6.159   4.088  1.1396 -1.7271 -1.3875
   96MOL   H46248152   1.658   6.194   4.250 -0.7909 -0.2782  0.0572
   96MOL   H46348153   1.863   6.046   4.220  0.8481 -2.5699 -1.1756
   96MOL   H46448154   2.043   6.120   4.188 -2.2478 -1.8831 -3.2605
   96MOL   H46548155   1.982   6.285   4.243 -1.0630  1.6013 -1.2733
   96MOL   H46648156   2.134   6.216   3.991  0.5816  2.2656 -2.2569
   96MOL   H46748157   2.195   6.319   4.120 -0.4878  0.7245  1.1711
   96MOL   H46848158   1.997   6.383   3.905 -0.3386  1.0571 -0.0264
   96MOL   H46948159   1.979   6.471   4.057  0.0750 -0.1323 -0.1466
   96MOL   H47048160   2.189   6.552   4.074  0.8015 -2.9679  0.9881
   96MOL   H47148161   2.247   6.471   3.932  0.4160  0.9110 -0.2793
   96MOL   H47248162   2.115   6.603   3.784  0.6446 -0.5866  0.4816
   96MOL   H47348163   2.039   6.697   3.924 -0.4875 -2.6753  3.3599
   96MOL   H47448164   2.327   6.668   3.861  0.3431  0.3449  3.4556
   96MOL   H47548165   2.232   6.820   3.815 -2.7424 -1.1892 -2.2326
   96MOL   H47648166   2.270   6.782   3.977  3.5531  0.0095 -1.2937
   96MOL   C47748167   1.809   5.990   4.007 -0.0671 -0.2083  0.6339
   96MOL   C47848168   1.934   5.997   3.922  0.4407 -0.1253 -0.4849
   96MOL   O47948169   1.908   5.918   3.810 -0.0210  0.5027 -0.6727
   96MOL   C48048170   2.008   5.944   3.708  0.5230 -0.3141 -0.9776
   96MOL   C48148171   2.007   5.829   3.611 -0.0247  0.5993  0.0884
   96MOL   C48248172   1.893   5.815   3.509 -0.5118 -0.2780  0.0248
   96MOL   C48348173   1.902   5.679   3.432  0.3757 -0.0108 -0.5260
   96MOL   C48448174   1.788   5.652   3.327 -0.3508  0.0783 -0.1197
   96MOL   C48548175   1.655   5.629   3.387  0.6891  0.1402  0.0286
   96MOL   H48648176   1.789   5.887   4.035  0.0956 -0.5022 -0.3259
   96MOL   H48748177   1.727   6.022   3.943  1.2891 -0.2627 -1.1768
   96MOL   H48848178   1.950   6.102   3.899 -0.4831 -0.2379 -1.7029
   96MOL   H48948179   2.103   5.943   3.760  0.0468 -0.7041 -0.1064
   96MOL   H49048180   1.987   6.045   3.672  2.2959  0.1559 -0.7010
   96MOL   H49148181   2.000   5.743   3.677 -2.4450  1.1958  0.6780
   96MOL   H49248182   2.099   5.824   3.552 -2.1398 -0.5231 -3.2933
   96MOL   H49348183   1.801   5.830   3.565  1.0038  0.6319  2.3427
   96MOL   H49448184   1.894   5.896   3.435  0.4619 -1.8063 -1.6846
   96MOL   H49548185   1.999   5.666   3.384  0.8982  1.9370 -0.0457
   96MOL   H49648186   1.899   5.598   3.505  1.2999  1.4121  1.1335
   96MOL   H49748187   1.790   5.749   3.278  0.1360 -0.1355 -0.5357
   96MOL   H49848188   1.820   5.571   3.260  0.0769 -0.9661  1.3246
   96MOL   H49948189   1.671   5.540   3.448 -3.7752 -1.3608 -0.8414
   96MOL   H50048190   1.612   5.710   3.446  0.6657  0.4478 -0.4086
   96MOL   H50148191   1.583   5.601   3.311  0.1946 -4.3952  1.9927
   96MOL   H50248192   2.024   5.961   3.972  0.0545 -0.4491 -0.0084
   97MOL     C148193   4.548   6.380   4.504 -0.3325 -0.0219  0.2732
   97MOL     C248194   4.453   6.423   4.618 -0.3677  0.3253  0.1462
   97MOL     O348195   4.377   6.521   4.559 -0.2400 -0.0364 -0.3044
   97MOL     C448196   4.257   6.485   4.492  0.2512  0.1215 -0.1061
   97MOL     C548197   4.193   6.614   4.440 -0.0142 -0.1800 -0.4306
   97MOL     C648198   4.203   6.746   4.527 -0.3489  0.6221 -0.2270
   97MOL     C748199   4.115   6.874   4.498  0.0211 -0.3925  0.1595
   97MOL     C848200   4.134   6.996   4.592 -0.5013  0.1830 -0.1717
   97MOL     C948201   4.041   7.107   4.545 -0.1855 -0.7816 -0.1052
   97MOL    H1048202   4.499   6.350   4.411 -0.6337  0.7862  0.1699
   97MOL    H1148203   4.603   6.468   4.470 -0.7853 -0.5236 -1.8588
   97MOL    H1248204   4.392   6.339   4.650 -1.9439  2.1575  2.1588
   97MOL    H1348205   4.191   6.430   4.559  2.3898  0.3345  2.2631
   97MOL    H1448206   4.283   6.417   4.411 -1.2592 -0.9009  0.2449
   97MOL    H1548207   4.088   6.593   4.422 -0.6774  1.7488  1.0520
   97MOL    H1648208   4.238   6.635   4.342 -1.8282  2.0682 -0.8452
   97MOL    H1748209   4.167   6.709   4.623 -0.8743  0.5609 -0.4496
   97MOL    H1848210   4.309   6.765   4.546  0.0319 -1.7467  0.2535
   97MOL    H1948211   4.131   6.903   4.394 -0.8820  1.1967  0.4451
   97MOL    H2048212   4.012   6.838   4.500 -0.4682  0.6760 -2.6328
   97MOL    H2148213   4.238   7.028   4.580 -0.9631  1.5119 -0.7700
   97MOL    H2248214   4.137   6.972   4.699 -2.3334 -1.8072 -0.5244
   97MOL    H2348215   4.078   7.194   4.598  2.1999 -0.9226 -1.4869
   97MOL    H2448216   4.055   7.123   4.438  0.0611  0.2249  0.0754
   97MOL    H2548217   3.934   7.102   4.565 -0.4019  2.2095 -0.3436
   97MOL    H2648218   4.612   6.301   4.544 -0.5626  0.2445  1.1736
   97MOL    C2748219   4.514   6.484   4.748  0.7614 -0.5111 -0.3867
   97MOL    C2848220   4.410   6.542   4.845 -0.1495  0.0994 -0.4537
   97MOL    O2948221   4.346   6.430   4.899 -0.3885 -0.1085  0.0681
   97MOL    C3048222   4.209   6.425   4.878 -0.5366  0.2810 -0.4464
   97MOL    C3148223   4.143   6.284   4.869  0.4825 -0.2164 -0.5661
   97MOL    C3248224   4.165   6.205   5.000 -0.0091 -0.2010  0.2249
   97MOL    C3348225   4.126   6.055   4.992 -0.3696  0.8193 -0.2046
   97MOL    C3448226   4.222   5.976   4.907  0.2421  0.1073  0.4469
   97MOL    C3548227   4.171   5.834   4.889 -0.4451 -0.3546  0.0663
   97MOL    H3648228   4.573   6.403   4.791  1.8482 -1.4728 -3.6087
   97MOL    H3748229   4.579   6.567   4.717  0.8070  0.0692  1.2002
   97MOL    H3848230   4.335   6.607   4.800  0.6240  2.5194  1.5748
   97MOL    H3948231   4.187   6.478   4.786 -0.7078  0.5168 -0.2721
   97MOL    H4048232   4.152   6.481   4.953 -0.0720  0.9333 -0.5763
   97MOL    H4148233   4.195   6.240   4.784  0.1758  0.6988 -1.2367
   97MOL    H4248234   4.038   6.299   4.846  0.4686  0.7197  0.0648
   97MOL    H4348235   4.272   6.211   5.020  0.0273  0.0485 -0.0370
   97MOL    H4448236   4.122   6.257   5.086  0.2988 -0.1683  0.3580
   97MOL    H4548237   4.130   6.006   5.089  2.4263  0.6417 -0.3720
   97MOL    H4648238   4.021   6.036   4.969  0.0872  0.9857 -2.5948
   97MOL    H4748239   4.235   6.017   4.806  0.7260  1.2135  0.9519
   97MOL    H4848240   4.323   5.983   4.948  1.0761  1.2589 -1.6843
   97MOL    H4948241   4.235   5.796   4.810 -0.5628  1.1327 -0.7582
   97MOL    H5048242   4.186   5.756   4.964  1.0400 -1.0214 -0.9073
   97MOL    H5148243   4.071   5.814   4.849 -0.8332 -3.3602  2.3162
   97MOL    C5248244   4.490   6.620   4.951  0.1989 -0.0305 -0.1372
   97MOL    C5348245   4.417   6.677   5.071  0.7824  0.1176 -0.3893
   97MOL    O5448246   4.519   6.743   5.156  0.0662  0.6086  0.0664
   97MOL    C5548247   4.580   6.658   5.253 -0.0152 -0.0279  0.1722
   97MOL    C5648248   4.683   6.726   5.347 -0.3997  0.0405  0.1437
   97MOL    C5748249   4.795   6.779   5.264 -0.0108  0.2658  0.4051
   97MOL    C5848250   4.907   6.824   5.351 -0.0669  0.0869 -0.6331
   97MOL    C5948251   5.042   6.861   5.298 -0.4293  0.6111 -1.0590
   97MOL    C6048252   5.126   6.933   5.403  0.5006  0.8044 -0.0517
   97MOL    H6148253   4.541   6.703   4.900 -0.9725  0.0166 -1.2610
   97MOL    H6248254   4.559   6.550   4.998 -1.1445 -2.1312 -1.1976
   97MOL    H6348255   4.369   6.587   5.108  1.5903 -0.5389 -0.9356
   97MOL    H6448256   4.619   6.570   5.201 -1.6002 -0.2792 -0.6199
   97MOL    H6548257   4.502   6.616   5.315  0.9868 -0.6128  1.0541
   97MOL    H6648258   4.712   6.645   5.414 -0.4415 -0.4777 -0.4565
   97MOL    H6748259   4.651   6.814   5.402 -0.4820 -0.2747  0.6072
   97MOL    H6848260   4.845   6.707   5.200  0.6287 -1.6893  3.0562
   97MOL    H6948261   4.773   6.877   5.222 -0.7119 -0.4771 -1.0088
   97MOL    H7048262   4.863   6.910   5.402 -1.6169 -0.7901 -0.4667
   97MOL    H7148263   4.931   6.744   5.420  1.2367 -1.1554 -2.4794
   97MOL    H7248264   5.086   6.767   5.266 -1.9743 -0.4945 -0.0060
   97MOL    H7348265   5.027   6.916   5.205 -0.4900  0.0199 -1.4036
   97MOL    H7448266   5.211   6.980   5.354 -0.5401  1.8984 -0.8376
   97MOL    H7548267   5.064   7.016   5.437 -2.5644 -1.3848 -0.1164
   97MOL    H7648268   5.151   6.873   5.490  0.1149  0.4655 -0.1693
   97MOL    C7748269   4.308   6.783   5.041  0.0423  0.8974  0.3439
   97MOL    C7848270   4.234   6.838   5.162 -0.1738 -0.0097 -0.7541
   97MOL    O7948271   4.163   6.727   5.208 -0.2094  0.0361  0.0568
   97MOL    C8048272   4.210   6.660   5.325 -0.2098  0.0056 -0.0632
   97MOL    C8148273   4.096   6.565   5.365 -0.1492  0.2581  0.2077
   97MOL    C8248274   3.966   6.637   5.405 -0.2132  0.0635  0.2114
   97MOL    C8348275   3.849   6.540   5.404  0.1566  0.2884 -0.1971
   97MOL    C8448276   3.736   6.588   5.497  0.3829  0.2336  0.6018
   97MOL    C8548277   3.646   6.473   5.553  0.3901  0.6321 -0.4715
   97MOL    H8648278   4.224   6.751   4.979 -1.2227  0.8207  2.0541
   97MOL    H8748279   4.354   6.857   4.976 -0.1601 -1.0504 -2.1014
   97MOL    H8848280   4.307   6.879   5.231  2.1457 -1.2218 -2.4271
   97MOL    H8948281   4.236   6.735   5.399 -1.3822  0.5432 -0.1868
   97MOL    H9048282   4.299   6.598   5.319 -0.8794 -1.0038  0.3331
   97MOL    H9148283   4.127   6.500   5.447 -0.5683  1.2241  1.1294
   97MOL    H9248284   4.085   6.504   5.275 -0.3985 -1.2559  1.2478
   97MOL    H9348285   3.977   6.681   5.504 -1.8935  1.8489 -0.3659
   97MOL    H9448286   3.947   6.720   5.337  0.7173 -1.3630 -1.8745
   97MOL    H9548287   3.815   6.515   5.303  2.2387 -1.6550 -0.4841
   97MOL    H9648288   3.886   6.447   5.448  1.8303 -0.0556 -2.2461
   97MOL    H9748289   3.787   6.640   5.578 -0.2384  4.3689 -1.5327
   97MOL    H9848290   3.683   6.668   5.444  1.1834  1.1648  1.1844
   97MOL    H9948291   3.583   6.432   5.474 -0.0607  1.2893 -0.4611
   97MOL   H10048292   3.693   6.389   5.604  1.2250 -0.4026 -2.8895
   97MOL   H10148293   3.575   6.522   5.620 -0.1839 -0.1165 -0.5233
   97MOL   C10248294   4.142   6.956   5.135 -0.0610  0.8134  0.6284
   97MOL   C10348295   4.200   7.082   5.067  0.6315 -1.0689 -0.0112
   97MOL   O10448296   4.099   7.183   5.047 -0.1964 -0.9399  0.2623
   97MOL   C10548297   4.045   7.193   4.914 -0.7474  0.3450 -0.3811
   97MOL   C10648298   3.933   7.304   4.927  0.1573  0.3479 -0.1843
   97MOL   C10748299   3.992   7.434   4.967  0.5258 -0.5955  0.1846
   97MOL   C10848300   3.883   7.539   4.993 -0.3649 -0.2560  0.1653
   97MOL   C10948301   3.933   7.670   5.049  0.8421  0.0696 -0.1071
   97MOL   C11048302   4.019   7.658   5.174  0.1139  0.0239 -0.0619
   97MOL   H11148303   4.057   6.919   5.078  1.4915 -1.9454  0.0200
   97MOL   H11248304   4.104   6.997   5.229  0.8034 -2.0657  2.3160
   97MOL   H11348305   4.236   7.051   4.969 -1.5315  0.9357 -1.5075
   97MOL   H11448306   3.993   7.108   4.871  0.4388 -0.2918 -0.5701
   97MOL   H11548307   4.117   7.223   4.839  1.3052  1.7216  2.0485
   97MOL   H11648308   3.854   7.282   4.999 -1.2895 -0.3090 -1.9395
   97MOL   H11748309   3.888   7.318   4.829  0.6267  1.2945 -0.2720
   97MOL   H11848310   4.043   7.414   5.062 -1.5986 -1.3316  1.2201
   97MOL   H11948311   4.067   7.458   4.892 -0.9189 -0.0769 -1.0928
   97MOL   H12048312   3.829   7.548   4.899 -0.6927 -0.8837  0.2898
   97MOL   H12148313   3.803   7.501   5.056 -1.2413  0.2077 -0.6569
   97MOL   H12248314   3.999   7.715   4.974  0.7354  2.4820  1.1913
   97MOL   H12348315   3.851   7.742   5.057  1.3476  0.7111 -0.5708
   97MOL   H12448316   3.956   7.614   5.251 -0.0820  0.9248  0.3065
   97MOL   H12548317   4.109   7.597   5.165  0.4321  0.3853  0.5816
   97MOL   H12648318   4.049   7.754   5.217 -1.3313  1.3331 -1.9062
   97MOL   C12748319   4.315   7.153   5.138 -0.0711  0.2282  0.1247
   97MOL   C12848320   4.404   7.236   5.045  0.1011 -0.5183 -0.0912
   97MOL   O12948321   4.529   7.260   5.093 -0.2636  0.3942 -0.7179
   97MOL   C13048322   4.629   7.164   5.067  0.9709 -0.0334  0.5930
   97MOL   C13148323   4.762   7.213   5.116 -0.3330 -0.2314 -0.2232
   97MOL   C13248324   4.749   7.231   5.272 -0.2082 -0.2919  0.2115
   97MOL   C13348325   4.879   7.257   5.350 -0.2495 -0.3055 -0.2831
   97MOL   C13448326   4.857   7.265   5.498 -0.5222  0.4053  0.8550
   97MOL   C13548327   4.972   7.312   5.576 -1.0902 -0.0762 -0.4365
   97MOL   H13648328   4.280   7.206   5.227  0.6873 -0.0254  0.5833
   97MOL   H13748329   4.385   7.078   5.176 -0.5507 -0.7315 -0.8351
   97MOL   H13848330   4.411   7.180   4.952  0.6181  0.7638 -0.8343
   97MOL   H13948331   4.637   7.142   4.961  0.3302 -1.0257  0.7469
   97MOL   H14048332   4.603   7.070   5.117 -0.2398  0.4588  0.9034
   97MOL   H14148333   4.791   7.307   5.070  2.3299 -1.2365 -0.7116
   97MOL   H14248334   4.837   7.140   5.086 -0.5926 -2.4449  4.0471
   97MOL   H14348335   4.679   7.313   5.283  0.6275  0.1673  2.1570
   97MOL   H14448336   4.696   7.144   5.311 -1.3195  0.6836  0.8781
   97MOL   H14548337   4.963   7.192   5.328  0.0073 -0.4513  1.1036
   97MOL   H14648338   4.923   7.354   5.325 -0.8452  0.6272  2.1494
   97MOL   H14748339   4.767   7.323   5.518 -1.0158  0.0462 -0.2612
   97MOL   H14848340   4.834   7.162   5.525 -0.9444  0.8981  2.4256
   97MOL   H14948341   5.062   7.251   5.580 -1.9181 -1.4290 -1.8759
   97MOL   H15048342   5.004   7.405   5.529  0.3976 -0.0123  0.6670
   97MOL   H15148343   4.944   7.340   5.678  1.1699  2.0064 -0.3425
   97MOL   C15248344   4.337   7.374   5.012  0.3429  0.2716 -0.6016
   97MOL   C15348345   4.403   7.441   4.895  0.6413  0.2277  0.2624
   97MOL   O15448346   4.350   7.378   4.786 -0.6665  0.2129  0.7324
   97MOL   C15548347   4.438   7.354   4.681 -0.7864 -0.4247 -0.0778
   97MOL   C15648348   4.355   7.321   4.568 -0.6439 -0.2447  0.2952
   97MOL   C15748349   4.434   7.302   4.434 -0.0655 -0.0641  0.0701
   97MOL   C15848350   4.347   7.270   4.312  0.0477  0.4835 -0.3487
   97MOL   C15948351   4.429   7.227   4.191  0.5039 -0.5939  0.5237
   97MOL   C16048352   4.350   7.219   4.061 -0.1861  0.6218  0.1947
   97MOL   H16148353   4.234   7.356   4.984  0.2812  0.7194 -0.6747
   97MOL   H16248354   4.342   7.448   5.092 -2.4657 -1.0047  0.7894
   97MOL   H16348355   4.511   7.428   4.903  0.5308 -1.3928 -0.6531
   97MOL   H16448356   4.504   7.274   4.713  2.6751  2.4885  0.4212
   97MOL   H16548357   4.501   7.438   4.652 -0.0718 -1.0564 -0.3552
   97MOL   H16648358   4.292   7.408   4.550  0.8394  0.9740  0.9177
   97MOL   H16748359   4.286   7.238   4.580 -2.5944  0.9924 -2.0413
   97MOL   H16848360   4.483   7.397   4.414 -0.2364  0.0087 -0.0058
   97MOL   H16948361   4.509   7.226   4.455 -0.4104  0.1822  2.4213
   97MOL   H17048362   4.284   7.185   4.339  1.1229 -0.1121  0.3235
   97MOL   H17148363   4.268   7.343   4.297 -0.5162  0.4519  2.2606
   97MOL   H17248364   4.514   7.293   4.176  0.3527 -1.0091 -2.5276
   97MOL   H17348365   4.465   7.127   4.214  0.6883 -0.7878 -0.5852
   97MOL   H17448366   4.267   7.149   4.058 -0.1933  0.6773 -1.2174
   97MOL   H17548367   4.301   7.316   4.059 -1.4737 -0.0037  0.9935
   97MOL   H17648368   4.426   7.210   3.983 -0.3890 -0.7802  0.1494
   97MOL   C17748369   4.387   7.596   4.877  0.6631 -0.1615 -0.9480
   97MOL   C17848370   4.444   7.684   4.990  0.3568 -0.7823  0.2958
   97MOL   O17948371   4.586   7.657   4.984 -0.2333  0.7147 -0.0172
   97MOL   C18048372   4.636   7.601   5.099  0.1582  0.8004  0.8022
   97MOL   C18148373   4.789   7.592   5.077  0.4548 -0.0081 -0.7911
   97MOL   C18248374   4.823   7.531   4.942 -0.0018  0.9415 -0.3491
   97MOL   C18348375   4.972   7.505   4.916 -0.1186 -0.3940 -0.0692
   97MOL   C18448376   4.990   7.458   4.772  0.2943 -0.2168  0.2795
   97MOL   C18548377   4.962   7.308   4.744 -0.0492 -0.7513  0.3406
   97MOL   H18648378   4.440   7.630   4.788  0.1175 -0.6494 -1.4715
   97MOL   H18748379   4.281   7.618   4.862  1.1586  0.5179 -3.7859
   97MOL   H18848380   4.398   7.660   5.086 -0.6523 -1.8124 -0.4388
   97MOL   H18948381   4.603   7.498   5.108 -0.1580  0.8464  0.1441
   97MOL   H19048382   4.608   7.658   5.188  0.4686  0.3386  1.1949
   97MOL   H19148383   4.838   7.528   5.150 -0.9616 -0.3684 -0.1498
   97MOL   H19248384   4.828   7.694   5.082  1.2503 -0.2801 -1.3045
   97MOL   H19348385   4.753   7.455   4.907  2.1932 -0.4095 -1.9055
   97MOL   H19448386   4.799   7.600   4.861  2.7811  0.4532 -1.6380
   97MOL   H19548387   5.024   7.597   4.943 -0.4780 -0.5691  1.2187
   97MOL   H19648388   5.004   7.432   4.990  0.8875  0.3457  0.2339
   97MOL   H19748389   4.931   7.517   4.701  0.0040 -1.0087 -0.1384
   97MOL   H19848390   5.095   7.472   4.746 -0.0618  1.2276 -0.4520
   97MOL   H19948391   5.034   7.251   4.804  1.4537  0.3930 -0.3316
   97MOL   H20048392   4.858   7.284   4.767  0.2000 -0.8267  1.4083
   97MOL   H20148393   4.987   7.287   4.640 -2.7318 -0.3268 -0.4163
   97MOL   C20248394   4.415   0.057   4.966 -0.4317 -0.1027  0.3521
   97MOL   C20348395   4.460   0.149   5.081  0.3494 -0.2701  0.3662
   97MOL   O20448396   4.364   0.149   5.187  0.3667  0.4045 -0.3625
   97MOL   C20548397   4.421   0.148   5.314  0.4259  0.1475 -0.2175
   97MOL   C20648398   4.320   0.095   5.408  0.1651 -0.0224 -0.5197
   97MOL   C20748399   4.182   0.164   5.398  0.2651  1.0375 -0.1983
   97MOL   C20848400   4.081   0.098   5.498 -0.7120 -0.7657 -0.3763
   97MOL   C20948401   3.943   0.166   5.487  0.2657  0.5853  0.4581
   97MOL   C21048402   3.839   0.088   5.566 -0.0854  0.4779 -0.7776
   97MOL   H21148403   4.466   0.080   4.872 -0.4115 -2.9110 -0.3668
   97MOL   H21248404   4.311   0.080   4.945 -0.3199 -1.9441 -2.5971
   97MOL   H21348405   4.562   0.139   5.117  0.5371 -1.2044 -0.4073
   97MOL   H21448406   4.444   0.252   5.339  0.9145  0.4768 -1.9489
   97MOL   H21548407   4.516   0.097   5.329 -0.6383 -2.2928 -1.4914
   97MOL   H21648408   4.355   0.099   5.511  0.9702  1.1829 -0.8304
   97MOL   H21748409   4.305   7.769   5.376  1.1498 -0.7234  1.1868
   97MOL   H21848410   4.179   0.272   5.406 -0.4064  1.1895 -2.3266
   97MOL   H21948411   4.141   0.146   5.298 -0.2537 -0.4653  0.2607
   97MOL   H22048412   4.060   7.772   5.470  0.3932 -1.0270 -0.2592
   97MOL   H22148413   4.129   0.095   5.596  1.3640 -0.2165 -1.3378
   97MOL   H22248414   3.940   0.264   5.534 -3.0659  0.9952 -0.4835
   97MOL   H22348415   3.924   0.178   5.380 -0.0149  1.2496  0.5773
   97MOL   H22448416   3.864   0.070   5.670 -0.0856 -2.1696 -1.1773
   97MOL   H22548417   3.743   0.137   5.554  0.1765  1.1611 -0.1270
   97MOL   H22648418   3.843   7.760   5.537  1.7648 -0.5123  2.8780
   97MOL   C22748419   4.442   0.301   5.037 -0.5293  0.2520 -0.2083
   97MOL   C22848420   4.558   0.362   4.954 -0.2784 -0.3522  0.2336
   97MOL   O22948421   4.539   0.307   4.826 -0.0311 -0.5697  0.0054
   97MOL   C23048422   4.660   0.281   4.761  0.6358 -0.3918 -0.2500
   97MOL   C23148423   4.632   0.237   4.619  0.1254 -0.5307  0.1475
   97MOL   C23248424   4.587   0.087   4.605  0.1638 -0.3028 -0.0527
   97MOL   C23348425   4.538   0.048   4.462  0.2004 -0.6122  0.3426
   97MOL   C23448426   4.470   7.687   4.460 -0.2927  0.0413 -0.2806
   97MOL   C23548427   4.405   7.658   4.321 -0.5252  0.1123  0.0683
   97MOL   H23648428   4.358   0.312   4.969 -2.5240 -0.7911  1.9990
   97MOL   H23748429   4.427   0.361   5.126  2.4962 -0.4635  0.8547
   97MOL   H23848430   4.657   0.340   4.994 -0.8150 -1.3624  1.0425
   97MOL   H23948431   4.706   0.195   4.809 -1.9292 -2.2714 -1.0435
   97MOL   H24048432   4.723   0.370   4.758 -2.6111  2.2282  3.9774
   97MOL   H24148433   4.722   0.249   4.558  1.6563 -0.4701  2.3605
   97MOL   H24248434   4.555   0.304   4.580  0.7834 -0.6883 -1.4446
   97MOL   H24348435   4.664   0.018   4.641  0.0150 -1.1735 -1.3739
   97MOL   H24448436   4.500   0.072   4.668 -1.0178 -1.9947 -2.0145
   97MOL   H24548437   4.465   0.121   4.427 -1.1762 -1.1022  2.1320
   97MOL   H24648438   4.616   0.040   4.386 -0.3966 -1.6716 -0.1550
   97MOL   H24748439   4.545   7.614   4.489  0.4716  1.1549  0.6104
   97MOL   H24848440   4.395   7.689   4.539  1.3040 -1.3821  1.3190
   97MOL   H24948441   4.339   7.739   4.290 -0.1698  0.6511  0.7002
   97MOL   H25048442   4.483   7.647   4.246  0.7559 -1.1424  1.5449
   97MOL   H25148443   4.353   7.566   4.346  1.9519 -1.4556 -0.3832
   97MOL   C25248444   4.549   0.515   4.951 -0.2117 -0.8599 -0.2764
   97MOL   C25348445   4.606   0.579   5.072 -0.3603  0.9255  0.4586
   97MOL   O25448446   4.540   0.702   5.111 -0.0163  0.3399 -0.6497
   97MOL   C25548447   4.529   0.805   5.012 -0.0430  0.2418 -0.2592
   97MOL   C25648448   4.467   0.918   5.084  0.3329  0.4135  0.6012
   97MOL   C25748449   4.327   0.892   5.138  0.1145  0.2508  0.7472
   97MOL   C25848450   4.256   1.018   5.194 -0.4017  0.2486 -0.2680
   97MOL   C25948451   4.111   0.984   5.233  0.0187  0.0184 -0.7630
   97MOL   C26048452   4.051   1.077   5.336  0.4892  0.0871 -0.5024
   97MOL   H26148453   4.605   0.559   4.868 -0.1546 -1.4731 -0.5639
   97MOL   H26248454   4.443   0.540   4.938  0.2183  0.9097 -0.5659
   97MOL   H26348455   4.591   0.522   5.164 -0.4311 -0.6430 -0.5182
   97MOL   H26448456   4.459   0.774   4.934 -0.4867  1.2274 -0.2621
   97MOL   H26548457   4.625   0.836   4.969 -0.8760  0.6611 -1.8710
   97MOL   H26648458   4.478   0.994   5.007 -0.8592  0.0460  0.0569
   97MOL   H26748459   4.530   0.945   5.169 -2.0622  0.3485  2.4511
   97MOL   H26848460   4.278   0.846   5.052 -2.1402  2.2854  0.8842
   97MOL   H26948461   4.326   0.818   5.218 -0.3779  0.6796  1.1430
   97MOL   H27048462   4.308   1.045   5.285  2.6009 -0.9989 -1.5494
   97MOL   H27148463   4.261   1.097   5.119  0.7015  1.0014  0.5873
   97MOL   H27248464   4.063   0.973   5.136  0.9375  1.6882 -1.4257
   97MOL   H27348465   4.100   0.884   5.275  2.2070 -0.7195 -1.8738
   97MOL   H27448466   3.948   1.049   5.359  0.8779 -1.4741 -0.6057
   97MOL   H27548467   4.101   1.084   5.432  0.0229  1.0712 -0.3228
   97MOL   H27648468   4.059   1.179   5.299  0.6234  0.1122 -0.4011
   97MOL   C27748469   4.762   0.597   5.060  0.2051 -0.2488 -0.3937
   97MOL   C27848470   4.828   0.634   5.190 -0.6797 -0.1381  0.0773
   97MOL   O27948471   4.844   0.506   5.261  0.4255  0.3886  0.3460
   97MOL   C28048472   4.796   0.504   5.391 -0.8819 -0.1793  0.0522
   97MOL   C28148473   4.834   0.367   5.450 -1.0501 -0.0077  0.1657
   97MOL   C28248474   4.763   0.253   5.379 -0.3891  0.3012 -0.3485
   97MOL   C28348475   4.828   0.121   5.375 -0.2862  0.9141  0.0730
   97MOL   C28448476   4.863   0.056   5.517 -0.0812  0.1315 -0.1723
   97MOL   C28548477   4.926   7.694   5.508 -0.8110 -0.2020 -0.7012
   97MOL   H28648478   4.808   0.507   5.020  1.8238  1.6287 -2.8339
   97MOL   H28748479   4.775   0.664   4.975  0.7500 -1.7425 -1.4964
   97MOL   H28848480   4.756   0.698   5.241 -0.2646  0.2024  0.2374
   97MOL   H28948481   4.688   0.516   5.387 -0.8449 -0.0839 -0.7728
   97MOL   H29048482   4.834   0.584   5.454 -2.0585 -1.4737  2.4419
   97MOL   H29148483   4.796   0.361   5.552 -2.9255  1.0282 -0.4521
   97MOL   H29248484   4.943   0.360   5.448 -1.1204 -1.0264 -2.8514
   97MOL   H29348485   4.662   0.250   5.419 -0.0889 -0.8841  0.3385
   97MOL   H29448486   4.748   0.278   5.274  1.0292 -1.1442 -0.9253
   97MOL   H29548487   4.763   0.051   5.322 -0.8811  2.4307 -1.2541
   97MOL   H29648488   4.919   0.130   5.317 -1.3189  2.8200 -1.3101
   97MOL   H29748489   4.940   0.119   5.562 -1.8953  1.5151  1.0608
   97MOL   H29848490   4.780   0.055   5.588 -0.6996 -0.5337 -0.9014
   97MOL   H29948491   5.013   7.697   5.442 -1.0017 -2.6121 -1.0828
   97MOL   H30048492   4.959   7.654   5.604 -1.0458  0.6056 -0.2789
   97MOL   H30148493   4.860   7.615   5.475  0.4886 -0.4205 -2.8777
   97MOL   C30248494   4.965   0.696   5.171 -0.1848 -0.6077 -0.3947
   97MOL   C30348495   5.033   0.743   5.300 -0.7949 -0.2239 -0.9337
   97MOL   O30448496   4.948   0.835   5.369  0.1422 -0.3099 -0.0767
   97MOL   C30548497   4.973   0.840   5.509 -0.0200 -0.3238 -0.3037
   97MOL   C30648498   4.869   0.936   5.575  0.8644 -0.4729 -0.2435
   97MOL   C30748499   4.718   0.891   5.576  0.1850  0.1980 -0.3123
   97MOL   C30848500   4.631   1.019   5.595 -0.3204  0.0756  1.1114
   97MOL   C30948501   4.488   1.013   5.550 -0.5923 -0.1890  0.0672
   97MOL   C31048502   4.397   0.925   5.639 -0.4891  0.0387 -0.7025
   97MOL   H31148503   5.036   0.632   5.118 -0.3584  0.1031 -1.4997
   97MOL   H31248504   4.952   0.789   5.116  1.3705  0.3326  0.7879
   97MOL   H31348505   5.040   0.661   5.371  1.7026  1.2106  0.5381
   97MOL   H31448506   5.076   0.874   5.517 -0.5512  1.2993 -0.2103
   97MOL   H31548507   4.971   0.743   5.559 -0.9233  0.0870  0.4846
   97MOL   H31648508   4.890   1.037   5.541  0.9964  0.3756  2.2915
   97MOL   H31748509   4.904   0.944   5.678  0.7838 -1.2621 -0.1506
   97MOL   H31848510   4.686   0.857   5.477 -0.5687 -1.1296  0.3823
   97MOL   H31948511   4.690   0.821   5.655 -2.5194  1.8799  0.2727
   97MOL   H32048512   4.629   1.055   5.698  0.1858  1.9792  0.4824
   97MOL   H32148513   4.678   1.097   5.535  1.5431  0.4933  3.0821
   97MOL   H32248514   4.457   1.117   5.548  2.5984  0.8238  0.1579
   97MOL   H32348515   4.467   0.966   5.454  2.2952 -2.3428  0.3918
   97MOL   H32448516   4.293   0.932   5.606 -1.2183  1.2976  1.7072
   97MOL   H32548517   4.421   0.820   5.627 -0.9445  0.0026 -1.3350
   97MOL   H32648518   4.404   0.962   5.742 -0.1431  0.4091 -0.8594
   97MOL   C32748519   5.171   0.809   5.274 -0.7327 -0.3160  0.0333
   97MOL   C32848520   5.281   0.751   5.366 -0.1794 -0.3430 -0.1114
   97MOL   O32948521   5.343   0.633   5.329  0.6600  0.3072 -0.1894
   97MOL   C33048522   5.266   0.511   5.323  0.1673  0.0371  0.7891
   97MOL   C33148523   5.365   0.397   5.294  0.3412 -0.3500 -0.3090
   97MOL   C33248524   5.300   0.259   5.311 -0.0259  0.3264  0.5140
   97MOL   C33348525   5.401   0.147   5.274  0.0950  0.4743 -0.5161
   97MOL   C33448526   5.365   0.001   5.316  0.0365  0.0649  0.4440
   97MOL   C33548527   5.254   7.715   5.241  0.0902 -0.4425  0.4859
   97MOL   H33648528   5.172   0.918   5.285  0.8788 -0.1686 -1.3462
   97MOL   H33748529   5.196   0.796   5.168 -0.9365  0.0020 -0.0564
   97MOL   H33848530   5.239   0.748   5.466 -0.7956 -1.6968 -0.4083
   97MOL   H33948531   5.189   0.514   5.245 -0.3756 -1.4155  1.2551
   97MOL   H34048532   5.214   0.481   5.414  0.5440 -0.1905  0.9320
   97MOL   H34148533   5.439   0.399   5.374 -1.0076  0.6302  0.9123
   97MOL   H34248534   5.415   0.412   5.197 -0.7730 -1.4788 -1.0686
   97MOL   H34348535   5.288   0.240   5.418 -3.0324 -1.2813 -0.0634
   97MOL   H34448536   5.207   0.244   5.257  0.2440  3.8483 -1.0565
   97MOL   H34548537   5.413   0.151   5.166 -0.4854 -0.8285 -0.6399
   97MOL   H34648538   5.490   0.179   5.329 -0.4519  1.6171 -0.2786
   97MOL   H34748539   5.457   7.720   5.312 -0.3531 -0.7440  2.5861
   97MOL   H34848540   5.343   7.773   5.423 -1.0238 -1.4634  0.1773
   97MOL   H34948541   5.283   7.703   5.137  0.8838  0.0607  0.6490
   97MOL   H35048542   5.226   7.616   5.280  1.1536 -0.8094  0.3241
   97MOL   H35148543   5.160   7.771   5.240  0.6535  0.4934 -0.0382
   97MOL   C35248544   5.399   0.852   5.383  0.6119 -0.1608 -0.1667
   97MOL   C35348545   5.504   0.815   5.486  0.7726 -0.3840 -0.4857
   97MOL   O35448546   5.449   0.829   5.618  0.0665  0.0879 -0.6960
   97MOL   C35548547   5.480   0.723   5.703  0.1467  0.5734 -0.5703
   97MOL   C35648548   5.388   0.605   5.662 -0.5578  0.1823 -0.5136
   97MOL   C35748549   5.393   0.483   5.747  0.2386  0.1906  0.1757
   97MOL   C35848550   5.314   0.368   5.689  0.0257  0.1894 -0.0848
   97MOL   C35948551   5.318   0.232   5.755 -0.4195 -0.0156 -0.1922
   97MOL   C36048552   5.201   0.138   5.718  0.1179  0.0636  0.9051
   97MOL   H36148553   5.437   0.877   5.284 -1.4982  1.1426 -0.6786
   97MOL   H36248554   5.368   0.952   5.414  1.4909 -0.4629  1.7650
   97MOL   H36348555   5.533   0.712   5.465 -0.7093 -1.1112  0.9320
   97MOL   H36448556   5.450   0.759   5.802  0.8545  0.1831 -0.2113
   97MOL   H36548557   5.583   0.688   5.694 -0.3730 -0.4332 -2.7687
   97MOL   H36648558   5.401   0.570   5.559 -1.1553 -0.4576 -0.3757
   97MOL   H36748559   5.285   0.642   5.664 -1.0114 -1.1305  3.2133
   97MOL   H36848560   5.496   0.450   5.761  0.1346  0.2225  1.0409
   97MOL   H36948561   5.360   0.507   5.849  1.7082 -0.4662  0.8147
   97MOL   H37048562   5.214   0.411   5.684 -0.1844 -0.0407  1.7841
   97MOL   H37148563   5.340   0.372   5.583 -0.0151 -1.9247 -0.2052
   97MOL   H37248564   5.420   0.194   5.755 -0.2447  0.4581 -0.4675
   97MOL   H37348565   5.308   0.247   5.862  1.9152  2.7019 -0.3056
   97MOL   H37448566   5.104   0.181   5.741  0.2745 -0.5915  2.9406
   97MOL   H37548567   5.204   0.107   5.614  2.4942 -2.9130  1.7845
   97MOL   H37648568   5.208   0.046   5.777  0.8868 -1.3075 -1.2740
   97MOL   C37748569   5.633   0.888   5.478 -0.1397 -0.0587  1.0002
   97MOL   C37848570   5.763   0.820   5.522 -0.0674 -0.7064 -0.1913
   97MOL   O37948571   5.802   0.887   5.647  0.1705 -0.6777 -0.5638
   97MOL   C38048572   5.856   1.022   5.641 -0.0189  0.2240 -0.3341
   97MOL   C38148573   5.860   1.076   5.789 -0.6526 -0.6746 -0.6001
   97MOL   C38248574   5.977   1.191   5.804  0.0460  0.3560 -0.6232
   97MOL   C38348575   6.014   1.234   5.946  0.7826  0.0113  0.7825
   97MOL   C38448576   6.103   1.360   5.937  0.2986  0.0282  0.1202
   97MOL   C38548577   6.173   1.397   6.066  0.2453 -0.3983 -0.6235
   97MOL   H38648578   5.647   0.904   5.371 -1.6197 -0.8637  0.6777
   97MOL   H38748579   5.622   0.991   5.513  0.5447  0.9097 -1.5478
   97MOL   H38848580   5.750   0.714   5.546  0.2546 -0.8483 -0.6281
   97MOL   H38948581   5.800   1.090   5.576 -0.2807  0.6207  0.2974
   97MOL   H39048582   5.953   1.009   5.593  0.7536 -0.9536  1.5075
   97MOL   H39148583   5.867   0.988   5.852 -1.4765  0.8169  1.6420
   97MOL   H39248584   5.771   1.128   5.823 -0.7225 -1.6037  0.6642
   97MOL   H39348585   6.070   1.160   5.756  0.3173  1.8997 -1.1389
   97MOL   H39448586   5.952   1.283   5.751 -0.7852  1.9680  2.4747
   97MOL   H39548587   5.940   1.255   6.023  1.3882  3.1665  0.5641
   97MOL   H39648588   6.077   1.153   5.983  1.2873  0.6273  1.2854
   97MOL   H39748589   6.174   1.361   5.854 -3.0439 -1.2424 -2.8571
   97MOL   H39848590   6.034   1.442   5.915 -1.4615 -1.7218 -1.0388
   97MOL   H39948591   6.092   1.397   6.140 -0.2160 -2.0841 -1.1057
   97MOL   H40048592   6.253   1.326   6.086  0.3379  0.2894  1.6153
   97MOL   H40148593   6.232   1.488   6.052  0.6731 -0.7323 -0.9859
   97MOL   C40248594   5.878   0.823   5.429  0.4678  0.1370  0.1418
   97MOL   C40348595   5.865   0.722   5.308 -0.0415  0.0176  0.1277
   97MOL   O40448596   5.842   0.598   5.365  0.4122  0.0382  0.3442
   97MOL   C40548597   5.731   0.522   5.303  0.3612  0.0031 -0.5861
   97MOL   C40648598   5.733   0.378   5.356 -0.2107 -0.0779 -0.3100
   97MOL   C40748599   5.770   0.363   5.504  0.3020 -0.2739 -0.2063
   97MOL   C40848600   5.718   0.221   5.559  0.7270 -0.0935 -0.3882
   97MOL   C40948601   5.791   0.106   5.495 -0.3093 -0.5477 -0.4284
   97MOL   C41048602   5.758   7.743   5.548  0.3359  1.0176 -0.2963
   97MOL   H41148603   5.966   0.786   5.482  0.6276  0.9774  0.4794
   97MOL   H41248604   5.899   0.924   5.394  0.2574 -0.4511 -1.7197
   97MOL   H41348605   5.781   0.753   5.247  1.9723  4.1149 -0.7313
   97MOL   H41448606   5.729   0.530   5.195 -0.1353  2.3993 -0.4402
   97MOL   H41548607   5.647   0.581   5.338 -0.0070 -1.2087  0.6118
   97MOL   H41648608   5.809   0.322   5.302 -0.4056 -0.1751 -0.4832
   97MOL   H41748609   5.639   0.330   5.329  0.3779 -0.5340 -1.5799
   97MOL   H41848610   5.876   0.385   5.519  0.3610 -1.4189  1.2059
   97MOL   H41948611   5.718   0.440   5.560  0.5341  1.0357 -1.7846
   97MOL   H42048612   5.730   0.224   5.667 -1.1958 -0.5700 -0.1368
   97MOL   H42148613   5.612   0.219   5.534  0.4748 -1.8173  0.7633
   97MOL   H42248614   5.778   0.107   5.386 -1.0088 -1.6305 -0.3688
   97MOL   H42348615   5.895   0.133   5.512 -0.0008 -1.7523 -0.3548
   97MOL   H42448616   5.802   7.667   5.482 -1.0509 -0.5151  0.4922
   97MOL   H42548617   5.781   7.738   5.654 -0.9919 -1.5964 -0.0735
   97MOL   H42648618   5.650   7.727   5.546  0.3897  0.0452  2.3224
   97MOL   C42748619   5.993   0.719   5.222  0.3075  0.4844 -0.2813
   97MOL   C42848620   5.979   0.644   5.089 -0.6004  0.1606  0.0924
   97MOL   O42948621   6.047   0.720   4.992  0.1132 -0.5111 -0.1688
   97MOL   C43048622   5.979   0.830   4.935  0.0811  0.2232  0.3325
   97MOL   C43148623   5.869   0.792   4.836 -0.0335  0.4015  0.2768
   97MOL   C43248624   5.919   0.742   4.698  0.2197  0.2707 -0.1318
   97MOL   C43348625   5.797   0.734   4.608  0.1326 -0.3905  0.6336
   97MOL   C43448626   5.820   0.696   4.465  0.3147 -0.0409 -0.3100
   97MOL   C43548627   5.830   0.542   4.456 -0.0395  0.2385 -0.0352
   97MOL   H43648628   6.008   0.821   5.185  2.3502  0.3461  0.1226
   97MOL   H43748629   6.087   0.712   5.277  1.7555  2.1141 -2.4460
   97MOL   H43848630   5.872   0.631   5.072 -0.6451  0.7089 -0.0638
   97MOL   H43948631   6.059   0.901   4.912 -0.2825  0.3902 -0.4093
   97MOL   H44048632   5.926   0.899   5.002 -2.7240  0.2627 -1.8464
   97MOL   H44148633   5.822   0.889   4.822  1.5747  1.3289  1.1526
   97MOL   H44248634   5.792   0.732   4.885  0.7393  0.3733  1.4785
   97MOL   H44348635   5.991   0.812   4.656 -0.3105  0.4240 -0.7883
   97MOL   H44448636   5.978   0.650   4.698  1.7866  1.2596 -0.0292
   97MOL   H44548637   5.713   0.685   4.657 -1.6568  2.3250  0.3481
   97MOL   H44648638   5.755   0.834   4.605  0.3983 -0.3416 -3.3813
   97MOL   H44748639   5.731   0.710   4.405 -0.0851  2.0557  0.7330
   97MOL   H44848640   5.904   0.744   4.416  1.3357 -0.9404  0.5214
   97MOL   H44948641   5.909   0.504   4.520 -0.3564 -0.4918 -0.0725
   97MOL   H45048642   5.734   0.497   4.483  0.3876 -1.2039 -0.8930
   97MOL   H45148643   5.861   0.514   4.356  1.5781 -0.7045  0.7195
   97MOL   C45248644   6.031   0.496   5.085 -0.6161 -0.0357  0.2213
   97MOL   C45348645   5.983   0.430   4.960  0.4472  0.4343  0.5759
   97MOL   O45448646   5.842   0.407   4.959 -0.2138 -0.0525  0.7938
   97MOL   C45548647   5.784   0.408   4.826 -0.3174  0.0489  0.9933
   97MOL   C45648648   5.672   0.307   4.803 -0.3823 -0.7594 -0.1019
   97MOL   C45748649   5.727   0.159   4.787  0.6829 -0.5522  0.4099
   97MOL   C45848650   5.619   0.067   4.732  0.2606  0.4479  0.2856
   97MOL   C45948651   5.488   0.051   4.817  0.1226 -0.0980 -0.0916
   97MOL   C46048652   5.411   7.699   4.781  0.3177  0.5182  0.1854
   97MOL   H46148653   6.140   0.500   5.082 -0.6718  1.6337 -0.1227
   97MOL   H46248654   6.003   0.441   5.174 -2.1954  0.3667 -0.0114
   97MOL   H46348655   6.003   0.494   4.874 -1.4362  0.4612  0.1245
   97MOL   H46448656   5.858   0.392   4.747 -2.8620  1.5513 -1.7852
   97MOL   H46548657   5.752   0.510   4.804  0.4417  0.0154 -0.3272
   97MOL   H46648658   5.621   0.351   4.717  1.6691  3.0486  0.5234
   97MOL   H46748659   5.597   0.318   4.881 -2.0867  1.4458 -1.9417
   97MOL   H46848660   5.811   0.168   4.718  0.7618 -2.4836  0.2416
   97MOL   H46948661   5.763   0.109   4.876 -0.2588 -2.3063 -0.1677
   97MOL   H47048662   5.584   0.102   4.635  0.0738  0.0383  0.2055
   97MOL   H47148663   5.660   7.744   4.719 -0.4149  0.0536  1.1417
   97MOL   H47248664   5.510   0.059   4.924 -0.1025  1.4467 -0.1428
   97MOL   H47348665   5.419   0.133   4.795  0.0433  0.6111  2.6222
   97MOL   H47448666   5.371   7.709   4.680 -0.2629  3.2173  0.6242
   97MOL   H47548667   5.476   7.613   4.794  1.3398  1.3527  0.7817
   97MOL   H47648668   5.320   7.688   4.841  0.1409 -1.9320 -0.4812
   97MOL   C47748669   6.043   0.287   4.946  0.2846 -0.0948 -0.0086
   97MOL   C47848670   6.020   0.179   5.051 -0.6881  0.0192  0.9148
   97MOL   O47948671   6.067   0.053   5.002  0.1799  0.1637  0.2442
   97MOL   C48048672   6.089   7.728   5.099  0.1909  0.3581 -0.4056
   97MOL   C48148673   5.951   7.679   5.170 -0.3957  0.4111  0.4319
   97MOL   C48248674   5.881   7.591   5.060 -0.0176  0.1197  0.1816
   97MOL   C48348675   5.747   7.553   5.108  0.7851  0.6085  0.5639
   97MOL   C48448676   5.681   7.459   5.005 -0.4006  0.6800 -0.4650
   97MOL   C48548677   5.532   7.449   5.035 -0.1804  0.1412  0.0951
   97MOL   H48648678   6.000   0.252   4.853 -2.8822 -0.7743  1.6349
   97MOL   H48748679   6.151   0.287   4.928  0.2481  0.9283 -0.2472
   97MOL   H48848680   6.063   0.208   5.147 -2.6528  2.0296  1.2480
   97MOL   H48948681   6.156   7.771   5.174  0.1978 -0.3150 -0.0261
   97MOL   H49048682   6.141   7.643   5.055 -3.9944 -2.3479 -0.2857
   97MOL   H49148683   5.894   7.766   5.202 -1.0956  0.2903 -0.4569
   97MOL   H49248684   5.971   7.616   5.256  0.0816 -0.7410 -0.4977
   97MOL   H49348685   5.864   7.645   4.967 -0.4547 -1.7914 -0.8881
   97MOL   H49448686   5.944   7.504   5.040  0.2494 -0.2004  2.2870
   97MOL   H49548687   5.754   7.497   5.201  1.1525 -0.0873  0.1192
   97MOL   H49648688   5.681   7.634   5.138 -1.4989 -0.8104 -0.5379
   97MOL   H49748689   5.699   7.501   4.905  1.0835 -0.8970 -0.8878
   97MOL   H49848690   5.735   7.365   5.009  1.3916  1.7164  0.1516
   97MOL   H49948691   5.487   7.547   5.044 -1.3198 -0.4986  1.5280
   97MOL   H50048692   5.481   7.397   4.954  2.2147 -2.8171  0.3630
   97MOL   H50148693   5.510   7.382   5.119  0.8040 -0.8935 -0.4554
   97MOL   H50248694   5.913   0.172   5.072 -0.6240 -0.3056  1.1380
   98MOL     C148695   5.304   0.250   2.858 -0.2386  0.2760  0.4193
   98MOL     C248696   5.211   0.141   2.800  0.5483  0.0192 -0.4339
   98MOL     O348697   5.240   0.135   2.658  0.4359  0.1899 -1.1210
   98MOL     C448698   5.367   0.091   2.615 -0.5657 -0.5635  0.3238
   98MOL     C548699   5.346   0.016   2.483  0.7908  0.0002  0.5301
   98MOL     C648700   5.478   7.729   2.442  0.3806  0.4899 -0.5425
   98MOL     C748701   5.469   7.678   2.296 -0.2450 -0.1068  0.2093
   98MOL     C848702   5.584   7.597   2.238 -0.0706  0.1479  0.9673
   98MOL     C948703   5.725   7.659   2.256  0.9895  0.9531  0.2365
   98MOL    H1048704   5.269   0.349   2.830 -1.3587 -0.3573 -0.4745
   98MOL    H1148705   5.312   0.245   2.967  2.6958 -0.5298  0.2235
   98MOL    H1248706   5.218   0.042   2.845  1.0195 -1.0527 -2.7400
   98MOL    H1348707   5.406   0.020   2.687  0.5530 -0.6352 -0.3490
   98MOL    H1448708   5.446   0.166   2.615 -0.7160 -0.3957  1.3583
   98MOL    H1548709   5.325   0.092   2.408  0.7049  1.9388  2.4460
   98MOL    H1648710   5.267   7.719   2.494  0.5592 -0.1034 -1.6068
   98MOL    H1748711   5.551   0.032   2.434  2.2294 -1.0534  0.2916
   98MOL    H1848712   5.522   7.655   2.509 -0.4018  0.6399  0.1351
   98MOL    H1948713   5.379   7.619   2.276 -0.3842  0.3423 -0.5180
   98MOL    H2048714   5.456   7.763   2.228 -1.7056 -1.5988 -1.4350
   98MOL    H2148715   5.562   7.580   2.133 -2.8265  0.4469  1.4746
   98MOL    H2248716   5.589   7.497   2.282 -0.9538 -0.3186  0.0112
   98MOL    H2348717   5.758   7.664   2.359 -0.3940  2.0644  0.6425
   98MOL    H2448718   5.802   7.599   2.208 -1.0257 -2.0004  0.5677
   98MOL    H2548719   5.724   7.760   2.214  1.4739  1.8717  2.3865
   98MOL    H2648720   5.406   0.223   2.830 -0.1525  1.2163 -0.1908
   98MOL    C2748721   5.067   0.187   2.802 -0.2114  0.0293 -0.2232
   98MOL    C2848722   5.011   0.204   2.946 -0.1258  0.2090 -0.5414
   98MOL    O2948723   5.050   0.327   3.006 -0.2853 -0.1974 -0.4113
   98MOL    C3048724   5.031   0.340   3.144  0.5730 -0.1858 -0.0021
   98MOL    C3148725   5.100   0.465   3.189  0.5112 -0.5914 -0.5252
   98MOL    C3248726   5.248   0.476   3.151 -0.6597  0.3017 -0.0231
   98MOL    C3348727   5.324   0.579   3.239  0.2619 -0.1929 -0.0682
   98MOL    C3448728   5.306   0.720   3.183  0.0679 -0.0214  0.1579
   98MOL    C3548729   5.393   0.827   3.258 -0.7424 -0.2370 -0.3308
   98MOL    H3648730   5.054   0.282   2.750  1.4936 -0.1063 -0.9199
   98MOL    H3748731   5.012   0.113   2.744 -0.7506  0.2810 -0.0340
   98MOL    H3848732   5.061   0.136   3.015 -1.8763 -1.3949 -0.8150
   98MOL    H3948733   5.070   0.254   3.198 -0.8870 -1.8107 -1.4945
   98MOL    H4048734   4.924   0.350   3.164  0.2376  0.4342 -2.0275
   98MOL    H4148735   5.094   0.471   3.297  2.3183  1.4078 -0.5056
   98MOL    H4248736   5.050   0.554   3.151 -0.1335  0.3155  2.3846
   98MOL    H4348737   5.300   0.380   3.156  1.3584  1.4146  1.2269
   98MOL    H4448738   5.243   0.502   3.045 -1.3218  0.0443 -0.0534
   98MOL    H4548739   5.277   0.583   3.337 -0.3574 -0.5611 -0.3485
   98MOL    H4648740   5.426   0.541   3.251  0.5494  1.1169  1.8822
   98MOL    H4748741   5.322   0.722   3.076 -1.7205 -3.2213 -0.2428
   98MOL    H4848742   5.200   0.744   3.185  0.1343  0.3494 -0.6470
   98MOL    H4948743   5.338   0.873   3.340  0.9949  2.3569 -0.5801
   98MOL    H5048744   5.479   0.767   3.287 -0.7196  0.3392  0.8104
   98MOL    H5148745   5.427   0.913   3.202  2.3181 -0.6501  0.8098
   98MOL    C5248746   4.855   0.183   2.950 -0.8364 -0.9103  0.2470
   98MOL    C5348747   4.798   0.098   3.069  0.2267  0.6817  0.1834
   98MOL    O5448748   4.653   0.099   3.062 -0.0905  0.5671  0.6191
   98MOL    C5548749   4.598   0.201   3.144 -0.0511  0.2571  0.0130
   98MOL    C5648750   4.441   0.177   3.176 -0.9087  0.5622 -0.0277
   98MOL    C5748751   4.425   0.036   3.239 -0.5410 -0.4794 -0.0081
   98MOL    C5848752   4.285   0.018   3.297 -0.0950 -0.3343 -0.2393
   98MOL    C5948753   4.253   7.666   3.366  0.5483 -0.3481 -0.5335
   98MOL    C6048754   4.112   7.671   3.427  0.4431 -0.3764  0.1912
   98MOL    H6148755   4.822   0.143   2.854 -0.7735  0.9797 -0.5734
   98MOL    H6248756   4.802   0.278   2.949  1.5049  0.4326 -0.6742
   98MOL    H6348757   4.839   0.136   3.163  0.2451 -3.4384  1.9761
   98MOL    H6448758   4.613   0.298   3.098  0.6132  0.6291  1.0063
   98MOL    H6548759   4.651   0.204   3.239  1.4314 -2.0506 -0.6954
   98MOL    H6648760   4.392   0.181   3.078  1.0834  1.7168 -1.0039
   98MOL    H6748761   4.389   0.254   3.233  1.0254  1.5547  0.3984
   98MOL    H6848762   4.463   7.737   3.171  0.9873  0.8288 -0.6596
   98MOL    H6948763   4.496   0.032   3.322 -0.6624 -0.5503  0.0918
   98MOL    H7048764   4.258   0.101   3.362 -2.5863  0.0217 -1.6469
   98MOL    H7148765   4.209   0.024   3.219  1.0937 -0.6238 -1.4381
   98MOL    H7248766   4.248   7.590   3.288  0.2576 -0.7695 -0.1047
   98MOL    H7348767   4.331   7.635   3.435 -0.1831  3.2097  2.0238
   98MOL    H7448768   4.033   7.714   3.367 -0.5342 -1.6498  0.5433
   98MOL    H7548769   4.090   7.566   3.448 -2.2149 -0.1214 -1.2068
   98MOL    H7648770   4.111   7.728   3.520 -0.5933  1.1240 -0.7368
   98MOL    C7748771   4.847   7.728   3.058 -0.1984  0.8364  0.0505
   98MOL    C7848772   4.819   7.648   3.181  0.4493  0.1903  0.1699
   98MOL    O7948773   4.902   7.696   3.285 -0.5207  0.8044  0.1459
   98MOL    C8048774   4.845   7.710   3.411 -0.1556 -0.8057 -0.1340
   98MOL    C8148775   4.945   7.766   3.515 -0.3942 -0.2805 -0.8908
   98MOL    C8248776   4.901   7.739   3.659  0.1025 -0.7008 -0.3119
   98MOL    C8348777   4.987   0.035   3.764 -0.0810 -0.6525 -0.0144
   98MOL    C8448778   4.934   0.008   3.910  0.5095  0.3605  0.2509
   98MOL    C8548779   5.029   0.048   4.018  0.4304  0.2715 -0.3022
   98MOL    H8648780   4.955   7.731   3.048 -0.1784  1.0275  0.3340
   98MOL    H8748781   4.798   7.681   2.973 -1.5665  1.0669  0.6958
   98MOL    H8848782   4.715   7.671   3.204  0.1602  0.7358 -1.6348
   98MOL    H8948783   4.795   7.620   3.448  0.5076 -1.2737 -0.3704
   98MOL    H9048784   4.754   7.771   3.407 -0.1792 -0.7111  1.5667
   98MOL    H9148785   4.961   0.096   3.500 -3.3696  0.2607 -0.6229
   98MOL    H9248786   5.048   7.732   3.506  0.3199  1.3656  0.5954
   98MOL    H9348787   4.806   0.015   3.662  0.1656 -0.5467 -0.8508
   98MOL    H9448788   4.881   7.633   3.674  2.5084 -0.9415  1.4874
   98MOL    H9548789   5.095   0.024   3.763  0.3887  2.6363  2.2843
   98MOL    H9648790   4.978   0.143   3.752 -1.1827 -0.7676 -0.3023
   98MOL    H9748791   4.842   0.063   3.928  0.9338  1.0564  0.2770
   98MOL    H9848792   4.921   7.678   3.929  1.4626 -0.0589 -1.3342
   98MOL    H9948793   5.084   0.136   3.984 -0.5514  1.1817  0.4140
   98MOL   H10048794   4.984   0.072   4.115 -0.2757  1.4199 -0.8999
   98MOL   H10148795   5.104   7.750   4.040 -0.1342  0.0345  0.8400
   98MOL   C10248796   4.848   7.494   3.167 -0.1311  0.2222 -0.4836
   98MOL   C10348797   4.739   7.418   3.082 -0.2551 -0.0136 -0.1140
   98MOL   O10448798   4.806   7.423   2.953 -0.0938  0.1160 -0.2363
   98MOL   C10548799   4.723   7.401   2.839 -0.1619  0.0466  1.1322
   98MOL   C10648800   4.790   7.475   2.721  0.3828 -0.8522 -1.0352
   98MOL   C10748801   4.732   7.453   2.585 -0.2693  0.0469 -0.5526
   98MOL   C10848802   4.766   7.565   2.482  0.9275 -0.0720 -0.0557
   98MOL   C10948803   4.690   7.539   2.349  0.5662 -0.5969  0.5423
   98MOL   C11048804   4.711   7.636   2.235  0.0011  0.2912 -0.4394
   98MOL   H11148805   4.949   7.480   3.129  0.0768 -1.4174  0.6233
   98MOL   H11248806   4.851   7.437   3.260 -0.9357 -0.8327 -1.0872
   98MOL   H11348807   4.642   7.466   3.076 -0.4297 -0.6125 -2.6779
   98MOL   H11448808   4.634   7.463   2.850  0.8675  1.9307 -0.7128
   98MOL   H11548809   4.707   7.296   2.815  1.2433  0.2405 -0.7902
   98MOL   H11648810   4.899   7.466   2.726  0.3250 -0.5413  0.8984
   98MOL   H11748811   4.787   7.583   2.736  0.9207 -0.9067 -0.5422
   98MOL   H11848812   4.774   7.358   2.552 -2.8945 -0.7015 -1.8755
   98MOL   H11948813   4.626   7.450   2.607  0.1112 -1.3006  1.1606
   98MOL   H12048814   4.747   7.662   2.527  0.2087  1.3552 -3.2798
   98MOL   H12148815   4.873   7.571   2.467  1.1383  0.0049  1.3661
   98MOL   H12248816   4.716   7.442   2.306 -2.1748 -0.9329 -0.4677
   98MOL   H12348817   4.582   7.536   2.365  0.6540 -0.0884  1.2815
   98MOL   H12448818   4.818   7.650   2.220 -0.2991  2.2036 -0.8963
   98MOL   H12548819   4.666   7.595   2.144 -1.4422  0.9397 -0.0262
   98MOL   H12648820   4.668   7.735   2.250  1.8387  1.1415 -0.6235
   98MOL   C12748821   4.701   7.269   3.117  0.8528  0.5071  0.0360
   98MOL   C12848822   4.572   7.271   3.191 -0.3259  0.2276 -0.4476
   98MOL   O12948823   4.604   7.313   3.323  0.1342 -0.1985  0.0842
   98MOL   C13048824   4.512   7.403   3.383  0.4234 -0.4352  0.1881
   98MOL   C13148825   4.562   7.455   3.524  0.6475 -0.3134  0.2770
   98MOL   C13248826   4.520   7.356   3.637 -0.1627 -0.0860 -0.0872
   98MOL   C13348827   4.385   7.379   3.700  0.0339 -0.2489 -0.7882
   98MOL   C13448828   4.263   7.332   3.611  0.6657  0.3940 -0.1074
   98MOL   C13548829   4.133   7.325   3.694  0.8394  0.2154  0.0509
   98MOL   H13648830   4.677   7.210   3.029 -4.0983  0.6976  1.0919
   98MOL   H13748831   4.771   7.213   3.179  0.0829 -0.7548 -0.2174
   98MOL   H13848832   4.493   7.324   3.137  0.6519  1.3527 -0.7914
   98MOL   H13948833   4.409   7.368   3.375  0.4990 -1.0048  1.5697
   98MOL   H14048834   4.520   7.494   3.324  3.0785 -1.2863 -0.8368
   98MOL   H14148835   4.515   7.553   3.534  0.5698 -0.1423 -1.4821
   98MOL   H14248836   4.670   7.463   3.515  0.5160  0.6736 -0.5891
   98MOL   H14348837   4.516   7.260   3.586  0.6416  0.9796 -2.2417
   98MOL   H14448838   4.588   7.361   3.721  1.9884  2.4433 -1.8773
   98MOL   H14548839   4.385   7.322   3.793  0.9288  1.6844  0.4301
   98MOL   H14648840   4.373   7.485   3.720 -1.5350 -0.6240  0.3743
   98MOL   H14748841   4.243   7.406   3.534 -0.9019  1.7036  1.5156
   98MOL   H14848842   4.277   7.240   3.554 -0.4814  1.6753 -2.5231
   98MOL   H14948843   4.047   7.312   3.629  0.9517  1.6044 -0.3879
   98MOL   H15048844   4.126   7.243   3.765 -0.3188  0.9036  0.7494
   98MOL   H15148845   4.122   7.414   3.756 -1.1279 -1.1960  1.8004
   98MOL   C15248846   4.529   7.117   3.207  0.2504 -0.3210 -0.0966
   98MOL   C15348847   4.386   7.098   3.259 -0.4779 -0.4109 -0.2729
   98MOL   O15448848   4.300   7.157   3.163 -0.2338  0.7136 -0.4533
   98MOL   C15548849   4.214   7.255   3.208  0.6778  0.1421 -0.1560
   98MOL   C15648850   4.077   7.255   3.135 -0.6480  0.3571  0.0210
   98MOL   C15748851   3.976   7.146   3.167  0.0559  0.2682 -0.6121
   98MOL   C15848852   3.987   7.009   3.087 -0.6482 -0.2285 -0.1332
   98MOL   C15948853   3.913   6.905   3.167  0.0256 -0.4570  0.0094
   98MOL   C16048854   3.977   6.762   3.162  0.5355 -0.3153  0.4954
   98MOL   H16148855   4.542   7.067   3.110 -2.9294 -0.3274 -0.5770
   98MOL   H16248856   4.598   7.069   3.276 -1.5183 -0.6063  1.5053
   98MOL   H16348857   4.369   7.145   3.356 -0.3278  0.6664 -0.7722
   98MOL   H16448858   4.260   7.349   3.178 -0.2360  0.8048  0.4751
   98MOL   H16548859   4.204   7.252   3.317  0.0454 -2.3246 -0.2612
   98MOL   H16648860   4.086   7.280   3.029  0.2258  0.6426  0.1594
   98MOL   H16748861   4.026   7.346   3.167 -2.0251 -0.2116 -0.5370
   98MOL   H16848862   3.970   7.137   3.276 -0.5056 -0.0979 -0.6713
   98MOL   H16948863   3.877   7.186   3.148  0.1588  2.1907  2.5505
   98MOL   H17048864   3.958   7.014   2.982 -1.3230  0.7529  0.0891
   98MOL   H17148865   4.093   6.986   3.097 -0.7414  0.3101  2.2833
   98MOL   H17248866   3.900   6.944   3.268  0.4534 -1.1265  0.3262
   98MOL   H17348867   3.815   6.901   3.119 -0.4088 -1.0556  0.9309
   98MOL   H17448868   4.019   6.733   3.065  0.1947  2.2912 -0.4944
   98MOL   H17548869   4.055   6.755   3.237  1.3957 -0.0182 -0.3523
   98MOL   H17648870   3.896   6.691   3.179  0.3416  0.1327  1.4625
   98MOL   C17748871   4.347   6.950   3.281  0.1726  0.1953 -0.3208
   98MOL   C17848872   4.385   6.894   3.418 -0.3522 -0.7834 -0.4400
   98MOL   O17948873   4.281   6.925   3.512  0.4080  0.1061 -0.0550
   98MOL   C18048874   4.314   6.941   3.645  0.4952  0.7862  0.2660
   98MOL   C18148875   4.194   6.895   3.737 -0.0281  0.5670  0.7403
   98MOL   C18248876   4.248   6.887   3.876 -0.8528 -0.0668 -1.1760
   98MOL   C18348877   4.142   6.871   3.984 -0.0841  0.4320 -0.2388
   98MOL   C18448878   4.070   6.735   3.980 -0.3135  0.5110  0.1174
   98MOL   C18548879   3.968   6.695   4.087 -0.6022 -0.2002  0.6123
   98MOL   H18648880   4.238   6.953   3.276  0.1296 -1.2583 -0.3390
   98MOL   H18748881   4.365   6.883   3.197 -0.0005 -0.8439  0.4678
   98MOL   H18848882   4.477   6.936   3.459  0.0850 -1.5393 -0.6361
   98MOL   H18948883   4.319   7.048   3.666 -0.8986  0.8719  0.2261
   98MOL   H19048884   4.406   6.888   3.666 -0.4739 -0.6095  1.0958
   98MOL   H19148885   4.152   6.799   3.708  1.1452  0.1201  0.4542
   98MOL   H19248886   4.111   6.965   3.735  0.5204  1.2358  0.8033
   98MOL   H19348887   4.320   6.807   3.895 -1.3199 -0.1303  0.4817
   98MOL   H19448888   4.318   6.966   3.905 -1.7305  0.2520  0.1552
   98MOL   H19548889   4.198   6.861   4.077 -3.8102 -0.0265  2.0519
   98MOL   H19648890   4.065   6.948   3.993  0.8889  1.4279 -0.4045
   98MOL   H19748891   4.023   6.715   3.884 -0.6883  2.5671 -0.1582
   98MOL   H19848892   4.150   6.665   4.003 -0.7841  0.0120  0.2465
   98MOL   H19948893   4.010   6.694   4.187 -0.7533  1.1867  0.7003
   98MOL   H20048894   3.886   6.766   4.086  0.3339  0.9301  1.7949
   98MOL   H20148895   3.927   6.598   4.060  1.4146  0.1931 -4.4316
   98MOL   C20248896   4.404   6.742   3.421  0.3960  0.0892 -0.1722
   98MOL   C20348897   4.528   6.691   3.347 -0.1212 -0.4635 -0.0262
   98MOL   O20448898   4.504   6.677   3.213 -0.2236  0.1239 -0.3305
   98MOL   C20548899   4.612   6.691   3.118 -0.3627 -0.0146  0.5429
   98MOL   C20648900   4.553   6.658   2.981  0.2752  0.3410  0.1893
   98MOL   C20748901   4.451   6.758   2.922  0.0128 -0.8915 -0.2131
   98MOL   C20848902   4.373   6.691   2.811 -0.0239 -0.6942 -0.8608
   98MOL   C20948903   4.453   6.665   2.680  0.3252 -0.6184 -0.6005
   98MOL   C21048904   4.369   6.601   2.563 -0.9749 -0.2358 -1.1016
   98MOL   H21148905   4.406   6.713   3.526 -0.1602  1.1089  0.1205
   98MOL   H21248906   4.326   6.686   3.370  2.0756 -1.5434 -1.0544
   98MOL   H21348907   4.609   6.762   3.361  0.6220 -1.7050  2.1736
   98MOL   H21448908   4.688   6.612   3.121 -0.9763 -0.6810 -0.9507
   98MOL   H21548909   4.657   6.790   3.116 -0.4621  0.0033 -1.6806
   98MOL   H21648910   4.509   6.559   2.995  3.7850 -1.1333  1.3857
   98MOL   H21748911   4.632   6.644   2.907 -0.7634  1.5060 -1.1714
   98MOL   H21848912   4.385   6.794   3.001  0.6338 -0.8240  0.2708
   98MOL   H21948913   4.502   6.849   2.891 -0.7254 -0.3723  0.0832
   98MOL   H22048914   4.314   6.607   2.848  1.9982 -1.7970 -0.0837
   98MOL   H22148915   4.296   6.763   2.780 -1.4220 -1.8374 -0.0889
   98MOL   H22248916   4.507   6.756   2.652  1.2179 -0.9091  0.1476
   98MOL   H22348917   4.538   6.600   2.699  2.9321  2.5159 -1.1632
   98MOL   H22448918   4.425   6.559   2.479  0.1762  0.3954 -0.6527
   98MOL   H22548919   4.306   6.523   2.606  1.2905 -1.1464  0.6250
   98MOL   H22648920   4.293   6.673   2.531 -0.8980  0.0118 -0.7312
   98MOL   C22748921   4.569   6.556   3.399  0.1124 -0.4093  0.2160
   98MOL   C22848922   4.652   6.561   3.531  0.2161 -0.0573 -0.7188
   98MOL   O22948923   4.556   6.548   3.637 -0.0697 -0.0121  0.2804
   98MOL   C23048924   4.599   6.602   3.757 -0.5310 -0.0448 -0.5925
   98MOL   C23148925   4.505   6.553   3.867 -0.0088  0.0812  0.0965
   98MOL   C23248926   4.528   6.651   3.987  0.5443 -0.0462  0.1547
   98MOL   C23348927   4.458   6.604   4.118 -0.1188  0.2713  0.6132
   98MOL   C23448928   4.516   6.669   4.247 -0.0985  0.7680  0.2613
   98MOL   C23548929   4.505   6.820   4.244  0.5262 -0.8603 -0.4481
   98MOL   H23648930   4.486   6.486   3.402  0.7232 -1.2414 -1.6501
   98MOL   H23748931   4.633   6.517   3.320  0.3220  2.5650 -1.1693
   98MOL   H23848932   4.710   6.653   3.541 -1.2645  0.8912 -0.6732
   98MOL   H23948933   4.597   6.711   3.758  0.0383 -0.0338 -0.0160
   98MOL   H24048934   4.701   6.574   3.783 -0.7461  0.6294  1.0533
   98MOL   H24148935   4.528   6.449   3.890  0.4311 -0.1635 -1.4209
   98MOL   H24248936   4.405   6.545   3.825  0.4703 -2.1114 -0.7192
   98MOL   H24348937   4.635   6.650   4.007 -0.0580 -0.6694  3.6598
   98MOL   H24448938   4.508   6.757   3.967  1.4643  0.2325  0.6740
   98MOL   H24548939   4.352   6.627   4.109 -0.0094  0.1466 -1.2724
   98MOL   H24648940   4.475   6.497   4.126  0.6344  0.1854 -1.6741
   98MOL   H24748941   4.473   6.622   4.336  1.2030 -2.6032 -0.8211
   98MOL   H24848942   4.619   6.633   4.246  0.2076  1.6246 -1.0524
   98MOL   H24948943   4.556   6.870   4.327 -0.9747  1.0649 -0.6552
   98MOL   H25048944   4.543   6.867   4.153  1.5059 -4.0044 -1.7413
   98MOL   H25148945   4.401   6.852   4.252  0.3977 -0.8662 -1.9631
   98MOL   C25248946   4.752   6.441   3.550 -0.5115 -1.1103 -0.4284
   98MOL   C25348947   4.898   6.467   3.519  0.7296 -0.5451 -0.0790
   98MOL   O25448948   4.953   6.553   3.611 -0.3482 -0.1128 -0.1366
   98MOL   C25548949   4.984   6.491   3.734  0.6999  0.0453  0.0572
   98MOL   C25648950   5.074   6.576   3.829 -0.1476  0.2110  0.2847
   98MOL   C25748951   5.018   6.720   3.854  0.6570  0.6981 -0.1064
   98MOL   C25848952   5.097   6.786   3.967  0.2887  0.0333 -0.1032
   98MOL   C25948953   5.022   6.916   4.025  0.4685  0.3797 -0.2734
   98MOL   C26048954   4.885   6.895   4.094  0.1129  0.3471  0.2475
   98MOL   H26148955   4.738   6.397   3.648 -2.5258  1.1378  0.3622
   98MOL   H26248956   4.718   6.366   3.479  1.6729 -1.3199 -1.2841
   98MOL   H26348957   4.966   6.383   3.524  1.2883 -0.0996 -0.1153
   98MOL   H26448958   5.036   6.396   3.721  3.3923  1.3671  0.8068
   98MOL   H26548959   4.894   6.480   3.794 -0.2696  0.6551 -1.2627
   98MOL   H26648960   5.175   6.584   3.789 -0.3857 -2.3441 -0.9358
   98MOL   H26748961   5.079   6.520   3.922 -0.8239  1.2008  0.9332
   98MOL   H26848962   5.028   6.783   3.766  1.4881 -0.1966 -0.6577
   98MOL   H26948963   4.910   6.717   3.873  0.7249 -3.6649  0.0321
   98MOL   H27048964   5.107   6.720   4.053  0.4596  0.1967  0.0009
   98MOL   H27148965   5.199   6.814   3.940  1.0040 -1.6476  0.8048
   98MOL   H27248966   5.097   6.954   4.093 -1.2213  2.4584  0.4869
   98MOL   H27348967   5.007   7.003   3.961 -1.5049 -0.0897 -0.5053
   98MOL   H27448968   4.883   6.820   4.173 -0.8420  0.3859  0.2699
   98MOL   H27548969   4.866   6.989   4.145 -0.4675 -0.4653  1.5565
   98MOL   H27648970   4.803   6.872   4.026 -1.1861 -1.1880  2.2762
   98MOL   C27748971   4.915   6.537   3.383 -0.1452  0.1713  0.1256
   98MOL   C27848972   5.063   6.555   3.343  0.6778  0.1779 -0.0664
   98MOL   O27948973   5.121   6.431   3.332 -0.6964 -0.0273 -0.7079
   98MOL   C28048974   5.256   6.424   3.387  0.2251  0.1105  0.7301
   98MOL   C28148975   5.304   6.283   3.364 -0.3568 -0.4771 -0.7302
   98MOL   C28248976   5.444   6.255   3.418  0.0623 -0.2446 -0.5837
   98MOL   C28348977   5.565   6.325   3.345  0.4870 -0.4031 -0.6353
   98MOL   C28448978   5.698   6.323   3.425  0.8352 -0.0897  0.1624
   98MOL   C28548979   5.810   6.405   3.364 -0.4122  0.0763  0.6057
   98MOL   H28648980   4.864   6.481   3.304 -0.6537  1.5094 -0.5089
   98MOL   H28748981   4.872   6.637   3.391 -1.7575 -0.6186  1.6007
   98MOL   H28848982   5.106   6.624   3.416 -2.3960  2.9965 -0.8010
   98MOL   H28948983   5.259   6.454   3.492 -0.2790  1.0447  0.4884
   98MOL   H29048984   5.321   6.492   3.332 -0.5371 -0.1933 -0.5548
   98MOL   H29148985   5.319   6.271   3.257 -0.3507  0.4284 -0.8363
   98MOL   H29248986   5.230   6.211   3.399 -0.7655 -0.1931 -1.0061
   98MOL   H29348987   5.440   6.281   3.524 -1.3464 -3.1896  0.1225
   98MOL   H29448988   5.466   6.149   3.415  0.6999 -0.1011 -4.4786
   98MOL   H29548989   5.568   6.278   3.247 -1.2695 -1.8077 -0.0345
   98MOL   H29648990   5.546   6.431   3.325 -1.7100 -0.8411 -1.0003
   98MOL   H29748991   5.691   6.322   3.533 -2.0239 -1.3069  0.0171
   98MOL   H29848992   5.723   6.218   3.421 -0.2675 -0.3761  0.5404
   98MOL   H29948993   5.902   6.370   3.410  1.2145 -0.7518 -3.0858
   98MOL   H30048994   5.826   6.413   3.256 -3.3237  2.3473  0.2769
   98MOL   H30148995   5.781   6.508   3.388 -1.7020 -0.1843  0.2003
   98MOL   C30248996   5.082   6.623   3.205 -0.0172  0.5987  0.1186
   98MOL   C30348997   5.103   6.779   3.225 -0.6884 -0.2725  0.0304
   98MOL   O30448998   5.056   6.834   3.107 -0.8938 -0.3870  0.1990
   98MOL   C30548999   4.947   6.924   3.126 -0.1072  0.2569  0.0828
   98MOL   C30649000   4.915   6.964   2.980  0.3298 -0.0288 -0.2151
   98MOL   C30749001   4.851   6.864   2.881  0.2277  0.2618  0.8510
   98MOL   C30849002   4.788   6.923   2.746  0.2164  0.0402  0.5239
   98MOL   C30949003   4.893   6.991   2.658 -0.1068  0.2565  0.5336
   98MOL   C31049004   4.841   7.005   2.516 -0.2063 -0.1638 -0.1249
   98MOL   H31149005   5.170   6.588   3.152 -0.9276  0.0225 -1.0499
   98MOL   H31249006   5.002   6.599   3.135 -0.7828 -1.5506  1.6755
   98MOL   H31349007   5.044   6.823   3.306  1.1402 -0.0288  1.2790
   98MOL   H31449008   4.963   7.009   3.193  0.2043  1.0991 -1.0616
   98MOL   H31549009   4.858   6.881   3.173  2.2670 -1.1087  3.6141
   98MOL   H31649010   5.005   7.002   2.932  0.6671 -1.6933 -0.9359
   98MOL   H31749011   4.846   7.047   2.998  0.5343 -0.0090  0.4962
   98MOL   H31849012   4.924   6.787   2.855  0.3537  0.1835  1.4204
   98MOL   H31949013   4.780   6.801   2.935  0.4343 -0.5868  0.1474
   98MOL   H32049014   4.739   6.841   2.694  0.6654  0.2081 -0.1847
   98MOL   H32149015   4.706   6.992   2.767  0.4121  0.0859  1.1569
   98MOL   H32249016   4.924   7.085   2.704  1.3225  1.5255 -2.8908
   98MOL   H32349017   4.987   6.937   2.649 -0.5652 -0.4232 -0.2638
   98MOL   H32449018   4.742   7.048   2.505 -0.7667 -1.1570  0.8503
   98MOL   H32549019   4.907   7.069   2.458  0.0965  0.4446  0.8890
   98MOL   H32649020   4.847   6.905   2.472  0.4575 -0.1790  0.0054
   98MOL   C32749021   5.253   6.826   3.236  0.3598  0.0318 -0.2547
   98MOL   C32849022   5.257   6.980   3.254  0.3528  0.1531  0.2172
   98MOL   O32949023   5.154   7.018   3.354  0.0752  0.0246 -0.7210
   98MOL   C33049024   5.127   7.158   3.370 -0.2390  0.0371 -0.6431
   98MOL   C33149025   5.037   7.174   3.496  0.1723  0.3559 -0.0499
   98MOL   C33249026   4.926   7.074   3.505  0.4315  0.7084 -0.1898
   98MOL   C33349027   4.812   7.096   3.605 -0.1811 -0.0641  0.6831
   98MOL   C33449028   4.763   6.973   3.687  0.6502 -0.0780 -0.1268
   98MOL   C33549029   4.686   7.024   3.805  0.1602  0.5460  0.9886
   98MOL   H33649030   5.303   6.796   3.144 -1.1513 -0.0227 -1.0845
   98MOL   H33749031   5.299   6.774   3.320 -0.1690 -2.0127 -1.2046
   98MOL   H33849032   5.242   7.025   3.156 -0.0530  1.4150  0.8543
   98MOL   H33949033   5.066   7.192   3.287 -0.1678  0.9957 -0.3071
   98MOL   H34049034   5.218   7.215   3.387 -2.0051  2.2891  1.5855
   98MOL   H34149035   4.984   7.267   3.475  0.5764  0.5606 -0.1671
   98MOL   H34249036   5.095   7.181   3.588  0.0788  0.0800  0.0293
   98MOL   H34349037   4.880   7.055   3.408 -0.7034  3.1279 -0.1726
   98MOL   H34449038   4.964   6.978   3.539 -0.2696  0.8072  0.9106
   98MOL   H34549039   4.849   7.172   3.674 -1.2988 -0.2601  1.5229
   98MOL   H34649040   4.721   7.136   3.561 -0.0904 -0.2301  0.3480
   98MOL   H34749041   4.691   6.917   3.628  0.9879  1.5445 -2.1131
   98MOL   H34849042   4.836   6.902   3.727  2.6325  1.4768 -0.9102
   98MOL   H34949043   4.641   7.120   3.782 -0.8080  0.6820  3.2918
   98MOL   H35049044   4.608   6.956   3.839 -0.9175  0.6662 -1.1427
   98MOL   H35149045   4.764   7.038   3.880 -0.8237 -1.2427  2.4052
   98MOL   C35249046   5.397   7.014   3.307  0.0447  0.2555 -0.0746
   98MOL   C35349047   5.461   7.146   3.248 -0.3473  0.5482  0.0455
   98MOL   O35449048   5.488   7.140   3.112 -0.3352  0.2851 -0.0112
   98MOL   C35549049   5.575   7.032   3.070 -0.1036  0.4363  0.3762
   98MOL   C35649050   5.613   7.053   2.922 -0.2718 -0.0906  0.1763
   98MOL   C35749051   5.497   7.062   2.818 -0.4367  0.0378 -0.1749
   98MOL   C35849052   5.419   6.928   2.808 -0.4354  0.6610  0.2309
   98MOL   C35949053   5.320   6.925   2.695 -0.0971  0.0050 -0.5874
   98MOL   C36049054   5.226   6.799   2.696  0.1825  0.1319 -0.1764
   98MOL   H36149055   5.389   7.020   3.416  1.2740  0.0895  0.0266
   98MOL   H36249056   5.463   6.930   3.287 -0.1828 -0.1226  0.7320
   98MOL   H36349057   5.389   7.228   3.253 -1.5424 -0.4954  0.2529
   98MOL   H36449058   5.522   6.938   3.084 -0.1127 -0.1064 -2.9450
   98MOL   H36549059   5.663   7.025   3.134  0.4086  2.5040 -0.0689
   98MOL   H36649060   5.674   6.965   2.906 -0.5342 -0.1834 -0.3159
   98MOL   H36749061   5.682   7.136   2.907 -0.5589  0.2857  0.8922
   98MOL   H36849062   5.439   7.155   2.814 -0.8108 -0.1072  1.4664
   98MOL   H36949063   5.550   7.077   2.724 -0.6561  1.6229 -0.0677
   98MOL   H37049064   5.471   6.834   2.793 -0.5708  0.8242 -1.2629
   98MOL   H37149065   5.361   6.915   2.900  0.4980 -1.5789  0.5239
   98MOL   H37249066   5.268   7.020   2.685 -0.1040 -0.2131 -2.8513
   98MOL   H37349067   5.374   6.915   2.601  2.9987  0.8071  1.0148
   98MOL   H37449068   5.282   6.705   2.697  1.6407  0.9780  1.3378
   98MOL   H37549069   5.156   6.814   2.778  0.4209  1.6716 -0.2468
   98MOL   H37649070   5.166   6.797   2.605 -0.4548 -3.0416  0.2381
   98MOL   C37749071   5.586   7.193   3.333 -0.2132  0.6752 -0.2600
   98MOL   C37849072   5.562   7.246   3.478  0.6043 -0.0951 -0.2931
   98MOL   O37949073   5.516   7.372   3.465 -0.3105  0.0078 -0.1312
   98MOL   C38049074   5.403   7.414   3.542 -0.1255  0.4362  0.2819
   98MOL   C38149075   5.382   7.559   3.497  0.1280 -0.0321 -0.0926
   98MOL   C38249076   5.312   7.576   3.363 -0.3972 -0.8407 -0.3238
   98MOL   C38349077   5.315   7.717   3.311 -0.3193  0.5562 -0.0612
   98MOL   C38449078   5.271   7.732   3.159 -0.5807  0.3331  1.2580
   98MOL   C38549079   5.373   7.668   3.053  0.6472  0.3692 -0.1718
   98MOL   H38649080   5.660   7.113   3.331 -0.7605  0.1900 -1.2299
   98MOL   H38749081   5.631   7.278   3.282 -0.9841  0.4799 -1.2716
   98MOL   H38849082   5.483   7.192   3.531  1.0530 -0.7517 -0.2877
   98MOL   H38949083   5.397   7.408   3.651 -0.9813  1.0438  0.2794
   98MOL   H39049084   5.313   7.359   3.513 -1.1226  2.1999 -0.0581
   98MOL   H39149085   5.480   7.605   3.492  0.3818 -0.6600 -1.0084
   98MOL   H39249086   5.327   7.609   3.577  0.6112 -1.9602  1.5008
   98MOL   H39349087   5.366   7.517   3.289  0.1368 -1.2986  0.4267
   98MOL   H39449088   5.206   7.550   3.370 -0.8632  0.8820 -0.6575
   98MOL   H39549089   5.253   0.001   3.377  1.2666  1.3361  0.7186
   98MOL   H39649090   5.421   7.740   3.318 -0.7608  2.0422  2.2029
   98MOL   H39749091   5.172   7.687   3.164  0.7923 -2.9061  0.7858
   98MOL   H39849092   5.249   0.060   3.143  0.8721  0.8695  2.6115
   98MOL   H39949093   5.338   7.679   2.950 -0.4446  0.0702  0.1563
   98MOL   H40049094   5.472   7.713   3.053  1.6605 -1.7597  0.0112
   98MOL   H40149095   5.388   7.561   3.069 -3.0184 -0.0123  1.3223
   98MOL   C40249096   5.681   7.244   3.579  0.2313  0.7010  0.2780
   98MOL   C40349097   5.797   7.339   3.544  0.5508  0.1068  0.0095
   98MOL   O40449098   5.902   7.282   3.618 -0.1030  0.9984  0.0998
   98MOL   C40549099   6.024   7.255   3.544  0.9276  0.2229 -0.2461
   98MOL   C40649100   6.139   7.215   3.630 -0.8081  0.1875  0.2328
   98MOL   C40749101   6.197   7.331   3.713  0.2561  0.2071 -0.7691
   98MOL   C40849102   6.339   7.298   3.763  0.2485  0.4422  0.1236
   98MOL   C40949103   6.388   7.423   3.850  0.0010 -0.1528 -0.2169
   98MOL   C41049104   6.537   7.412   3.895 -0.0171  0.7516 -1.0128
   98MOL   H41149105   5.724   7.145   3.588  1.7140  1.2922 -0.2352
   98MOL   H41249106   5.651   7.273   3.680 -1.4089 -2.1082  0.6610
   98MOL   H41349107   5.814   7.335   3.437  1.3309 -2.3709  0.1956
   98MOL   H41449108   6.048   7.331   3.470  1.7836 -0.4634 -0.6912
   98MOL   H41549109   5.983   7.168   3.491  1.8114 -0.6366  0.4571
   98MOL   H41649110   6.209   7.170   3.559  0.7107  1.9297  0.6032
   98MOL   H41749111   6.107   7.145   3.707 -1.4526  0.8245  0.5553
   98MOL   H41849112   6.188   7.420   3.651 -3.4904  0.0995 -0.5281
   98MOL   H41949113   6.128   7.352   3.796  1.2775 -2.2152  0.7522
   98MOL   H42049114   6.330   7.202   3.814 -0.1432  0.1348 -0.5114
   98MOL   H42149115   6.393   7.297   3.668  0.4966  0.2909  0.2679
   98MOL   H42249116   6.378   7.508   3.782 -1.6407 -0.7018 -0.6880
   98MOL   H42349117   6.319   7.435   3.933  0.6979 -1.7574  0.6197
   98MOL   H42449118   6.559   7.332   3.966 -3.1770  1.2780  0.6465
   98MOL   H42549119   6.600   7.405   3.807  0.4743 -0.4968 -0.5622
   98MOL   H42649120   6.560   7.506   3.946 -0.0944 -0.0268  0.4780
   98MOL   C42749121   5.767   7.479   3.600 -0.3464 -0.6200 -0.0020
   98MOL   C42849122   5.858   7.591   3.569  0.7035  1.1375 -0.7533
   98MOL   O42949123   5.891   7.601   3.431  0.2556 -0.5722 -0.1573
   98MOL   C43049124   5.791   7.626   3.335  0.4695 -0.1363  0.3116
   98MOL   C43149125   5.824   7.563   3.198  0.1194  0.0608  0.3502
   98MOL   C43249126   5.705   7.561   3.101 -0.4613  0.6011 -0.7864
   98MOL   C43349127   5.734   7.498   2.958 -0.7553  0.0711  0.1984
   98MOL   C43449128   5.615   7.501   2.861  0.2261 -0.0051  0.1363
   98MOL   C43549129   5.647   7.442   2.724  0.8512  0.0267  0.0448
   98MOL   H43649130   5.667   7.514   3.573  0.3008  0.7471 -0.6627
   98MOL   H43749131   5.759   7.463   3.708  2.0866 -3.6720 -0.2065
   98MOL   H43849132   5.953   7.571   3.620 -0.0159  0.8680  0.5116
   98MOL   H43949133   5.790   7.730   3.303 -1.0128  0.3419  1.8725
   98MOL   H44049134   5.693   7.590   3.367  0.5301  0.4826  1.2040
   98MOL   H44149135   5.844   7.456   3.208  2.2817  0.5087  1.1615
   98MOL   H44249136   5.916   7.604   3.157 -0.0234  0.6176  0.5879
   98MOL   H44349137   5.614   7.515   3.140  0.1341 -0.7353 -0.9780
   98MOL   H44449138   5.694   7.670   3.099  2.9895  1.0110 -0.4936
   98MOL   H44549139   5.815   7.555   2.912  0.0684 -1.5430 -0.3518
   98MOL   H44649140   5.754   7.392   2.968  0.0902  0.0439 -1.6372
   98MOL   H44749141   5.530   7.446   2.901  0.3630 -0.0660  0.3473
   98MOL   H44849142   5.591   7.606   2.849  0.7023  0.1355  0.3883
   98MOL   H44949143   5.664   7.336   2.739 -0.0006  0.1130  1.7254
   98MOL   H45049144   5.562   7.447   2.657  1.1422 -1.9183 -0.5022
   98MOL   H45149145   5.734   7.486   2.675 -0.1735  0.9116 -1.0208
   98MOL   C45249146   5.805   7.728   3.625 -0.6017  0.0109  0.8179
   98MOL   C45349147   5.898   0.074   3.593  0.4898 -0.2476  0.3395
   98MOL   O45449148   6.012   0.055   3.677  0.5145 -0.1364  0.3966
   98MOL   C45549149   6.134   0.031   3.610  0.2931 -0.0251  0.0209
   98MOL   C45649150   6.256   0.037   3.714 -0.3842 -0.6718 -0.5179
   98MOL   C45749151   6.389   0.044   3.634  0.2204 -0.7319  0.5916
   98MOL   C45849152   6.507   0.025   3.725 -0.2464 -0.1598  0.3193
   98MOL   C45949153   6.645   0.025   3.645  0.3164  0.5312 -0.1571
   98MOL   C46049154   6.762   7.774   3.743  0.0197  0.6620  0.0040
   98MOL   H46149155   5.708   7.752   3.580 -0.7821 -0.4628  0.9578
   98MOL   H46249156   5.789   7.722   3.732 -1.5441 -0.4432  0.6548
   98MOL   H46349157   5.930   0.074   3.489 -3.0757 -0.4253 -0.8319
   98MOL   H46449158   6.144   0.110   3.536 -1.0505 -1.2241 -1.4721
   98MOL   H46549159   6.127   7.706   3.574 -0.5111 -0.6824  1.9502
   98MOL   H46649160   6.245   7.732   3.784 -0.4118  0.2510  0.5819
   98MOL   H46749161   6.257   0.128   3.774  0.4267 -0.1323 -1.3256
   98MOL   H46849162   6.385   7.727   3.580 -0.2617 -1.1120  1.2750
   98MOL   H46949163   6.395   0.128   3.565 -0.5773  0.2426  1.6876
   98MOL   H47049164   6.506   0.106   3.798  0.4889  1.7017 -1.6804
   98MOL   H47149165   6.504   7.711   3.784  1.4731  0.6207  1.6596
   98MOL   H47249166   6.641   7.712   3.585 -0.9131 -0.2259  1.0463
   98MOL   H47349167   6.647   0.119   3.588  0.6212  0.2899 -0.5479
   98MOL   H47449168   6.855   7.748   3.692 -0.1144  3.2691 -1.6568
   98MOL   H47549169   6.781   0.070   3.821  0.1685  0.0424  0.5514
   98MOL   H47649170   6.736   7.685   3.801 -2.8182  1.0329 -0.6357
   98MOL   C47749171   5.839   0.219   3.629 -0.2078  0.4331  0.1844
   98MOL   C47849172   5.699   0.240   3.570 -0.1751 -0.1551  0.1154
   98MOL   O47949173   5.727   0.248   3.430 -0.0450 -0.6342  0.5305
   98MOL   C48049174   5.610   0.263   3.354 -0.0443  0.2230 -0.0907
   98MOL   C48149175   5.655   0.278   3.207 -0.3761 -0.4856  0.2713
   98MOL   C48249176   5.723   0.415   3.179 -0.1851 -0.3689  0.3007
   98MOL   C48349177   5.711   0.434   3.028  0.7512 -0.4768 -0.1947
   98MOL   C48449178   5.810   0.542   2.969 -0.2175  1.0306 -0.0751
   98MOL   C48549179   5.791   0.541   2.817  0.0836 -0.6141 -0.8979
   98MOL   H48649180   5.822   0.221   3.736  3.6842  1.1894  0.8371
   98MOL   H48749181   5.916   0.293   3.608 -1.2584  1.7334  0.7916
   98MOL   H48849182   5.629   0.158   3.591 -1.1701  0.7875  0.5385
   98MOL   H48949183   5.560   0.358   3.373 -0.5840  0.0930 -0.8010
   98MOL   H49049184   5.536   0.185   3.371  1.1191 -1.3335 -1.9330
   98MOL   H49149185   5.565   0.265   3.147  0.8574 -0.9284 -1.5120
   98MOL   H49249186   5.713   0.188   3.186  1.0822  0.2368  1.1206
   98MOL   H49349187   5.676   0.494   3.236 -2.3171 -0.3437 -1.4018
   98MOL   H49449188   5.830   0.412   3.198 -0.1313  0.0440  0.0720
   98MOL   H49549189   5.753   0.343   2.986  0.4754 -1.9453  2.5564
   98MOL   H49649190   5.613   0.449   2.982  0.6938  0.3546  0.1749
   98MOL   H49749191   5.785   0.635   3.021  0.4172  0.4750  1.2395
   98MOL   H49849192   5.906   0.514   3.011 -1.0869 -1.8022  0.0890
   98MOL   H49949193   5.765   0.442   2.781  1.7410 -0.8467 -1.4810
   98MOL   H50049194   5.713   0.606   2.779  1.2766 -0.1344 -2.5600
   98MOL   H50149195   5.885   0.587   2.784 -0.5902  1.3243 -0.2078
   98MOL   H50249196   5.642   0.329   3.596 -0.7431 -0.4183 -0.1935
   99MOL     C149197   3.200   4.836   7.411  0.7062  0.2871  0.0606
   99MOL     C249198   3.199   4.683   7.389 -0.1339 -0.2984  0.0119
   99MOL     O349199   3.214   4.631   7.527  0.2047  0.2281  0.4121
   99MOL     C449200   3.091   4.590   7.583  0.1371 -0.4305 -0.5275
   99MOL     C549201   3.110   4.522   7.721  0.2747  0.5769 -0.0214
   99MOL     C649202   2.981   4.486   0.021  0.0898  0.3192 -0.2378
   99MOL     C749203   2.903   4.364   7.751  0.2440 -0.7431 -0.5505
   99MOL     C849204   2.788   4.315   0.060  0.0136 -0.3243  1.0497
   99MOL     C949205   2.709   4.184   0.013  0.1533 -0.0810 -0.4229
   99MOL    H1049206   3.132   4.871   7.488 -2.1025  2.6472 -3.3245
   99MOL    H1149207   3.302   4.875   7.421  0.0818  1.7024  1.1378
   99MOL    H1249208   3.104   4.660   7.342 -0.0340 -0.7450  0.0235
   99MOL    H1349209   3.055   4.510   7.518  0.9317 -0.3709 -1.0375
   99MOL    H1449210   3.028   4.678   7.585 -1.2886 -1.4335  2.1277
   99MOL    H1549211   3.163   4.595   0.004  1.3460 -1.2999  1.3845
   99MOL    H1649212   3.177   4.437   7.705  0.4356  0.7938 -0.5166
   99MOL    H1749213   3.011   4.453   0.120 -0.8753  0.9380  0.2679
   99MOL    H1849214   2.912   4.571   0.027  0.0029  0.4771 -2.9049
   99MOL    H1949215   2.870   4.376   7.648  1.7681 -0.2830 -0.9851
   99MOL    H2049216   2.978   4.286   7.742  3.1261  1.2565  4.1057
   99MOL    H2149217   2.716   4.395   0.075 -2.4042 -2.6342  2.1160
   99MOL    H2249218   2.828   4.288   0.158  0.1200 -2.2837  0.4829
   99MOL    H2349219   2.648   4.205   7.703  1.2387  0.5158 -1.0491
   99MOL    H2449220   2.782   4.107   7.765 -0.9644 -1.2531 -0.1489
   99MOL    H2549221   2.642   4.148   0.091  0.6950  1.5093  0.8002
   99MOL    H2649222   3.164   4.899   7.330  0.8294 -0.0565 -0.2636
   99MOL    C2749223   3.312   4.630   7.300 -0.4195 -0.0544  0.2183
   99MOL    C2849224   3.310   4.476   7.283  0.1173 -0.0879  0.1514
   99MOL    O2949225   3.373   4.453   7.157  0.0065  0.4922  0.0328
   99MOL    C3049226   3.279   4.435   7.050 -0.0892  0.0597 -0.0285
   99MOL    C3149227   3.347   4.404   6.926 -0.3705  0.0385  0.2154
   99MOL    C3249228   3.253   4.371   6.816  0.3346 -0.3013  0.9737
   99MOL    C3349229   3.319   4.364   6.680 -1.5067 -0.2183  0.1063
   99MOL    C3449230   3.220   4.335   6.573  0.0263  0.2440  1.0300
   99MOL    C3549231   3.274   4.369   6.430 -0.8813  0.0609  0.8405
   99MOL    H3649232   3.302   4.674   7.201 -0.8476 -1.7814 -0.5156
   99MOL    H3749233   3.414   4.649   7.333 -0.6520 -0.3202  1.1218
   99MOL    H3849234   3.208   4.438   7.275  0.5403 -0.8820 -1.8117
   99MOL    H3949235   3.228   4.531   7.037  1.2446  0.7519 -0.2769
   99MOL    H4049236   3.206   4.360   7.078 -0.0052  1.1745  3.3530
   99MOL    H4149237   3.397   4.309   6.942 -0.9426 -0.8866 -3.0717
   99MOL    H4249238   3.422   4.480   6.905  1.0537 -1.2778  0.4188
   99MOL    H4349239   3.213   4.272   6.840  1.4982 -0.4747  2.3329
   99MOL    H4449240   3.178   4.449   6.810  0.8702  0.2107  0.8940
   99MOL    H4549241   3.375   4.456   6.665  0.4919 -1.4354 -0.1313
   99MOL    H4649242   3.397   4.288   6.681  0.3307  1.6454  1.0961
   99MOL    H4749243   3.194   4.229   6.575  0.5188  0.1250  0.9771
   99MOL    H4849244   3.128   4.393   6.584 -0.1565 -0.1435  1.5608
   99MOL    H4949245   3.209   4.346   6.346  1.3184  2.3513 -1.5806
   99MOL    H5049246   3.296   4.474   6.416 -1.9719  0.1605 -0.1756
   99MOL    H5149247   3.367   4.312   6.423  0.0448  1.7477 -1.0132
   99MOL    C5249248   3.380   4.397   7.405 -0.2026  0.2348 -0.1709
   99MOL    C5349249   3.353   4.247   7.414 -0.6105  0.3895 -0.2694
   99MOL    O5449250   3.428   4.192   7.514 -0.3442  0.0344  0.2716
   99MOL    C5549251   3.570   4.180   7.497 -0.1018 -0.0065 -0.2699
   99MOL    C5649252   3.620   4.086   7.611 -0.0539  0.1302  0.5554
   99MOL    C5749253   3.568   3.944   7.585 -0.5165  0.8393 -0.1316
   99MOL    C5849254   3.602   3.834   7.692  0.2612  0.4133 -0.2202
   99MOL    C5949255   3.526   3.705   7.674 -0.1551  0.6530 -0.7445
   99MOL    C6049256   3.370   3.714   7.685 -0.4963  0.0986  0.2125
   99MOL    H6149257   3.345   4.440   7.499 -0.1436 -1.0663  0.4471
   99MOL    H6249258   3.486   4.422   7.407  0.3577 -2.0568  0.0609
   99MOL    H6349259   3.375   4.208   7.314 -0.5141  0.4841 -0.2862
   99MOL    H6449260   3.625   4.274   7.492 -0.1742  0.0883  0.6558
   99MOL    H6549261   3.598   4.132   7.403  1.5915  0.9818 -0.2971
   99MOL    H6649262   3.587   4.126   7.708  0.0263  0.4424  0.4556
   99MOL    H6749263   3.728   4.075   7.600 -0.4677 -1.7769 -2.0344
   99MOL    H6849264   3.460   3.949   7.579 -0.5755  1.9982  1.5161
   99MOL    H6949265   3.598   3.911   7.486 -0.0436 -1.2606  0.6728
   99MOL    H7049266   3.709   3.819   7.685  0.3049  1.1468 -1.0931
   99MOL    H7149267   3.584   3.873   0.015 -1.9890  1.3619 -0.9611
   99MOL    H7249268   3.559   3.672   7.575 -0.3838 -0.9638 -0.3073
   99MOL    H7349269   3.563   3.630   7.745  0.1066 -0.2150 -1.7844
   99MOL    H7449270   3.318   3.776   7.613 -1.2595 -2.0976 -1.1726
   99MOL    H7549271   3.323   3.617   7.670 -0.8871  0.6799 -2.4460
   99MOL    H7649272   3.343   3.751   0.007 -0.5924  1.5447 -0.3464
   99MOL    C7749273   3.209   4.210   7.440  0.1924 -0.7641  0.2741
   99MOL    C7849274   3.182   4.059   7.442 -0.4567 -0.4010 -0.1797
   99MOL    O7949275   3.210   3.996   7.316  0.5609  0.0266  0.2277
   99MOL    C8049276   3.321   3.910   7.315  0.0174 -0.2515 -0.2325
   99MOL    C8149277   3.347   3.846   7.175 -0.7090 -0.1745 -0.3125
   99MOL    C8249278   3.391   3.956   7.075 -0.4352  0.3794 -0.4302
   99MOL    C8349279   3.432   3.897   6.940  0.2020 -0.5569 -0.2082
   99MOL    C8449280   3.489   4.010   6.851  0.6309  0.3601  0.0868
   99MOL    C8549281   3.519   3.957   6.708 -0.5772  0.2379 -0.2343
   99MOL    H8649282   3.143   4.252   7.363  0.8659 -0.1157  0.0491
   99MOL    H8749283   3.174   4.254   7.533  0.2905 -1.8573  0.8258
   99MOL    H8849284   3.246   4.009   7.515 -1.1295  0.6316  1.1276
   99MOL    H8949285   3.319   3.833   7.392 -0.9930 -1.1067 -1.0954
   99MOL    H9049286   3.416   3.961   7.327 -0.1909  0.0492  0.1605
   99MOL    H9149287   3.263   3.790   7.135  0.8184 -1.0894 -2.2991
   99MOL    H9249288   3.408   3.756   7.175  2.0593  1.5754  1.9899
   99MOL    H9349289   3.314   4.033   7.074 -1.5704 -0.6694  1.9586
   99MOL    H9449290   3.481   4.005   7.114 -0.3117  1.2980 -1.8270
   99MOL    H9549291   3.500   3.812   6.950 -1.4775 -2.2123 -2.2565
   99MOL    H9649292   3.343   3.850   6.898 -0.4999  1.7575 -1.3502
   99MOL    H9749293   3.425   4.098   6.838 -0.8103 -0.0267  3.9307
   99MOL    H9849294   3.579   4.053   6.894 -0.5233  1.4794  1.4402
   99MOL    H9949295   3.574   3.864   6.727 -0.9105 -0.0574 -0.6954
   99MOL   H10049296   3.425   3.928   6.661 -1.2141  0.2392  1.0198
   99MOL   H10149297   3.574   4.032   6.651  0.5666  0.4107  1.0822
   99MOL   C10249298   3.039   4.022   7.490  0.1932 -0.2808 -0.4704
   99MOL   C10349299   3.022   3.909   7.596  0.1856 -0.0977  0.2514
   99MOL   O10449300   3.085   3.790   7.550 -0.6253 -0.0530 -0.3579
   99MOL   C10549301   3.017   3.701   7.464  0.0128 -0.6085 -0.3253
   99MOL   C10649302   3.095   3.591   7.405 -0.9064  0.2869  0.1843
   99MOL   C10749303   3.000   3.483   7.348 -0.0774  0.3021  0.9379
   99MOL   C10849304   3.078   3.364   7.284 -0.2238 -0.3727  0.1102
   99MOL   C10949305   3.001   3.239   7.252  0.2502  0.1640  0.0059
   99MOL   C11049306   2.945   3.231   7.106 -0.3577  0.1789 -0.6618
   99MOL   H11149307   2.996   4.107   7.543  1.0241 -0.5516  0.6545
   99MOL   H11249308   2.980   3.989   7.404 -0.0438  1.7730 -1.1373
   99MOL   H11349309   2.916   3.885   7.608  0.1487  1.0129  2.3493
   99MOL   H11449310   2.970   3.751   7.379 -1.4030 -1.1754  0.1069
   99MOL   H11549311   2.933   3.663   7.523  1.0967  0.5069  1.9908
   99MOL   H11649312   3.163   3.559   7.483 -1.1300  0.6074  0.5114
   99MOL   H11749313   3.153   3.635   7.324  0.4961  1.9095  2.0321
   99MOL   H11849314   2.928   3.447   7.421  1.1569 -1.7932  1.1724
   99MOL   H11949315   2.950   3.540   7.269  1.7706  0.5460 -0.0803
   99MOL   H12049316   3.128   3.395   7.192  1.5079 -1.0692  0.8000
   99MOL   H12149317   3.148   3.339   7.364 -0.7781 -2.0604  0.0940
   99MOL   H12249318   3.066   3.153   7.264 -2.7808 -2.1236  0.6569
   99MOL   H12349319   2.916   3.228   7.320  1.5485  0.1571  1.6499
   99MOL   H12449320   3.020   3.217   7.028  3.2017 -0.0432  2.6553
   99MOL   H12549321   2.865   3.158   7.112 -0.2022  0.1659  1.7216
   99MOL   H12649322   2.894   3.324   7.081  0.6827  1.0554  0.3770
   99MOL   C12749323   3.079   3.944   7.742 -0.5498  0.2537  0.0535
   99MOL   C12849324   3.047   3.829   0.061 -0.6775  0.5877  1.0889
   99MOL   O12949325   2.904   3.828   0.064  0.0239 -0.1501 -0.2212
   99MOL   C13049326   2.847   3.703   0.094 -0.5197  0.1488  0.1574
   99MOL   C13149327   2.696   3.710   0.091  0.1812 -0.0236  0.2776
   99MOL   C13249328   2.636   3.826   0.171  0.6163  0.5320  0.1763
   99MOL   C13349329   2.488   3.826   0.195 -0.4478  0.5817  0.1816
   99MOL   C13449330   2.451   3.948   0.281  0.9739  0.4448  0.2258
   99MOL   C13549331   2.309   3.947   0.326 -0.3646 -0.6721 -0.1903
   99MOL   H13649332   3.186   3.963   7.732 -0.1863 -1.1709  1.0371
   99MOL   H13749333   3.037   4.040   7.771  1.0710  1.3168 -1.0411
   99MOL   H13849334   3.069   3.737   0.007  0.6315  0.1858  2.2648
   99MOL   H13949335   2.880   3.665   0.191  0.1367  0.9984  0.2807
   99MOL   H14049336   2.886   3.641   0.014  0.7385  0.7789  0.2527
   99MOL   H14149337   2.657   3.613   0.121 -3.5556  2.1104  2.8008
   99MOL   H14249338   2.657   3.732   7.769  0.4035 -0.8119  0.0112
   99MOL   H14349339   2.706   3.844   0.253  3.5093  0.0019 -2.0835
   99MOL   H14449340   2.664   3.917   0.118  0.8011  0.3041 -0.1199
   99MOL   H14549341   2.432   3.837   0.102  0.8368  2.8170 -0.3577
   99MOL   H14649342   2.464   3.733   0.247 -1.9541  0.8772  0.0301
   99MOL   H14749343   2.512   3.945   0.371  0.8940  0.6646  0.2891
   99MOL   H14849344   2.472   4.043   0.232 -0.2363  1.0192  0.7821
   99MOL   H14949345   2.278   3.845   0.351 -0.7926 -0.7946 -1.1687
   99MOL   H15049346   2.299   4.023   0.403  1.4710 -0.3437 -0.2547
   99MOL   H15149347   2.236   3.973   0.249  0.5085 -2.0755 -1.5265
   99MOL   C15249348   3.123   3.827   0.194  0.6919  0.0407 -0.0441
   99MOL   C15349349   3.051   3.878   0.326  0.5153  0.2701  0.0100
   99MOL   O15449350   3.143   3.861   0.438  0.7307  1.0346  0.1414
   99MOL   C15549351   3.147   3.732   0.505  0.0793  0.3822 -0.5172
   99MOL   C15649352   3.261   3.739   0.603  0.5541 -0.5481  0.0099
   99MOL   C15749353   3.403   3.729   0.540 -0.0989 -0.2519 -0.0643
   99MOL   C15849354   3.516   3.718   0.633 -0.1005 -0.2115 -0.5417
   99MOL   C15949355   3.660   3.727   0.582  0.8053  0.4939 -0.0964
   99MOL   C16049356   3.758   3.729   0.701 -0.3277  0.4447 -0.2453
   99MOL   H16149357   3.138   3.720   0.211 -1.4076 -0.3808 -0.7251
   99MOL   H16249358   3.221   3.873   0.180  0.2544  1.0080  0.1019
   99MOL   H16349359   2.965   3.813   0.342  0.5911  0.5890  1.8215
   99MOL   H16449360   3.156   3.651   0.433 -1.2220 -0.1132 -0.1438
   99MOL   H16549361   3.055   3.718   0.562  0.8843  0.3300  0.7839
   99MOL   H16649362   3.258   3.661   0.678 -0.7647  0.3269  0.8848
   99MOL   H16749363   3.239   3.826   0.665  1.8984 -0.2034  0.0276
   99MOL   H16849364   3.412   3.665   0.452 -0.5490 -0.1102 -0.2158
   99MOL   H16949365   3.407   3.825   0.490 -0.6090  0.8115  1.8751
   99MOL   H17049366   3.516   3.799   0.706  0.1005 -1.0434  0.3944
   99MOL   H17149367   3.495   3.632   0.695  0.0359 -0.0441 -0.2633
   99MOL   H17249368   3.685   3.645   0.515 -0.1648 -0.7899  1.0801
   99MOL   H17349369   3.665   3.811   0.513 -0.0105 -0.4466 -1.3187
   99MOL   H17449370   3.758   3.639   0.763 -1.0469 -0.4274 -1.4930
   99MOL   H17549371   3.860   3.744   0.664 -0.7235 -2.2600 -2.6334
   99MOL   H17649372   3.737   3.813   0.767  2.0345  0.0553  1.0880
   99MOL   C17749373   3.031   4.031   0.315  0.3645  0.0908 -0.4824
   99MOL   C17849374   2.953   4.080   0.436 -0.2121  0.8277  0.4916
   99MOL   O17949375   2.973   4.221   0.444  0.9976 -0.6344  0.5635
   99MOL   C18049376   3.088   4.260   0.516 -0.1382 -0.2031 -0.1404
   99MOL   C18149377   3.109   4.414   0.532 -0.0226  0.3827 -0.0928
   99MOL   C18249378   3.228   4.452   0.616  0.1046 -0.2333  0.3753
   99MOL   C18349379   3.215   4.445   0.763 -0.8044  0.3632  0.6623
   99MOL   C18449380   3.353   4.475   0.832  0.0100  0.2074 -0.1302
   99MOL   C18549381   3.334   4.453   0.980 -0.0978  0.7755  0.5981
   99MOL   H18649382   3.128   4.081   0.310  0.2816  0.1538 -1.6243
   99MOL   H18749383   2.987   4.065   0.221  2.4931 -0.0546 -1.5518
   99MOL   H18849384   2.988   4.029   0.526  2.9422  1.2029 -0.4329
   99MOL   H18949385   3.178   4.210   0.480  0.0154 -0.0820  0.0795
   99MOL   H19049386   3.076   4.225   0.619  0.0691  0.4356  0.0984
   99MOL   H19149387   3.016   4.459   0.568  0.7045  2.3007 -0.5625
   99MOL   H19249388   3.113   4.456   0.432  0.5192  0.1420 -0.1719
   99MOL   H19349389   3.310   4.387   0.583  0.8895  1.5902 -1.4242
   99MOL   H19449390   3.250   4.557   0.592 -2.6515  0.2034 -0.4305
   99MOL   H19549391   3.128   4.493   0.808 -1.1583  1.5317 -1.2060
   99MOL   H19649392   3.196   4.339   0.781 -0.0696  0.3382  1.3008
   99MOL   H19749393   3.426   4.398   0.808  1.9977  0.9979  3.0519
   99MOL   H19849394   3.384   4.577   0.809  1.0049  0.0925  0.6936
   99MOL   H19949395   3.420   4.418   1.036  0.6435 -1.2356 -1.7157
   99MOL   H20049396   3.312   4.549   1.027 -2.2055  0.6042 -0.0024
   99MOL   H20149397   3.249   4.390   1.004 -0.3697  0.0446 -2.0768
   99MOL   C20249398   2.792   4.052   0.426 -0.0283  0.0099  0.1681
   99MOL   C20349399   2.713   4.131   0.533 -0.4748  0.1193  0.1565
   99MOL   O20449400   2.617   4.043   0.601  0.1510 -0.2268 -0.0882
   99MOL   C20549401   2.680   3.955   0.695  0.7027 -0.0954 -0.3866
   99MOL   C20649402   2.558   3.877   0.754 -0.0129  0.2389 -0.2664
   99MOL   C20749403   2.606   3.767   0.843 -0.2548  0.3606  0.0451
   99MOL   C20849404   2.501   3.667   0.891 -0.0582 -0.5246  0.3586
   99MOL   C20949405   2.453   3.566   0.787  0.2941  0.3736 -0.3433
   99MOL   C21049406   2.337   3.479   0.840  0.4185 -0.0254 -0.2105
   99MOL   H21149407   2.743   4.081   0.333  0.3361 -0.4988 -0.1844
   99MOL   H21249408   2.770   3.945   0.431 -0.2904  0.0223 -0.7449
   99MOL   H21349409   2.775   4.170   0.614 -0.9805  0.7070  0.2597
   99MOL   H21449410   2.723   4.025   0.767  0.4343  0.3750 -0.6752
   99MOL   H21549411   2.753   3.890   0.646 -0.1741 -1.3486 -0.0426
   99MOL   H21649412   2.500   3.834   0.673 -0.5799  0.5743 -0.0359
   99MOL   H21749413   2.487   3.934   0.814  0.1844  1.2827 -0.9953
   99MOL   H21849414   2.678   3.709   0.785 -0.5108 -0.8688  0.9255
   99MOL   H21949415   2.644   3.815   0.933 -0.9718 -2.3353  1.8613
   99MOL   H22049416   2.545   3.608   0.971 -1.9990 -2.4240  0.0803
   99MOL   H22149417   2.413   3.724   0.923  0.7406  1.2725 -0.5412
   99MOL   H22249418   2.425   3.622   0.698  1.7524  1.6003 -0.0506
   99MOL   H22349419   2.530   3.491   0.770 -0.2327 -0.8559  2.4019
   99MOL   H22449420   2.372   3.413   0.920  2.1830 -0.2547 -1.1664
   99MOL   H22549421   2.256   3.543   0.875  2.1075  0.9746  2.0144
   99MOL   H22649422   2.300   3.431   0.749  2.2806 -0.4760 -0.7493
   99MOL   C22749423   2.648   4.255   0.468 -0.3891  0.0399 -0.4192
   99MOL   C22849424   2.583   4.358   0.561  0.2668  0.0328 -0.2722
   99MOL   O22949425   2.683   4.405   0.655 -0.4874  0.1440 -0.2603
   99MOL   C23049426   2.668   4.363   0.787 -0.1643 -0.2220 -0.2845
   99MOL   C23149427   2.786   4.406   0.871  0.4561 -0.0906 -0.3098
   99MOL   C23249428   2.778   4.338   1.012 -0.1616 -0.6942 -0.9105
   99MOL   C23349429   2.903   4.378   1.084  0.1664  0.8606 -0.9015
   99MOL   C23449430   2.922   4.297   1.214  0.0466  0.1510 -0.2234
   99MOL   C23549431   3.066   4.309   1.262 -0.4840  0.3704 -0.1479
   99MOL   H23649432   2.720   4.307   0.405 -0.9949 -0.8825 -1.9132
   99MOL   H23749433   2.575   4.227   0.392 -0.8631  0.7392 -0.2249
   99MOL   H23849434   2.513   4.308   0.628 -1.7464  2.3107 -0.6164
   99MOL   H23949435   2.654   4.255   0.796  0.0219 -0.1346  1.0940
   99MOL   H24049436   2.578   4.416   0.818  1.0100 -0.5041  3.8474
   99MOL   H24149437   2.784   4.514   0.891  0.6469  0.4154 -2.8075
   99MOL   H24249438   2.874   4.366   0.823  1.1435  2.1792 -0.9948
   99MOL   H24349439   2.683   4.370   1.055  0.8398 -0.6946  1.3344
   99MOL   H24449440   2.769   4.230   1.005 -1.9539 -0.6556  0.6133
   99MOL   H24549441   2.992   4.367   1.022  1.4495  1.7114  0.7270
   99MOL   H24649442   2.903   4.480   1.122 -1.1658  1.1098 -1.5516
   99MOL   H24749443   2.849   4.307   1.294 -1.6555 -2.7256 -1.3786
   99MOL   H24849444   2.901   4.195   1.183  0.9624 -0.5831  1.4799
   99MOL   H24949445   3.146   4.281   1.194 -1.2341 -1.4923 -0.2932
   99MOL   H25049446   3.103   4.407   1.291  0.0730 -0.1588  0.9882
   99MOL   H25149447   3.081   4.240   1.345  1.8732  1.3287  0.2681
   99MOL   C25249448   2.504   4.468   0.494  0.8036  0.5455 -0.5461
   99MOL   C25349449   2.505   4.607   0.569  0.8952  0.3322 -0.0402
   99MOL   O25449450   2.407   4.699   0.512  0.0216 -0.0642  0.1579
   99MOL   C25549451   2.274   4.680   0.559 -0.3472  0.2001 -0.0433
   99MOL   C25649452   2.185   4.783   0.493  0.0383 -0.3316  0.8243
   99MOL   C25749453   2.184   4.756   0.338 -0.5467  0.1368  0.5119
   99MOL   C25849454   2.046   4.793   0.279  0.8092  0.0673 -0.5857
   99MOL   C25949455   2.023   4.755   0.136 -0.6122  1.0536  0.2570
   99MOL   C26049456   1.920   4.829   0.062  0.0437 -0.2464 -0.1659
   99MOL   H26149457   2.548   4.491   0.397  0.6341  0.2587 -0.6919
   99MOL   H26249458   2.405   4.428   0.471  1.1056 -0.3194 -0.3776
   99MOL   H26349459   2.463   4.587   0.668 -0.4907 -3.1016 -1.2252
   99MOL   H26449460   2.264   4.701   0.666  1.4770  1.5678 -0.1128
   99MOL   H26549461   2.245   4.575   0.550 -0.8651  0.2970  0.4638
   99MOL   H26649462   2.217   4.882   0.525 -2.3143  0.6813  0.1934
   99MOL   H26749463   2.084   4.776   0.533 -0.5910  0.1202 -0.6479
   99MOL   H26849464   2.268   4.817   0.306 -0.4586 -0.4000 -0.2943
   99MOL   H26949465   2.199   4.649   0.320 -2.8590 -0.1689  0.2313
   99MOL   H27049466   1.963   4.752   0.337  0.6859 -0.5374 -1.1889
   99MOL   H27149467   2.048   4.902   0.285  0.6960 -0.0855  4.0838
   99MOL   H27249468   2.105   4.770   0.065 -0.9345  1.0668 -0.1158
   99MOL   H27349469   1.994   4.650   0.138 -0.6047  1.0763  2.5160
   99MOL   H27449470   1.938   4.934   0.041  1.1023 -0.5933 -1.0348
   99MOL   H27549471   1.915   4.792   7.736 -1.5536  0.4917 -0.3694
   99MOL   H27649472   1.825   4.818   0.115  1.0798  0.4542  1.8427
   99MOL   C27749473   2.632   4.686   0.556 -0.4214  0.1106  0.5025
   99MOL   C27849474   2.635   4.817   0.629  0.0516  0.7510 -0.0738
   99MOL   O27949475   2.646   4.796   0.771 -0.8450  0.3528 -0.0435
   99MOL   C28049476   2.557   4.874   0.853  0.1822 -0.6217  0.1458
   99MOL   C28149477   2.540   4.815   0.995 -0.1434 -0.2463  0.4562
   99MOL   C28249478   2.658   4.861   1.083 -0.1279  0.6221 -0.0602
   99MOL   C28349479   2.665   4.793   1.225  0.1512 -0.5696 -0.6359
   99MOL   C28449480   2.569   4.846   1.339  0.4742 -0.6141 -0.0991
   99MOL   C28549481   2.605   4.786   1.475  0.1441 -0.1427 -0.6741
   99MOL   H28649482   2.725   4.637   0.585 -0.9315 -0.1677  1.6955
   99MOL   H28749483   2.645   4.694   0.448  0.5510 -1.3399  0.4859
   99MOL   H28849484   2.544   4.873   0.610 -1.1814 -1.3409 -0.4704
   99MOL   H28949485   2.456   4.857   0.815  0.9267  0.1556 -2.3058
   99MOL   H29049486   2.584   4.979   0.856  1.3048 -0.8262 -1.9299
   99MOL   H29149487   2.544   4.706   0.994 -2.2179 -0.3372 -1.3496
   99MOL   H29249488   2.453   4.854   1.048 -2.0663 -2.5562 -0.8714
   99MOL   H29349489   2.748   4.831   1.029 -0.7435 -3.0552  0.7975
   99MOL   H29449490   2.643   4.967   1.100 -0.7424  0.4741  0.3324
   99MOL   H29549491   2.640   4.687   1.218  1.4754 -0.8257 -1.7094
   99MOL   H29649492   2.768   4.803   1.258  1.3145 -2.1356 -3.5599
   99MOL   H29749493   2.569   4.955   1.345  2.5912 -0.6891  1.5947
   99MOL   H29849494   2.466   4.819   1.318 -0.2735  0.9292  1.4263
   99MOL   H29949495   2.709   4.798   1.503 -0.5252  0.9857  1.4515
   99MOL   H30049496   2.551   4.825   1.561  2.2415 -1.0439  1.0929
   99MOL   H30149497   2.588   4.678   1.466  0.3860  0.0003 -3.4310
   99MOL   C30249498   2.750   4.912   0.579 -0.5494 -1.2475  0.3113
   99MOL   C30349499   2.719   4.985   0.442 -0.7032 -0.2397 -0.5403
   99MOL   O30449500   2.719   4.911   0.315 -0.5235 -0.1828  0.1562
   99MOL   C30549501   2.587   4.910   0.255 -0.3285 -0.1040  0.3342
   99MOL   C30649502   2.597   4.849   0.119  0.6672  0.4158 -0.1918
   99MOL   C30749503   2.625   4.950   0.011  0.2086  0.3824  0.3931
   99MOL   C30849504   2.666   4.867   7.664 -0.5969  0.4996 -0.3861
   99MOL   C30949505   2.695   4.951   7.531  0.2526  0.7225  0.5643
   99MOL   C31049506   2.719   4.872   7.404 -0.2421  0.8188  0.2747
   99MOL   H31149507   2.751   4.984   0.660  0.5236 -0.3166 -0.5221
   99MOL   H31249508   2.846   4.861   0.583  0.4201  0.5318  0.1998
   99MOL   H31349509   2.620   5.031   0.450  0.5822  2.3843  0.6828
   99MOL   H31449510   2.543   5.010   0.257 -0.7003 -0.2858  1.6800
   99MOL   H31549511   2.521   4.850   0.317  0.1592 -1.9300 -0.8782
   99MOL   H31649512   2.506   4.792   0.099 -0.6264  1.8771  1.3216
   99MOL   H31749513   2.669   4.769   0.133 -3.5730 -3.6116 -0.3970
   99MOL   H31849514   2.548   5.015   7.748  2.3356  1.4859 -2.0824
   99MOL   H31949515   2.708   5.014   0.040 -0.5885  1.9892 -0.7793
   99MOL   H32049516   2.741   4.789   7.675  0.4140  0.9384 -3.5563
   99MOL   H32149517   2.577   4.811   7.634  1.7196 -1.9140 -2.9408
   99MOL   H32249518   2.626   5.034   7.514  1.6040  1.6093 -0.7183
   99MOL   H32349519   2.791   4.994   7.557  1.8164 -0.7313 -2.5814
   99MOL   H32449520   2.783   4.932   7.339  0.3834  0.8235  0.8895
   99MOL   H32549521   2.765   4.775   7.421 -1.7897 -0.1480 -0.7877
   99MOL   H32649522   2.624   4.868   7.350  1.5664  1.2629 -3.1030
   99MOL   C32749523   2.822   5.097   0.419 -0.2091 -0.1555  0.4966
   99MOL   C32849524   2.805   5.216   0.514  0.3183  0.4027  0.4124
   99MOL   O32949525   2.880   5.189   0.634 -0.7752  0.4231  0.1937
   99MOL   C33049526   2.846   5.262   0.759 -0.4008 -0.3323 -0.0785
   99MOL   C33149527   2.887   5.164   0.871  0.0805 -0.4010 -0.5244
   99MOL   C33249528   2.839   5.209   1.008  0.5119 -0.0609  0.6083
   99MOL   C33349529   2.882   5.123   1.126 -0.1694 -0.2624 -1.1108
   99MOL   C33449530   2.835   5.162   1.262 -0.4480 -0.1461 -0.6062
   99MOL   C33549531   2.888   5.078   1.376  0.3638  0.0463 -0.1554
   99MOL   H33649532   2.815   5.119   0.312  2.4273  1.0308  0.5212
   99MOL   H33749533   2.925   5.061   0.424 -0.4050 -0.5308  2.0492
   99MOL   H33849534   2.704   5.229   0.552  0.0457 -0.8775  0.1380
   99MOL   H33949535   2.739   5.282   0.757 -0.0154  1.9898  0.8218
   99MOL   H34049536   2.904   5.354   0.771  2.2353 -1.4971 -3.1702
   99MOL   H34149537   2.995   5.151   0.873 -0.1486 -2.2832  0.6389
   99MOL   H34249538   2.852   5.067   0.836 -3.7360  0.9441 -0.7409
   99MOL   H34349539   2.888   5.304   1.029  0.3625  0.2458 -0.4162
   99MOL   H34449540   2.731   5.220   1.003  0.6294  0.6027 -0.4936
   99MOL   H34549541   2.856   5.017   1.114  0.4326 -0.5481  0.0276
   99MOL   H34649542   2.991   5.121   1.135 -0.1798 -2.6907 -1.1762
   99MOL   H34749543   2.880   5.261   1.274 -0.1636 -0.2099 -1.1334
   99MOL   H34849544   2.727   5.162   1.273 -0.4868  0.9574 -0.9595
   99MOL   H34949545   2.996   5.065   1.378  0.1968 -1.2258  1.1231
   99MOL   H35049546   2.874   5.123   1.474 -0.4155  0.8976 -0.6431
   99MOL   H35149547   2.849   4.976   1.375  0.7546 -0.1041 -2.5245
   99MOL   C35249548   2.852   5.351   0.442  0.1990 -0.4974 -0.2553
   99MOL   C35349549   2.742   5.398   0.342  0.1714  0.1018  0.5863
   99MOL   O35449550   2.609   5.379   0.405 -0.0896 -0.1045 -0.1133
   99MOL   C35549551   2.570   5.484   0.491 -0.7286 -0.2517 -0.5395
   99MOL   C35649552   2.431   5.461   0.556 -0.0808 -0.2902  1.1100
   99MOL   C35749553   2.421   5.329   0.628 -0.3586 -0.1963  0.1689
   99MOL   C35849554   2.288   5.318   0.708  0.2794  0.4455  0.6731
   99MOL   C35949555   2.278   5.190   0.790 -0.0457  0.0862  0.3625
   99MOL   C36049556   2.346   5.187   0.929  0.1797 -0.6588  0.1530
   99MOL   H36149557   2.868   5.431   0.514  2.2461 -0.9882 -0.1189
   99MOL   H36249558   2.952   5.350   0.399 -0.0728 -1.3488 -0.8949
   99MOL   H36349559   2.762   5.504   0.326 -0.9935  0.1042 -1.0475
   99MOL   H36449560   2.568   5.584   0.447 -2.7886 -0.2112 -0.3786
   99MOL   H36549561   2.643   5.486   0.572 -0.3848  0.1355 -0.8548
   99MOL   H36649562   2.353   5.465   0.480 -0.0551 -2.3864  0.9510
   99MOL   H36749563   2.409   5.538   0.630  2.0586  1.2659  0.1716
   99MOL   H36849564   2.412   5.246   0.558  0.2509  1.5343 -2.0452
   99MOL   H36949565   2.508   5.322   0.693  0.7653 -1.1249 -1.4037
   99MOL   H37049566   2.266   5.408   0.765  1.3046  0.7313  0.6269
   99MOL   H37149567   2.205   5.309   0.638 -0.2730  2.7702  1.0009
   99MOL   H37249568   2.173   5.172   0.813 -0.2567  0.5762 -0.2156
   99MOL   H37349569   2.306   5.105   0.727 -0.1132  1.3074 -1.3344
   99MOL   H37449570   2.453   5.193   0.912  0.7056 -4.1333  1.9547
   99MOL   H37549571   2.314   5.269   0.994 -0.0329 -0.4606 -0.2005
   99MOL   H37649572   2.325   5.093   0.980 -2.3638 -1.2538 -1.8875
   99MOL   C37749573   2.750   5.354   0.200  0.3863 -0.6329  1.1702
   99MOL   C37849574   2.703   5.451   0.084  0.2201 -1.4522 -0.0254
   99MOL   O37949575   2.791   5.563   0.094 -0.2146  0.0723 -0.4173
   99MOL   C38049576   2.818   5.626   7.750  0.4901  0.1468  0.0979
   99MOL   C38149577   2.897   5.756   7.773  0.1918  0.6398  0.3081
   99MOL   C38249578   2.922   5.829   7.640 -0.2750 -0.2477  0.6470
   99MOL   C38349579   3.028   5.950   7.649  0.0356  0.0457  0.6018
   99MOL   C38449580   3.040   6.013   7.505 -0.4583  0.5770 -0.2356
   99MOL   C38549581   2.926   6.107   7.461  0.1165 -0.3544  0.0255
   99MOL   H38649582   2.848   5.315   0.174 -0.1473 -2.0944  1.2697
   99MOL   H38749583   2.688   5.264   0.187  0.4489 -0.3737 -1.1228
   99MOL   H38849584   2.731   5.403   7.768 -5.2219 -2.2448 -1.4645
   99MOL   H38949585   2.723   5.650   7.703  1.4478  0.5230 -1.6796
   99MOL   H39049586   2.870   5.554   7.686  0.6794 -0.1074  0.5300
   99MOL   H39149587   2.993   5.722   0.034  2.1577  0.9524 -4.0183
   99MOL   H39249588   2.858   5.814   0.079  0.0145  1.6497 -0.4622
   99MOL   H39349589   2.947   5.755   7.564  0.2689 -0.3040  0.8859
   99MOL   H39449590   2.825   5.871   7.611  0.4165  1.5786  0.9100
   99MOL   H39549591   2.999   6.023   7.725  3.4591  2.3235 -0.1569
   99MOL   H39649592   3.122   5.902   7.675 -0.1809 -2.5236 -2.9883
   99MOL   H39749593   3.135   6.068   7.509 -0.7361  1.1487 -1.1529
   99MOL   H39849594   3.062   5.934   7.433 -2.5117 -1.0608  0.8842
   99MOL   H39949595   2.933   6.154   7.363  0.0613  0.7939  0.5698
   99MOL   H40049596   2.830   6.057   7.473  0.0430  0.0610  1.2854
   99MOL   H40149597   2.923   6.192   7.529 -1.0442 -1.2583  1.1492
   99MOL   C40249598   2.546   5.475   0.084  0.2107  0.0440  0.7934
   99MOL   C40349599   2.485   5.536   7.737  0.3677 -0.5512  0.1611
   99MOL   O40449600   2.345   5.533   7.751 -0.0304  0.2731 -0.0690
   99MOL   C40549601   2.294   5.593   0.090 -0.5041  0.4974 -0.4941
   99MOL   C40649602   2.143   5.610   0.082 -0.3674  0.3407  0.4160
   99MOL   C40749603   2.084   5.688   7.742  0.7310  0.6446  0.1677
   99MOL   C40849604   1.926   5.697   7.747  0.1887 -0.7227 -0.7364
   99MOL   C40949605   1.855   5.564   7.777  0.4161 -0.1965 -0.1337
   99MOL   C41049606   1.873   5.449   7.669  0.5213  0.0216 -0.4183
   99MOL   H41149607   2.522   5.531   0.174 -0.4274  3.2715 -1.2724
   99MOL   H41249608   2.498   5.379   0.104 -0.0507 -0.3014 -1.3391
   99MOL   H41349609   2.518   5.640   7.731 -1.0101 -0.2211 -2.2608
   99MOL   H41449610   2.336   5.690   0.114  1.9719  0.2491 -3.5086
   99MOL   H41549611   2.307   5.522   0.171 -0.5591 -2.1040 -2.6878
   99MOL   H41649612   2.106   5.670   0.164 -0.6087  0.3269  0.3161
   99MOL   H41749613   2.090   5.515   0.087 -1.0776  0.7797  1.4835
   99MOL   H41849614   2.129   5.787   7.734 -0.9697  1.3423 -1.2063
   99MOL   H41949615   2.108   5.631   7.652 -1.9404 -1.3893  0.6806
   99MOL   H42049616   1.896   5.762   0.052  1.8198  0.1256 -0.7956
   99MOL   H42149617   1.884   5.747   7.660 -0.0148 -0.3182 -0.4096
   99MOL   H42249618   1.877   5.526   0.099 -1.1970 -0.3996  0.1547
   99MOL   H42349619   1.749   5.589   7.772  0.2963 -1.0564 -2.1524
   99MOL   H42449620   1.852   5.480   7.567  0.0758 -1.2700 -0.7378
   99MOL   H42549621   1.966   5.393   7.681  0.7386 -0.0675 -2.3174
   99MOL   H42649622   1.798   5.372   7.689 -0.0070 -0.4510 -3.9520
   99MOL   C42749623   2.513   5.472   7.603 -0.4080 -0.5197  0.0213
   99MOL   C42849624   2.458   5.562   7.489 -0.4978 -0.7311  0.0028
   99MOL   O42949625   2.559   5.662   7.452  0.0210 -0.5089  0.2663
   99MOL   C43049626   2.513   5.790   7.400  0.1653  0.4124 -0.7005
   99MOL   C43149627   2.448   5.873   7.508 -0.0866  0.9121  0.0464
   99MOL   C43249628   2.533   5.921   7.625  0.4672  0.2039  0.0443
   99MOL   C43349629   2.460   5.978   7.744  0.2160 -0.3456 -0.3985
   99MOL   C43449630   2.562   6.051   0.059 -0.3991 -0.6880  0.4583
   99MOL   C43549631   2.621   6.184   0.015 -0.6842 -0.1136  0.1370
   99MOL   H43649632   2.621   5.469   7.592 -0.5315 -0.7725 -1.2150
   99MOL   H43749633   2.482   5.368   7.590  0.2445 -0.6153 -0.8371
   99MOL   H43849634   2.368   5.616   7.517 -0.7130 -0.9037 -0.3587
   99MOL   H43949635   2.446   5.773   7.316 -1.0921 -0.9839  0.5326
   99MOL   H44049636   2.600   5.839   7.359 -0.5237  0.8911 -1.6094
   99MOL   H44149637   2.365   5.816   7.551  0.4915  0.4412  0.5381
   99MOL   H44249638   2.395   5.960   7.469  0.1997  1.0886  0.0529
   99MOL   H44349639   2.594   5.844   7.672 -0.6191  0.3898  1.8053
   99MOL   H44449640   2.610   5.981   7.576 -2.5973  2.4539 -2.1914
   99MOL   H44549641   2.378   6.045   7.719  0.4113  0.4548  1.0746
   99MOL   H44649642   2.410   5.899   0.022 -0.7040 -0.0901 -0.8526
   99MOL   H44749643   2.506   6.066   0.151 -0.4263  1.2722  0.1393
   99MOL   H44849644   2.639   5.977   0.080  0.6492 -0.0890 -1.1396
   99MOL   H44949645   2.677   6.176   7.699  2.1159 -0.0332  1.7784
   99MOL   H45049646   2.542   6.259   0.012 -0.1793  0.3550 -2.4230
   99MOL   H45149647   2.691   6.212   0.094  0.0641  1.1402 -0.9609
   99MOL   C45249648   2.403   5.480   7.369 -0.2950 -0.4969  0.3392
   99MOL   C45349649   2.247   5.441   7.392  0.0733 -0.0397  0.1081
   99MOL   O45449650   2.203   5.299   7.367 -0.2994 -1.0593  0.9429
   99MOL   C45549651   2.264   5.202   7.452  0.3121  0.7079  0.2671
   99MOL   C45649652   2.200   5.195   7.596  0.7159 -1.1856 -0.3144
   99MOL   C45749653   2.270   5.089   7.668  0.0909  0.3756  0.3592
   99MOL   C45849654   2.228   5.071   0.039 -0.1225  0.6439  0.0407
   99MOL   C45949655   2.247   5.191   0.127  0.3744 -0.1190  0.3323
   99MOL   C46049656   2.193   5.176   0.270 -0.1900 -0.6938 -0.4356
   99MOL   H46149657   2.415   5.556   7.292  4.7679 -1.4197  0.0466
   99MOL   H46249658   2.475   5.404   7.341  0.4252  0.7001 -1.1473
   99MOL   H46349659   2.222   5.459   7.497  2.1975 -0.6812  0.7600
   99MOL   H46449660   2.373   5.212   7.445  0.9876 -4.9793  0.0985
   99MOL   H46549661   2.240   5.119   7.386 -1.1819  0.8052  0.6694
   99MOL   H46649662   2.098   5.158   7.584  0.4310 -1.1498  1.8707
   99MOL   H46749663   2.203   5.287   7.655  1.7267  1.1543 -3.8324
   99MOL   H46849664   2.266   4.998   7.610 -0.6739  1.2925 -1.0457
   99MOL   H46949665   2.374   5.121   7.661 -1.0023  3.7355 -2.1068
   99MOL   H47049666   2.121   5.053   0.030 -0.0259  0.4004 -0.6944
   99MOL   H47149667   2.278   4.985   0.084  2.3759  2.4477  0.8464
   99MOL   H47249668   2.349   5.231   0.130  0.5167 -0.5193  0.8392
   99MOL   H47349669   2.195   5.270   0.073  0.8789 -0.7028 -1.0155
   99MOL   H47449670   2.252   5.117   0.339 -0.4274 -0.7048 -0.2414
   99MOL   H47549671   2.173   5.277   0.307 -3.5095 -1.3630 -0.2261
   99MOL   H47649672   2.095   5.129   0.272 -0.4963 -0.0240  0.6178
   99MOL   C47749673   2.142   5.524   7.298 -0.0029  0.1172 -0.0128
   99MOL   C47849674   2.155   5.492   7.145 -0.1248 -0.2811 -0.1972
   99MOL   O47949675   2.087   5.597   7.072 -0.1028  0.3226 -0.1644
   99MOL   C48049676   1.953   5.567   7.071  0.4790  0.0522 -0.0254
   99MOL   C48149677   1.878   5.682   6.995 -0.1083  0.1794  0.7161
   99MOL   C48249678   1.888   5.678   6.846  0.0375  1.0040 -0.5075
   99MOL   C48349679   1.831   5.800   6.775 -0.3549 -0.3160  0.1178
   99MOL   C48449680   1.837   5.790   6.620 -0.2403  1.2383  0.7190
   99MOL   C48549681   1.794   5.915   6.547 -0.0383  0.0005 -0.3090
   99MOL   H48649682   2.039   5.513   7.332  0.6519  0.9164  2.3524
   99MOL   H48749683   2.158   5.629   7.321 -1.0133  0.4046 -0.6004
   99MOL   H48849684   2.259   5.523   7.134 -0.4151  0.5854 -0.5573
   99MOL   H48949685   1.911   5.566   7.172 -0.1411 -0.3542 -0.2858
   99MOL   H49049686   1.913   5.468   7.050 -2.0698  1.1528 -0.5958
   99MOL   H49149687   1.912   5.776   7.040 -0.5827  0.8022 -0.2025
   99MOL   H49249688   1.773   5.678   7.021 -0.4705  1.0706 -0.5390
   99MOL   H49349689   1.992   5.677   6.813  0.0769 -1.3211 -0.3991
   99MOL   H49449690   1.848   5.590   6.797 -0.2610  0.2215  1.0934
   99MOL   H49549691   1.728   5.789   6.807  0.0349  0.4881  1.6727
   99MOL   H49649692   1.872   5.897   6.804  0.5549 -0.4531 -0.6694
   99MOL   H49749693   1.936   5.764   6.583 -0.6146  0.4823  0.2221
   99MOL   H49849694   1.774   5.705   6.593  0.7581  0.3888  1.0088
   99MOL   H49949695   1.713   5.964   6.601 -0.6290 -1.2289 -0.0599
   99MOL   H50049696   1.868   5.993   6.529  0.3323 -0.1424  0.5640
   99MOL   H50149697   1.754   5.892   6.448  1.9110 -0.9843 -0.8894
   99MOL   H50249698   2.140   5.388   7.116  0.8325 -0.5256  0.1985
   7.77722   7.77722   7.77722
