;
; Gromacs include topology (itp) file.
; For Molecular Group XYZ
; Force field scheme: opls2005
; Produced from DL_FIELD v4.11
;


[ moleculetype ]
; name    nrexcl
XYZ    3

[ atoms ]
; nr   type   resnr   residu    atom    cgnr    charge    mass
    1        CT    1  MOL      C1     1  -0.1800000   12.0115
    2        CT    1  MOL      C2     2   0.1700000   12.0115
    3        OS    1  MOL      O3     3  -0.4000000   15.9994
    4        CT    1  MOL      C4     4   0.1400000   12.0115
    5        CT    1  MOL      C5     5  -0.1200000   12.0115
    6        CT    1  MOL      C6     6  -0.1200000   12.0115
    7        CT    1  MOL      C7     7  -0.1200000   12.0115
    8        CT    1  MOL      C8     8  -0.1200000   12.0115
    9        CT    1  MOL      C9     9  -0.1800000   12.0115
   10        HC    1  MOL     H10    10   0.0600000    1.0080
   11        HC    1  MOL     H11    11   0.0600000    1.0080
   12        HC    1  MOL     H12    12   0.0300000    1.0080
   13        HC    1  MOL     H13    13   0.0300000    1.0080
   14        HC    1  MOL     H14    14   0.0300000    1.0080
   15        HC    1  MOL     H15    15   0.0600000    1.0080
   16        HC    1  MOL     H16    16   0.0600000    1.0080
   17        HC    1  MOL     H17    17   0.0600000    1.0080
   18        HC    1  MOL     H18    18   0.0600000    1.0080
   19        HC    1  MOL     H19    19   0.0600000    1.0080
   20        HC    1  MOL     H20    20   0.0600000    1.0080
   21        HC    1  MOL     H21    21   0.0600000    1.0080
   22        HC    1  MOL     H22    22   0.0600000    1.0080
   23        HC    1  MOL     H23    23   0.0600000    1.0080
   24        HC    1  MOL     H24    24   0.0600000    1.0080
   25        HC    1  MOL     H25    25   0.0600000    1.0080
   26        HC    1  MOL     H26    26   0.0600000    1.0080
   27        CT    1  MOL     C27    27  -0.1200000   12.0115
   28        CT    1  MOL     C28    28   0.1700000   12.0115
   29        OS    1  MOL     O29    29  -0.4000000   15.9994
   30        CT    1  MOL     C30    30   0.1400000   12.0115
   31        CT    1  MOL     C31    31  -0.1200000   12.0115
   32        CT    1  MOL     C32    32  -0.1200000   12.0115
   33        CT    1  MOL     C33    33  -0.1200000   12.0115
   34        CT    1  MOL     C34    34  -0.1200000   12.0115
   35        CT    1  MOL     C35    35  -0.1800000   12.0115
   36        HC    1  MOL     H36    36   0.0600000    1.0080
   37        HC    1  MOL     H37    37   0.0600000    1.0080
   38        HC    1  MOL     H38    38   0.0300000    1.0080
   39        HC    1  MOL     H39    39   0.0300000    1.0080
   40        HC    1  MOL     H40    40   0.0300000    1.0080
   41        HC    1  MOL     H41    41   0.0600000    1.0080
   42        HC    1  MOL     H42    42   0.0600000    1.0080
   43        HC    1  MOL     H43    43   0.0600000    1.0080
   44        HC    1  MOL     H44    44   0.0600000    1.0080
   45        HC    1  MOL     H45    45   0.0600000    1.0080
   46        HC    1  MOL     H46    46   0.0600000    1.0080
   47        HC    1  MOL     H47    47   0.0600000    1.0080
   48        HC    1  MOL     H48    48   0.0600000    1.0080
   49        HC    1  MOL     H49    49   0.0600000    1.0080
   50        HC    1  MOL     H50    50   0.0600000    1.0080
   51        HC    1  MOL     H51    51   0.0600000    1.0080
   52        CT    1  MOL     C52    52  -0.1200000   12.0115
   53        CT    1  MOL     C53    53   0.1700000   12.0115
   54        OS    1  MOL     O54    54  -0.4000000   15.9994
   55        CT    1  MOL     C55    55   0.1400000   12.0115
   56        CT    1  MOL     C56    56  -0.1200000   12.0115
   57        CT    1  MOL     C57    57  -0.1200000   12.0115
   58        CT    1  MOL     C58    58  -0.1200000   12.0115
   59        CT    1  MOL     C59    59  -0.1200000   12.0115
   60        CT    1  MOL     C60    60  -0.1800000   12.0115
   61        HC    1  MOL     H61    61   0.0600000    1.0080
   62        HC    1  MOL     H62    62   0.0600000    1.0080
   63        HC    1  MOL     H63    63   0.0300000    1.0080
   64        HC    1  MOL     H64    64   0.0300000    1.0080
   65        HC    1  MOL     H65    65   0.0300000    1.0080
   66        HC    1  MOL     H66    66   0.0600000    1.0080
   67        HC    1  MOL     H67    67   0.0600000    1.0080
   68        HC    1  MOL     H68    68   0.0600000    1.0080
   69        HC    1  MOL     H69    69   0.0600000    1.0080
   70        HC    1  MOL     H70    70   0.0600000    1.0080
   71        HC    1  MOL     H71    71   0.0600000    1.0080
   72        HC    1  MOL     H72    72   0.0600000    1.0080
   73        HC    1  MOL     H73    73   0.0600000    1.0080
   74        HC    1  MOL     H74    74   0.0600000    1.0080
   75        HC    1  MOL     H75    75   0.0600000    1.0080
   76        HC    1  MOL     H76    76   0.0600000    1.0080
   77        CT    1  MOL     C77    77  -0.1200000   12.0115
   78        CT    1  MOL     C78    78   0.1700000   12.0115
   79        OS    1  MOL     O79    79  -0.4000000   15.9994
   80        CT    1  MOL     C80    80   0.1400000   12.0115
   81        CT    1  MOL     C81    81  -0.1200000   12.0115
   82        CT    1  MOL     C82    82  -0.1200000   12.0115
   83        CT    1  MOL     C83    83  -0.1200000   12.0115
   84        CT    1  MOL     C84    84  -0.1200000   12.0115
   85        CT    1  MOL     C85    85  -0.1800000   12.0115
   86        HC    1  MOL     H86    86   0.0600000    1.0080
   87        HC    1  MOL     H87    87   0.0600000    1.0080
   88        HC    1  MOL     H88    88   0.0300000    1.0080
   89        HC    1  MOL     H89    89   0.0300000    1.0080
   90        HC    1  MOL     H90    90   0.0300000    1.0080
   91        HC    1  MOL     H91    91   0.0600000    1.0080
   92        HC    1  MOL     H92    92   0.0600000    1.0080
   93        HC    1  MOL     H93    93   0.0600000    1.0080
   94        HC    1  MOL     H94    94   0.0600000    1.0080
   95        HC    1  MOL     H95    95   0.0600000    1.0080
   96        HC    1  MOL     H96    96   0.0600000    1.0080
   97        HC    1  MOL     H97    97   0.0600000    1.0080
   98        HC    1  MOL     H98    98   0.0600000    1.0080
   99        HC    1  MOL     H99    99   0.0600000    1.0080
  100        HC    1  MOL    H100   100   0.0600000    1.0080
  101        HC    1  MOL    H101   101   0.0600000    1.0080
  102        CT    1  MOL    C102   102  -0.1200000   12.0115
  103        CT    1  MOL    C103   103   0.1700000   12.0115
  104        OS    1  MOL    O104   104  -0.4000000   15.9994
  105        CT    1  MOL    C105   105   0.1400000   12.0115
  106        CT    1  MOL    C106   106  -0.1200000   12.0115
  107        CT    1  MOL    C107   107  -0.1200000   12.0115
  108        CT    1  MOL    C108   108  -0.1200000   12.0115
  109        CT    1  MOL    C109   109  -0.1200000   12.0115
  110        CT    1  MOL    C110   110  -0.1800000   12.0115
  111        HC    1  MOL    H111   111   0.0600000    1.0080
  112        HC    1  MOL    H112   112   0.0600000    1.0080
  113        HC    1  MOL    H113   113   0.0300000    1.0080
  114        HC    1  MOL    H114   114   0.0300000    1.0080
  115        HC    1  MOL    H115   115   0.0300000    1.0080
  116        HC    1  MOL    H116   116   0.0600000    1.0080
  117        HC    1  MOL    H117   117   0.0600000    1.0080
  118        HC    1  MOL    H118   118   0.0600000    1.0080
  119        HC    1  MOL    H119   119   0.0600000    1.0080
  120        HC    1  MOL    H120   120   0.0600000    1.0080
  121        HC    1  MOL    H121   121   0.0600000    1.0080
  122        HC    1  MOL    H122   122   0.0600000    1.0080
  123        HC    1  MOL    H123   123   0.0600000    1.0080
  124        HC    1  MOL    H124   124   0.0600000    1.0080
  125        HC    1  MOL    H125   125   0.0600000    1.0080
  126        HC    1  MOL    H126   126   0.0600000    1.0080
  127        CT    1  MOL    C127   127  -0.1200000   12.0115
  128        CT    1  MOL    C128   128   0.1700000   12.0115
  129        OS    1  MOL    O129   129  -0.4000000   15.9994
  130        CT    1  MOL    C130   130   0.1400000   12.0115
  131        CT    1  MOL    C131   131  -0.1200000   12.0115
  132        CT    1  MOL    C132   132  -0.1200000   12.0115
  133        CT    1  MOL    C133   133  -0.1200000   12.0115
  134        CT    1  MOL    C134   134  -0.1200000   12.0115
  135        CT    1  MOL    C135   135  -0.1800000   12.0115
  136        HC    1  MOL    H136   136   0.0600000    1.0080
  137        HC    1  MOL    H137   137   0.0600000    1.0080
  138        HC    1  MOL    H138   138   0.0300000    1.0080
  139        HC    1  MOL    H139   139   0.0300000    1.0080
  140        HC    1  MOL    H140   140   0.0300000    1.0080
  141        HC    1  MOL    H141   141   0.0600000    1.0080
  142        HC    1  MOL    H142   142   0.0600000    1.0080
  143        HC    1  MOL    H143   143   0.0600000    1.0080
  144        HC    1  MOL    H144   144   0.0600000    1.0080
  145        HC    1  MOL    H145   145   0.0600000    1.0080
  146        HC    1  MOL    H146   146   0.0600000    1.0080
  147        HC    1  MOL    H147   147   0.0600000    1.0080
  148        HC    1  MOL    H148   148   0.0600000    1.0080
  149        HC    1  MOL    H149   149   0.0600000    1.0080
  150        HC    1  MOL    H150   150   0.0600000    1.0080
  151        HC    1  MOL    H151   151   0.0600000    1.0080
  152        CT    1  MOL    C152   152  -0.1200000   12.0115
  153        CT    1  MOL    C153   153   0.1700000   12.0115
  154        OS    1  MOL    O154   154  -0.4000000   15.9994
  155        CT    1  MOL    C155   155   0.1400000   12.0115
  156        CT    1  MOL    C156   156  -0.1200000   12.0115
  157        CT    1  MOL    C157   157  -0.1200000   12.0115
  158        CT    1  MOL    C158   158  -0.1200000   12.0115
  159        CT    1  MOL    C159   159  -0.1200000   12.0115
  160        CT    1  MOL    C160   160  -0.1800000   12.0115
  161        HC    1  MOL    H161   161   0.0600000    1.0080
  162        HC    1  MOL    H162   162   0.0600000    1.0080
  163        HC    1  MOL    H163   163   0.0300000    1.0080
  164        HC    1  MOL    H164   164   0.0300000    1.0080
  165        HC    1  MOL    H165   165   0.0300000    1.0080
  166        HC    1  MOL    H166   166   0.0600000    1.0080
  167        HC    1  MOL    H167   167   0.0600000    1.0080
  168        HC    1  MOL    H168   168   0.0600000    1.0080
  169        HC    1  MOL    H169   169   0.0600000    1.0080
  170        HC    1  MOL    H170   170   0.0600000    1.0080
  171        HC    1  MOL    H171   171   0.0600000    1.0080
  172        HC    1  MOL    H172   172   0.0600000    1.0080
  173        HC    1  MOL    H173   173   0.0600000    1.0080
  174        HC    1  MOL    H174   174   0.0600000    1.0080
  175        HC    1  MOL    H175   175   0.0600000    1.0080
  176        HC    1  MOL    H176   176   0.0600000    1.0080
  177        CT    1  MOL    C177   177  -0.1200000   12.0115
  178        CT    1  MOL    C178   178   0.1700000   12.0115
  179        OS    1  MOL    O179   179  -0.4000000   15.9994
  180        CT    1  MOL    C180   180   0.1400000   12.0115
  181        CT    1  MOL    C181   181  -0.1200000   12.0115
  182        CT    1  MOL    C182   182  -0.1200000   12.0115
  183        CT    1  MOL    C183   183  -0.1200000   12.0115
  184        CT    1  MOL    C184   184  -0.1200000   12.0115
  185        CT    1  MOL    C185   185  -0.1800000   12.0115
  186        HC    1  MOL    H186   186   0.0600000    1.0080
  187        HC    1  MOL    H187   187   0.0600000    1.0080
  188        HC    1  MOL    H188   188   0.0300000    1.0080
  189        HC    1  MOL    H189   189   0.0300000    1.0080
  190        HC    1  MOL    H190   190   0.0300000    1.0080
  191        HC    1  MOL    H191   191   0.0600000    1.0080
  192        HC    1  MOL    H192   192   0.0600000    1.0080
  193        HC    1  MOL    H193   193   0.0600000    1.0080
  194        HC    1  MOL    H194   194   0.0600000    1.0080
  195        HC    1  MOL    H195   195   0.0600000    1.0080
  196        HC    1  MOL    H196   196   0.0600000    1.0080
  197        HC    1  MOL    H197   197   0.0600000    1.0080
  198        HC    1  MOL    H198   198   0.0600000    1.0080
  199        HC    1  MOL    H199   199   0.0600000    1.0080
  200        HC    1  MOL    H200   200   0.0600000    1.0080
  201        HC    1  MOL    H201   201   0.0600000    1.0080
  202        CT    1  MOL    C202   202  -0.1200000   12.0115
  203        CT    1  MOL    C203   203   0.1700000   12.0115
  204        OS    1  MOL    O204   204  -0.4000000   15.9994
  205        CT    1  MOL    C205   205   0.1400000   12.0115
  206        CT    1  MOL    C206   206  -0.1200000   12.0115
  207        CT    1  MOL    C207   207  -0.1200000   12.0115
  208        CT    1  MOL    C208   208  -0.1200000   12.0115
  209        CT    1  MOL    C209   209  -0.1200000   12.0115
  210        CT    1  MOL    C210   210  -0.1800000   12.0115
  211        HC    1  MOL    H211   211   0.0600000    1.0080
  212        HC    1  MOL    H212   212   0.0600000    1.0080
  213        HC    1  MOL    H213   213   0.0300000    1.0080
  214        HC    1  MOL    H214   214   0.0300000    1.0080
  215        HC    1  MOL    H215   215   0.0300000    1.0080
  216        HC    1  MOL    H216   216   0.0600000    1.0080
  217        HC    1  MOL    H217   217   0.0600000    1.0080
  218        HC    1  MOL    H218   218   0.0600000    1.0080
  219        HC    1  MOL    H219   219   0.0600000    1.0080
  220        HC    1  MOL    H220   220   0.0600000    1.0080
  221        HC    1  MOL    H221   221   0.0600000    1.0080
  222        HC    1  MOL    H222   222   0.0600000    1.0080
  223        HC    1  MOL    H223   223   0.0600000    1.0080
  224        HC    1  MOL    H224   224   0.0600000    1.0080
  225        HC    1  MOL    H225   225   0.0600000    1.0080
  226        HC    1  MOL    H226   226   0.0600000    1.0080
  227        CT    1  MOL    C227   227  -0.1200000   12.0115
  228        CT    1  MOL    C228   228   0.1700000   12.0115
  229        OS    1  MOL    O229   229  -0.4000000   15.9994
  230        CT    1  MOL    C230   230   0.1400000   12.0115
  231        CT    1  MOL    C231   231  -0.1200000   12.0115
  232        CT    1  MOL    C232   232  -0.1200000   12.0115
  233        CT    1  MOL    C233   233  -0.1200000   12.0115
  234        CT    1  MOL    C234   234  -0.1200000   12.0115
  235        CT    1  MOL    C235   235  -0.1800000   12.0115
  236        HC    1  MOL    H236   236   0.0600000    1.0080
  237        HC    1  MOL    H237   237   0.0600000    1.0080
  238        HC    1  MOL    H238   238   0.0300000    1.0080
  239        HC    1  MOL    H239   239   0.0300000    1.0080
  240        HC    1  MOL    H240   240   0.0300000    1.0080
  241        HC    1  MOL    H241   241   0.0600000    1.0080
  242        HC    1  MOL    H242   242   0.0600000    1.0080
  243        HC    1  MOL    H243   243   0.0600000    1.0080
  244        HC    1  MOL    H244   244   0.0600000    1.0080
  245        HC    1  MOL    H245   245   0.0600000    1.0080
  246        HC    1  MOL    H246   246   0.0600000    1.0080
  247        HC    1  MOL    H247   247   0.0600000    1.0080
  248        HC    1  MOL    H248   248   0.0600000    1.0080
  249        HC    1  MOL    H249   249   0.0600000    1.0080
  250        HC    1  MOL    H250   250   0.0600000    1.0080
  251        HC    1  MOL    H251   251   0.0600000    1.0080
  252        CT    1  MOL    C252   252  -0.1200000   12.0115
  253        CT    1  MOL    C253   253   0.1700000   12.0115
  254        OS    1  MOL    O254   254  -0.4000000   15.9994
  255        CT    1  MOL    C255   255   0.1400000   12.0115
  256        CT    1  MOL    C256   256  -0.1200000   12.0115
  257        CT    1  MOL    C257   257  -0.1200000   12.0115
  258        CT    1  MOL    C258   258  -0.1200000   12.0115
  259        CT    1  MOL    C259   259  -0.1200000   12.0115
  260        CT    1  MOL    C260   260  -0.1800000   12.0115
  261        HC    1  MOL    H261   261   0.0600000    1.0080
  262        HC    1  MOL    H262   262   0.0600000    1.0080
  263        HC    1  MOL    H263   263   0.0300000    1.0080
  264        HC    1  MOL    H264   264   0.0300000    1.0080
  265        HC    1  MOL    H265   265   0.0300000    1.0080
  266        HC    1  MOL    H266   266   0.0600000    1.0080
  267        HC    1  MOL    H267   267   0.0600000    1.0080
  268        HC    1  MOL    H268   268   0.0600000    1.0080
  269        HC    1  MOL    H269   269   0.0600000    1.0080
  270        HC    1  MOL    H270   270   0.0600000    1.0080
  271        HC    1  MOL    H271   271   0.0600000    1.0080
  272        HC    1  MOL    H272   272   0.0600000    1.0080
  273        HC    1  MOL    H273   273   0.0600000    1.0080
  274        HC    1  MOL    H274   274   0.0600000    1.0080
  275        HC    1  MOL    H275   275   0.0600000    1.0080
  276        HC    1  MOL    H276   276   0.0600000    1.0080
  277        CT    1  MOL    C277   277  -0.1200000   12.0115
  278        CT    1  MOL    C278   278   0.1700000   12.0115
  279        OS    1  MOL    O279   279  -0.4000000   15.9994
  280        CT    1  MOL    C280   280   0.1400000   12.0115
  281        CT    1  MOL    C281   281  -0.1200000   12.0115
  282        CT    1  MOL    C282   282  -0.1200000   12.0115
  283        CT    1  MOL    C283   283  -0.1200000   12.0115
  284        CT    1  MOL    C284   284  -0.1200000   12.0115
  285        CT    1  MOL    C285   285  -0.1800000   12.0115
  286        HC    1  MOL    H286   286   0.0600000    1.0080
  287        HC    1  MOL    H287   287   0.0600000    1.0080
  288        HC    1  MOL    H288   288   0.0300000    1.0080
  289        HC    1  MOL    H289   289   0.0300000    1.0080
  290        HC    1  MOL    H290   290   0.0300000    1.0080
  291        HC    1  MOL    H291   291   0.0600000    1.0080
  292        HC    1  MOL    H292   292   0.0600000    1.0080
  293        HC    1  MOL    H293   293   0.0600000    1.0080
  294        HC    1  MOL    H294   294   0.0600000    1.0080
  295        HC    1  MOL    H295   295   0.0600000    1.0080
  296        HC    1  MOL    H296   296   0.0600000    1.0080
  297        HC    1  MOL    H297   297   0.0600000    1.0080
  298        HC    1  MOL    H298   298   0.0600000    1.0080
  299        HC    1  MOL    H299   299   0.0600000    1.0080
  300        HC    1  MOL    H300   300   0.0600000    1.0080
  301        HC    1  MOL    H301   301   0.0600000    1.0080
  302        CT    1  MOL    C302   302  -0.1200000   12.0115
  303        CT    1  MOL    C303   303   0.1700000   12.0115
  304        OS    1  MOL    O304   304  -0.4000000   15.9994
  305        CT    1  MOL    C305   305   0.1400000   12.0115
  306        CT    1  MOL    C306   306  -0.1200000   12.0115
  307        CT    1  MOL    C307   307  -0.1200000   12.0115
  308        CT    1  MOL    C308   308  -0.1200000   12.0115
  309        CT    1  MOL    C309   309  -0.1200000   12.0115
  310        CT    1  MOL    C310   310  -0.1800000   12.0115
  311        HC    1  MOL    H311   311   0.0600000    1.0080
  312        HC    1  MOL    H312   312   0.0600000    1.0080
  313        HC    1  MOL    H313   313   0.0300000    1.0080
  314        HC    1  MOL    H314   314   0.0300000    1.0080
  315        HC    1  MOL    H315   315   0.0300000    1.0080
  316        HC    1  MOL    H316   316   0.0600000    1.0080
  317        HC    1  MOL    H317   317   0.0600000    1.0080
  318        HC    1  MOL    H318   318   0.0600000    1.0080
  319        HC    1  MOL    H319   319   0.0600000    1.0080
  320        HC    1  MOL    H320   320   0.0600000    1.0080
  321        HC    1  MOL    H321   321   0.0600000    1.0080
  322        HC    1  MOL    H322   322   0.0600000    1.0080
  323        HC    1  MOL    H323   323   0.0600000    1.0080
  324        HC    1  MOL    H324   324   0.0600000    1.0080
  325        HC    1  MOL    H325   325   0.0600000    1.0080
  326        HC    1  MOL    H326   326   0.0600000    1.0080
  327        CT    1  MOL    C327   327  -0.1200000   12.0115
  328        CT    1  MOL    C328   328   0.1700000   12.0115
  329        OS    1  MOL    O329   329  -0.4000000   15.9994
  330        CT    1  MOL    C330   330   0.1400000   12.0115
  331        CT    1  MOL    C331   331  -0.1200000   12.0115
  332        CT    1  MOL    C332   332  -0.1200000   12.0115
  333        CT    1  MOL    C333   333  -0.1200000   12.0115
  334        CT    1  MOL    C334   334  -0.1200000   12.0115
  335        CT    1  MOL    C335   335  -0.1800000   12.0115
  336        HC    1  MOL    H336   336   0.0600000    1.0080
  337        HC    1  MOL    H337   337   0.0600000    1.0080
  338        HC    1  MOL    H338   338   0.0300000    1.0080
  339        HC    1  MOL    H339   339   0.0300000    1.0080
  340        HC    1  MOL    H340   340   0.0300000    1.0080
  341        HC    1  MOL    H341   341   0.0600000    1.0080
  342        HC    1  MOL    H342   342   0.0600000    1.0080
  343        HC    1  MOL    H343   343   0.0600000    1.0080
  344        HC    1  MOL    H344   344   0.0600000    1.0080
  345        HC    1  MOL    H345   345   0.0600000    1.0080
  346        HC    1  MOL    H346   346   0.0600000    1.0080
  347        HC    1  MOL    H347   347   0.0600000    1.0080
  348        HC    1  MOL    H348   348   0.0600000    1.0080
  349        HC    1  MOL    H349   349   0.0600000    1.0080
  350        HC    1  MOL    H350   350   0.0600000    1.0080
  351        HC    1  MOL    H351   351   0.0600000    1.0080
  352        CT    1  MOL    C352   352  -0.1200000   12.0115
  353        CT    1  MOL    C353   353   0.1700000   12.0115
  354        OS    1  MOL    O354   354  -0.4000000   15.9994
  355        CT    1  MOL    C355   355   0.1400000   12.0115
  356        CT    1  MOL    C356   356  -0.1200000   12.0115
  357        CT    1  MOL    C357   357  -0.1200000   12.0115
  358        CT    1  MOL    C358   358  -0.1200000   12.0115
  359        CT    1  MOL    C359   359  -0.1200000   12.0115
  360        CT    1  MOL    C360   360  -0.1800000   12.0115
  361        HC    1  MOL    H361   361   0.0600000    1.0080
  362        HC    1  MOL    H362   362   0.0600000    1.0080
  363        HC    1  MOL    H363   363   0.0300000    1.0080
  364        HC    1  MOL    H364   364   0.0300000    1.0080
  365        HC    1  MOL    H365   365   0.0300000    1.0080
  366        HC    1  MOL    H366   366   0.0600000    1.0080
  367        HC    1  MOL    H367   367   0.0600000    1.0080
  368        HC    1  MOL    H368   368   0.0600000    1.0080
  369        HC    1  MOL    H369   369   0.0600000    1.0080
  370        HC    1  MOL    H370   370   0.0600000    1.0080
  371        HC    1  MOL    H371   371   0.0600000    1.0080
  372        HC    1  MOL    H372   372   0.0600000    1.0080
  373        HC    1  MOL    H373   373   0.0600000    1.0080
  374        HC    1  MOL    H374   374   0.0600000    1.0080
  375        HC    1  MOL    H375   375   0.0600000    1.0080
  376        HC    1  MOL    H376   376   0.0600000    1.0080
  377        CT    1  MOL    C377   377  -0.1200000   12.0115
  378        CT    1  MOL    C378   378   0.1700000   12.0115
  379        OS    1  MOL    O379   379  -0.4000000   15.9994
  380        CT    1  MOL    C380   380   0.1400000   12.0115
  381        CT    1  MOL    C381   381  -0.1200000   12.0115
  382        CT    1  MOL    C382   382  -0.1200000   12.0115
  383        CT    1  MOL    C383   383  -0.1200000   12.0115
  384        CT    1  MOL    C384   384  -0.1200000   12.0115
  385        CT    1  MOL    C385   385  -0.1800000   12.0115
  386        HC    1  MOL    H386   386   0.0600000    1.0080
  387        HC    1  MOL    H387   387   0.0600000    1.0080
  388        HC    1  MOL    H388   388   0.0300000    1.0080
  389        HC    1  MOL    H389   389   0.0300000    1.0080
  390        HC    1  MOL    H390   390   0.0300000    1.0080
  391        HC    1  MOL    H391   391   0.0600000    1.0080
  392        HC    1  MOL    H392   392   0.0600000    1.0080
  393        HC    1  MOL    H393   393   0.0600000    1.0080
  394        HC    1  MOL    H394   394   0.0600000    1.0080
  395        HC    1  MOL    H395   395   0.0600000    1.0080
  396        HC    1  MOL    H396   396   0.0600000    1.0080
  397        HC    1  MOL    H397   397   0.0600000    1.0080
  398        HC    1  MOL    H398   398   0.0600000    1.0080
  399        HC    1  MOL    H399   399   0.0600000    1.0080
  400        HC    1  MOL    H400   400   0.0600000    1.0080
  401        HC    1  MOL    H401   401   0.0600000    1.0080
  402        CT    1  MOL    C402   402  -0.1200000   12.0115
  403        CT    1  MOL    C403   403   0.1700000   12.0115
  404        OS    1  MOL    O404   404  -0.4000000   15.9994
  405        CT    1  MOL    C405   405   0.1400000   12.0115
  406        CT    1  MOL    C406   406  -0.1200000   12.0115
  407        CT    1  MOL    C407   407  -0.1200000   12.0115
  408        CT    1  MOL    C408   408  -0.1200000   12.0115
  409        CT    1  MOL    C409   409  -0.1200000   12.0115
  410        CT    1  MOL    C410   410  -0.1800000   12.0115
  411        HC    1  MOL    H411   411   0.0600000    1.0080
  412        HC    1  MOL    H412   412   0.0600000    1.0080
  413        HC    1  MOL    H413   413   0.0300000    1.0080
  414        HC    1  MOL    H414   414   0.0300000    1.0080
  415        HC    1  MOL    H415   415   0.0300000    1.0080
  416        HC    1  MOL    H416   416   0.0600000    1.0080
  417        HC    1  MOL    H417   417   0.0600000    1.0080
  418        HC    1  MOL    H418   418   0.0600000    1.0080
  419        HC    1  MOL    H419   419   0.0600000    1.0080
  420        HC    1  MOL    H420   420   0.0600000    1.0080
  421        HC    1  MOL    H421   421   0.0600000    1.0080
  422        HC    1  MOL    H422   422   0.0600000    1.0080
  423        HC    1  MOL    H423   423   0.0600000    1.0080
  424        HC    1  MOL    H424   424   0.0600000    1.0080
  425        HC    1  MOL    H425   425   0.0600000    1.0080
  426        HC    1  MOL    H426   426   0.0600000    1.0080
  427        CT    1  MOL    C427   427  -0.1200000   12.0115
  428        CT    1  MOL    C428   428   0.1700000   12.0115
  429        OS    1  MOL    O429   429  -0.4000000   15.9994
  430        CT    1  MOL    C430   430   0.1400000   12.0115
  431        CT    1  MOL    C431   431  -0.1200000   12.0115
  432        CT    1  MOL    C432   432  -0.1200000   12.0115
  433        CT    1  MOL    C433   433  -0.1200000   12.0115
  434        CT    1  MOL    C434   434  -0.1200000   12.0115
  435        CT    1  MOL    C435   435  -0.1800000   12.0115
  436        HC    1  MOL    H436   436   0.0600000    1.0080
  437        HC    1  MOL    H437   437   0.0600000    1.0080
  438        HC    1  MOL    H438   438   0.0300000    1.0080
  439        HC    1  MOL    H439   439   0.0300000    1.0080
  440        HC    1  MOL    H440   440   0.0300000    1.0080
  441        HC    1  MOL    H441   441   0.0600000    1.0080
  442        HC    1  MOL    H442   442   0.0600000    1.0080
  443        HC    1  MOL    H443   443   0.0600000    1.0080
  444        HC    1  MOL    H444   444   0.0600000    1.0080
  445        HC    1  MOL    H445   445   0.0600000    1.0080
  446        HC    1  MOL    H446   446   0.0600000    1.0080
  447        HC    1  MOL    H447   447   0.0600000    1.0080
  448        HC    1  MOL    H448   448   0.0600000    1.0080
  449        HC    1  MOL    H449   449   0.0600000    1.0080
  450        HC    1  MOL    H450   450   0.0600000    1.0080
  451        HC    1  MOL    H451   451   0.0600000    1.0080
  452        CT    1  MOL    C452   452  -0.1200000   12.0115
  453        CT    1  MOL    C453   453   0.1700000   12.0115
  454        OS    1  MOL    O454   454  -0.4000000   15.9994
  455        CT    1  MOL    C455   455   0.1400000   12.0115
  456        CT    1  MOL    C456   456  -0.1200000   12.0115
  457        CT    1  MOL    C457   457  -0.1200000   12.0115
  458        CT    1  MOL    C458   458  -0.1200000   12.0115
  459        CT    1  MOL    C459   459  -0.1200000   12.0115
  460        CT    1  MOL    C460   460  -0.1800000   12.0115
  461        HC    1  MOL    H461   461   0.0600000    1.0080
  462        HC    1  MOL    H462   462   0.0600000    1.0080
  463        HC    1  MOL    H463   463   0.0300000    1.0080
  464        HC    1  MOL    H464   464   0.0300000    1.0080
  465        HC    1  MOL    H465   465   0.0300000    1.0080
  466        HC    1  MOL    H466   466   0.0600000    1.0080
  467        HC    1  MOL    H467   467   0.0600000    1.0080
  468        HC    1  MOL    H468   468   0.0600000    1.0080
  469        HC    1  MOL    H469   469   0.0600000    1.0080
  470        HC    1  MOL    H470   470   0.0600000    1.0080
  471        HC    1  MOL    H471   471   0.0600000    1.0080
  472        HC    1  MOL    H472   472   0.0600000    1.0080
  473        HC    1  MOL    H473   473   0.0600000    1.0080
  474        HC    1  MOL    H474   474   0.0600000    1.0080
  475        HC    1  MOL    H475   475   0.0600000    1.0080
  476        HC    1  MOL    H476   476   0.0600000    1.0080
  477        CT    1  MOL    C477   477  -0.1200000   12.0115
  478        CT    1  MOL    C478   478   0.1400000   12.0115
  479        OS    1  MOL    O479   479  -0.4000000   15.9994
  480        CT    1  MOL    C480   480   0.1400000   12.0115
  481        CT    1  MOL    C481   481  -0.1200000   12.0115
  482        CT    1  MOL    C482   482  -0.1200000   12.0115
  483        CT    1  MOL    C483   483  -0.1200000   12.0115
  484        CT    1  MOL    C484   484  -0.1200000   12.0115
  485        CT    1  MOL    C485   485  -0.1800000   12.0115
  486        HC    1  MOL    H486   486   0.0600000    1.0080
  487        HC    1  MOL    H487   487   0.0600000    1.0080
  488        HC    1  MOL    H488   488   0.0300000    1.0080
  489        HC    1  MOL    H489   489   0.0300000    1.0080
  490        HC    1  MOL    H490   490   0.0300000    1.0080
  491        HC    1  MOL    H491   491   0.0600000    1.0080
  492        HC    1  MOL    H492   492   0.0600000    1.0080
  493        HC    1  MOL    H493   493   0.0600000    1.0080
  494        HC    1  MOL    H494   494   0.0600000    1.0080
  495        HC    1  MOL    H495   495   0.0600000    1.0080
  496        HC    1  MOL    H496   496   0.0600000    1.0080
  497        HC    1  MOL    H497   497   0.0600000    1.0080
  498        HC    1  MOL    H498   498   0.0600000    1.0080
  499        HC    1  MOL    H499   499   0.0600000    1.0080
  500        HC    1  MOL    H500   500   0.0600000    1.0080
  501        HC    1  MOL    H501   501   0.0600000    1.0080
  502        HC    1  MOL    H502   502   0.0300000    1.0080

[ bonds ]
      1      2   1      0.1529 224262.4000
      1     10   1      0.1090 284512.0000
      1     11   1      0.1090 284512.0000
      1     26   1      0.1090 284512.0000
      2      3   1      0.1410 267776.0000
      2     12   1      0.1090 284512.0000
      2     27   1      0.1529 224262.4000
      3      4   1      0.1410 267776.0000
      4      5   1      0.1529 224262.4000
      4     13   1      0.1090 284512.0000
      4     14   1      0.1090 284512.0000
      5      6   1      0.1529 224262.4000
      5     15   1      0.1090 284512.0000
      5     16   1      0.1090 284512.0000
      6      7   1      0.1529 224262.4000
      6     17   1      0.1090 284512.0000
      6     18   1      0.1090 284512.0000
      7      8   1      0.1529 224262.4000
      7     19   1      0.1090 284512.0000
      7     20   1      0.1090 284512.0000
      8      9   1      0.1529 224262.4000
      8     21   1      0.1090 284512.0000
      8     22   1      0.1090 284512.0000
      9     23   1      0.1090 284512.0000
      9     24   1      0.1090 284512.0000
      9     25   1      0.1090 284512.0000
     27     28   1      0.1529 224262.4000
     27     36   1      0.1090 284512.0000
     27     37   1      0.1090 284512.0000
     28     29   1      0.1410 267776.0000
     28     38   1      0.1090 284512.0000
     28     52   1      0.1529 224262.4000
     29     30   1      0.1410 267776.0000
     30     31   1      0.1529 224262.4000
     30     39   1      0.1090 284512.0000
     30     40   1      0.1090 284512.0000
     31     32   1      0.1529 224262.4000
     31     41   1      0.1090 284512.0000
     31     42   1      0.1090 284512.0000
     32     33   1      0.1529 224262.4000
     32     43   1      0.1090 284512.0000
     32     44   1      0.1090 284512.0000
     33     34   1      0.1529 224262.4000
     33     45   1      0.1090 284512.0000
     33     46   1      0.1090 284512.0000
     34     35   1      0.1529 224262.4000
     34     47   1      0.1090 284512.0000
     34     48   1      0.1090 284512.0000
     35     49   1      0.1090 284512.0000
     35     50   1      0.1090 284512.0000
     35     51   1      0.1090 284512.0000
     52     53   1      0.1529 224262.4000
     52     61   1      0.1090 284512.0000
     52     62   1      0.1090 284512.0000
     53     54   1      0.1410 267776.0000
     53     63   1      0.1090 284512.0000
     53     77   1      0.1529 224262.4000
     54     55   1      0.1410 267776.0000
     55     56   1      0.1529 224262.4000
     55     64   1      0.1090 284512.0000
     55     65   1      0.1090 284512.0000
     56     57   1      0.1529 224262.4000
     56     66   1      0.1090 284512.0000
     56     67   1      0.1090 284512.0000
     57     58   1      0.1529 224262.4000
     57     68   1      0.1090 284512.0000
     57     69   1      0.1090 284512.0000
     58     59   1      0.1529 224262.4000
     58     70   1      0.1090 284512.0000
     58     71   1      0.1090 284512.0000
     59     60   1      0.1529 224262.4000
     59     72   1      0.1090 284512.0000
     59     73   1      0.1090 284512.0000
     60     74   1      0.1090 284512.0000
     60     75   1      0.1090 284512.0000
     60     76   1      0.1090 284512.0000
     77     78   1      0.1529 224262.4000
     77     86   1      0.1090 284512.0000
     77     87   1      0.1090 284512.0000
     78     79   1      0.1410 267776.0000
     78     88   1      0.1090 284512.0000
     78    102   1      0.1529 224262.4000
     79     80   1      0.1410 267776.0000
     80     81   1      0.1529 224262.4000
     80     89   1      0.1090 284512.0000
     80     90   1      0.1090 284512.0000
     81     82   1      0.1529 224262.4000
     81     91   1      0.1090 284512.0000
     81     92   1      0.1090 284512.0000
     82     83   1      0.1529 224262.4000
     82     93   1      0.1090 284512.0000
     82     94   1      0.1090 284512.0000
     83     84   1      0.1529 224262.4000
     83     95   1      0.1090 284512.0000
     83     96   1      0.1090 284512.0000
     84     85   1      0.1529 224262.4000
     84     97   1      0.1090 284512.0000
     84     98   1      0.1090 284512.0000
     85     99   1      0.1090 284512.0000
     85    100   1      0.1090 284512.0000
     85    101   1      0.1090 284512.0000
    102    103   1      0.1529 224262.4000
    102    111   1      0.1090 284512.0000
    102    112   1      0.1090 284512.0000
    103    104   1      0.1410 267776.0000
    103    113   1      0.1090 284512.0000
    103    127   1      0.1529 224262.4000
    104    105   1      0.1410 267776.0000
    105    106   1      0.1529 224262.4000
    105    114   1      0.1090 284512.0000
    105    115   1      0.1090 284512.0000
    106    107   1      0.1529 224262.4000
    106    116   1      0.1090 284512.0000
    106    117   1      0.1090 284512.0000
    107    108   1      0.1529 224262.4000
    107    118   1      0.1090 284512.0000
    107    119   1      0.1090 284512.0000
    108    109   1      0.1529 224262.4000
    108    120   1      0.1090 284512.0000
    108    121   1      0.1090 284512.0000
    109    110   1      0.1529 224262.4000
    109    122   1      0.1090 284512.0000
    109    123   1      0.1090 284512.0000
    110    124   1      0.1090 284512.0000
    110    125   1      0.1090 284512.0000
    110    126   1      0.1090 284512.0000
    127    128   1      0.1529 224262.4000
    127    136   1      0.1090 284512.0000
    127    137   1      0.1090 284512.0000
    128    129   1      0.1410 267776.0000
    128    138   1      0.1090 284512.0000
    128    152   1      0.1529 224262.4000
    129    130   1      0.1410 267776.0000
    130    131   1      0.1529 224262.4000
    130    139   1      0.1090 284512.0000
    130    140   1      0.1090 284512.0000
    131    132   1      0.1529 224262.4000
    131    141   1      0.1090 284512.0000
    131    142   1      0.1090 284512.0000
    132    133   1      0.1529 224262.4000
    132    143   1      0.1090 284512.0000
    132    144   1      0.1090 284512.0000
    133    134   1      0.1529 224262.4000
    133    145   1      0.1090 284512.0000
    133    146   1      0.1090 284512.0000
    134    135   1      0.1529 224262.4000
    134    147   1      0.1090 284512.0000
    134    148   1      0.1090 284512.0000
    135    149   1      0.1090 284512.0000
    135    150   1      0.1090 284512.0000
    135    151   1      0.1090 284512.0000
    152    153   1      0.1529 224262.4000
    152    161   1      0.1090 284512.0000
    152    162   1      0.1090 284512.0000
    153    154   1      0.1410 267776.0000
    153    163   1      0.1090 284512.0000
    153    177   1      0.1529 224262.4000
    154    155   1      0.1410 267776.0000
    155    156   1      0.1529 224262.4000
    155    164   1      0.1090 284512.0000
    155    165   1      0.1090 284512.0000
    156    157   1      0.1529 224262.4000
    156    166   1      0.1090 284512.0000
    156    167   1      0.1090 284512.0000
    157    158   1      0.1529 224262.4000
    157    168   1      0.1090 284512.0000
    157    169   1      0.1090 284512.0000
    158    159   1      0.1529 224262.4000
    158    170   1      0.1090 284512.0000
    158    171   1      0.1090 284512.0000
    159    160   1      0.1529 224262.4000
    159    172   1      0.1090 284512.0000
    159    173   1      0.1090 284512.0000
    160    174   1      0.1090 284512.0000
    160    175   1      0.1090 284512.0000
    160    176   1      0.1090 284512.0000
    177    178   1      0.1529 224262.4000
    177    186   1      0.1090 284512.0000
    177    187   1      0.1090 284512.0000
    178    179   1      0.1410 267776.0000
    178    188   1      0.1090 284512.0000
    178    202   1      0.1529 224262.4000
    179    180   1      0.1410 267776.0000
    180    181   1      0.1529 224262.4000
    180    189   1      0.1090 284512.0000
    180    190   1      0.1090 284512.0000
    181    182   1      0.1529 224262.4000
    181    191   1      0.1090 284512.0000
    181    192   1      0.1090 284512.0000
    182    183   1      0.1529 224262.4000
    182    193   1      0.1090 284512.0000
    182    194   1      0.1090 284512.0000
    183    184   1      0.1529 224262.4000
    183    195   1      0.1090 284512.0000
    183    196   1      0.1090 284512.0000
    184    185   1      0.1529 224262.4000
    184    197   1      0.1090 284512.0000
    184    198   1      0.1090 284512.0000
    185    199   1      0.1090 284512.0000
    185    200   1      0.1090 284512.0000
    185    201   1      0.1090 284512.0000
    202    203   1      0.1529 224262.4000
    202    211   1      0.1090 284512.0000
    202    212   1      0.1090 284512.0000
    203    204   1      0.1410 267776.0000
    203    213   1      0.1090 284512.0000
    203    227   1      0.1529 224262.4000
    204    205   1      0.1410 267776.0000
    205    206   1      0.1529 224262.4000
    205    214   1      0.1090 284512.0000
    205    215   1      0.1090 284512.0000
    206    207   1      0.1529 224262.4000
    206    216   1      0.1090 284512.0000
    206    217   1      0.1090 284512.0000
    207    208   1      0.1529 224262.4000
    207    218   1      0.1090 284512.0000
    207    219   1      0.1090 284512.0000
    208    209   1      0.1529 224262.4000
    208    220   1      0.1090 284512.0000
    208    221   1      0.1090 284512.0000
    209    210   1      0.1529 224262.4000
    209    222   1      0.1090 284512.0000
    209    223   1      0.1090 284512.0000
    210    224   1      0.1090 284512.0000
    210    225   1      0.1090 284512.0000
    210    226   1      0.1090 284512.0000
    227    228   1      0.1529 224262.4000
    227    236   1      0.1090 284512.0000
    227    237   1      0.1090 284512.0000
    228    229   1      0.1410 267776.0000
    228    238   1      0.1090 284512.0000
    228    252   1      0.1529 224262.4000
    229    230   1      0.1410 267776.0000
    230    231   1      0.1529 224262.4000
    230    239   1      0.1090 284512.0000
    230    240   1      0.1090 284512.0000
    231    232   1      0.1529 224262.4000
    231    241   1      0.1090 284512.0000
    231    242   1      0.1090 284512.0000
    232    233   1      0.1529 224262.4000
    232    243   1      0.1090 284512.0000
    232    244   1      0.1090 284512.0000
    233    234   1      0.1529 224262.4000
    233    245   1      0.1090 284512.0000
    233    246   1      0.1090 284512.0000
    234    235   1      0.1529 224262.4000
    234    247   1      0.1090 284512.0000
    234    248   1      0.1090 284512.0000
    235    249   1      0.1090 284512.0000
    235    250   1      0.1090 284512.0000
    235    251   1      0.1090 284512.0000
    252    253   1      0.1529 224262.4000
    252    261   1      0.1090 284512.0000
    252    262   1      0.1090 284512.0000
    253    254   1      0.1410 267776.0000
    253    263   1      0.1090 284512.0000
    253    277   1      0.1529 224262.4000
    254    255   1      0.1410 267776.0000
    255    256   1      0.1529 224262.4000
    255    264   1      0.1090 284512.0000
    255    265   1      0.1090 284512.0000
    256    257   1      0.1529 224262.4000
    256    266   1      0.1090 284512.0000
    256    267   1      0.1090 284512.0000
    257    258   1      0.1529 224262.4000
    257    268   1      0.1090 284512.0000
    257    269   1      0.1090 284512.0000
    258    259   1      0.1529 224262.4000
    258    270   1      0.1090 284512.0000
    258    271   1      0.1090 284512.0000
    259    260   1      0.1529 224262.4000
    259    272   1      0.1090 284512.0000
    259    273   1      0.1090 284512.0000
    260    274   1      0.1090 284512.0000
    260    275   1      0.1090 284512.0000
    260    276   1      0.1090 284512.0000
    277    278   1      0.1529 224262.4000
    277    286   1      0.1090 284512.0000
    277    287   1      0.1090 284512.0000
    278    279   1      0.1410 267776.0000
    278    288   1      0.1090 284512.0000
    278    302   1      0.1529 224262.4000
    279    280   1      0.1410 267776.0000
    280    281   1      0.1529 224262.4000
    280    289   1      0.1090 284512.0000
    280    290   1      0.1090 284512.0000
    281    282   1      0.1529 224262.4000
    281    291   1      0.1090 284512.0000
    281    292   1      0.1090 284512.0000
    282    283   1      0.1529 224262.4000
    282    293   1      0.1090 284512.0000
    282    294   1      0.1090 284512.0000
    283    284   1      0.1529 224262.4000
    283    295   1      0.1090 284512.0000
    283    296   1      0.1090 284512.0000
    284    285   1      0.1529 224262.4000
    284    297   1      0.1090 284512.0000
    284    298   1      0.1090 284512.0000
    285    299   1      0.1090 284512.0000
    285    300   1      0.1090 284512.0000
    285    301   1      0.1090 284512.0000
    302    303   1      0.1529 224262.4000
    302    311   1      0.1090 284512.0000
    302    312   1      0.1090 284512.0000
    303    304   1      0.1410 267776.0000
    303    313   1      0.1090 284512.0000
    303    327   1      0.1529 224262.4000
    304    305   1      0.1410 267776.0000
    305    306   1      0.1529 224262.4000
    305    314   1      0.1090 284512.0000
    305    315   1      0.1090 284512.0000
    306    307   1      0.1529 224262.4000
    306    316   1      0.1090 284512.0000
    306    317   1      0.1090 284512.0000
    307    308   1      0.1529 224262.4000
    307    318   1      0.1090 284512.0000
    307    319   1      0.1090 284512.0000
    308    309   1      0.1529 224262.4000
    308    320   1      0.1090 284512.0000
    308    321   1      0.1090 284512.0000
    309    310   1      0.1529 224262.4000
    309    322   1      0.1090 284512.0000
    309    323   1      0.1090 284512.0000
    310    324   1      0.1090 284512.0000
    310    325   1      0.1090 284512.0000
    310    326   1      0.1090 284512.0000
    327    328   1      0.1529 224262.4000
    327    336   1      0.1090 284512.0000
    327    337   1      0.1090 284512.0000
    328    329   1      0.1410 267776.0000
    328    338   1      0.1090 284512.0000
    328    352   1      0.1529 224262.4000
    329    330   1      0.1410 267776.0000
    330    331   1      0.1529 224262.4000
    330    339   1      0.1090 284512.0000
    330    340   1      0.1090 284512.0000
    331    332   1      0.1529 224262.4000
    331    341   1      0.1090 284512.0000
    331    342   1      0.1090 284512.0000
    332    333   1      0.1529 224262.4000
    332    343   1      0.1090 284512.0000
    332    344   1      0.1090 284512.0000
    333    334   1      0.1529 224262.4000
    333    345   1      0.1090 284512.0000
    333    346   1      0.1090 284512.0000
    334    335   1      0.1529 224262.4000
    334    347   1      0.1090 284512.0000
    334    348   1      0.1090 284512.0000
    335    349   1      0.1090 284512.0000
    335    350   1      0.1090 284512.0000
    335    351   1      0.1090 284512.0000
    352    353   1      0.1529 224262.4000
    352    361   1      0.1090 284512.0000
    352    362   1      0.1090 284512.0000
    353    354   1      0.1410 267776.0000
    353    363   1      0.1090 284512.0000
    353    377   1      0.1529 224262.4000
    354    355   1      0.1410 267776.0000
    355    356   1      0.1529 224262.4000
    355    364   1      0.1090 284512.0000
    355    365   1      0.1090 284512.0000
    356    357   1      0.1529 224262.4000
    356    366   1      0.1090 284512.0000
    356    367   1      0.1090 284512.0000
    357    358   1      0.1529 224262.4000
    357    368   1      0.1090 284512.0000
    357    369   1      0.1090 284512.0000
    358    359   1      0.1529 224262.4000
    358    370   1      0.1090 284512.0000
    358    371   1      0.1090 284512.0000
    359    360   1      0.1529 224262.4000
    359    372   1      0.1090 284512.0000
    359    373   1      0.1090 284512.0000
    360    374   1      0.1090 284512.0000
    360    375   1      0.1090 284512.0000
    360    376   1      0.1090 284512.0000
    377    378   1      0.1529 224262.4000
    377    386   1      0.1090 284512.0000
    377    387   1      0.1090 284512.0000
    378    379   1      0.1410 267776.0000
    378    388   1      0.1090 284512.0000
    378    402   1      0.1529 224262.4000
    379    380   1      0.1410 267776.0000
    380    381   1      0.1529 224262.4000
    380    389   1      0.1090 284512.0000
    380    390   1      0.1090 284512.0000
    381    382   1      0.1529 224262.4000
    381    391   1      0.1090 284512.0000
    381    392   1      0.1090 284512.0000
    382    383   1      0.1529 224262.4000
    382    393   1      0.1090 284512.0000
    382    394   1      0.1090 284512.0000
    383    384   1      0.1529 224262.4000
    383    395   1      0.1090 284512.0000
    383    396   1      0.1090 284512.0000
    384    385   1      0.1529 224262.4000
    384    397   1      0.1090 284512.0000
    384    398   1      0.1090 284512.0000
    385    399   1      0.1090 284512.0000
    385    400   1      0.1090 284512.0000
    385    401   1      0.1090 284512.0000
    402    403   1      0.1529 224262.4000
    402    411   1      0.1090 284512.0000
    402    412   1      0.1090 284512.0000
    403    404   1      0.1410 267776.0000
    403    413   1      0.1090 284512.0000
    403    427   1      0.1529 224262.4000
    404    405   1      0.1410 267776.0000
    405    406   1      0.1529 224262.4000
    405    414   1      0.1090 284512.0000
    405    415   1      0.1090 284512.0000
    406    407   1      0.1529 224262.4000
    406    416   1      0.1090 284512.0000
    406    417   1      0.1090 284512.0000
    407    408   1      0.1529 224262.4000
    407    418   1      0.1090 284512.0000
    407    419   1      0.1090 284512.0000
    408    409   1      0.1529 224262.4000
    408    420   1      0.1090 284512.0000
    408    421   1      0.1090 284512.0000
    409    410   1      0.1529 224262.4000
    409    422   1      0.1090 284512.0000
    409    423   1      0.1090 284512.0000
    410    424   1      0.1090 284512.0000
    410    425   1      0.1090 284512.0000
    410    426   1      0.1090 284512.0000
    427    428   1      0.1529 224262.4000
    427    436   1      0.1090 284512.0000
    427    437   1      0.1090 284512.0000
    428    429   1      0.1410 267776.0000
    428    438   1      0.1090 284512.0000
    428    452   1      0.1529 224262.4000
    429    430   1      0.1410 267776.0000
    430    431   1      0.1529 224262.4000
    430    439   1      0.1090 284512.0000
    430    440   1      0.1090 284512.0000
    431    432   1      0.1529 224262.4000
    431    441   1      0.1090 284512.0000
    431    442   1      0.1090 284512.0000
    432    433   1      0.1529 224262.4000
    432    443   1      0.1090 284512.0000
    432    444   1      0.1090 284512.0000
    433    434   1      0.1529 224262.4000
    433    445   1      0.1090 284512.0000
    433    446   1      0.1090 284512.0000
    434    435   1      0.1529 224262.4000
    434    447   1      0.1090 284512.0000
    434    448   1      0.1090 284512.0000
    435    449   1      0.1090 284512.0000
    435    450   1      0.1090 284512.0000
    435    451   1      0.1090 284512.0000
    452    453   1      0.1529 224262.4000
    452    461   1      0.1090 284512.0000
    452    462   1      0.1090 284512.0000
    453    454   1      0.1410 267776.0000
    453    463   1      0.1090 284512.0000
    453    477   1      0.1529 224262.4000
    454    455   1      0.1410 267776.0000
    455    456   1      0.1529 224262.4000
    455    464   1      0.1090 284512.0000
    455    465   1      0.1090 284512.0000
    456    457   1      0.1529 224262.4000
    456    466   1      0.1090 284512.0000
    456    467   1      0.1090 284512.0000
    457    458   1      0.1529 224262.4000
    457    468   1      0.1090 284512.0000
    457    469   1      0.1090 284512.0000
    458    459   1      0.1529 224262.4000
    458    470   1      0.1090 284512.0000
    458    471   1      0.1090 284512.0000
    459    460   1      0.1529 224262.4000
    459    472   1      0.1090 284512.0000
    459    473   1      0.1090 284512.0000
    460    474   1      0.1090 284512.0000
    460    475   1      0.1090 284512.0000
    460    476   1      0.1090 284512.0000
    477    478   1      0.1529 224262.4000
    477    486   1      0.1090 284512.0000
    477    487   1      0.1090 284512.0000
    478    479   1      0.1410 267776.0000
    478    488   1      0.1090 284512.0000
    478    502   1      0.1090 284512.0000
    479    480   1      0.1410 267776.0000
    480    481   1      0.1529 224262.4000
    480    489   1      0.1090 284512.0000
    480    490   1      0.1090 284512.0000
    481    482   1      0.1529 224262.4000
    481    491   1      0.1090 284512.0000
    481    492   1      0.1090 284512.0000
    482    483   1      0.1529 224262.4000
    482    493   1      0.1090 284512.0000
    482    494   1      0.1090 284512.0000
    483    484   1      0.1529 224262.4000
    483    495   1      0.1090 284512.0000
    483    496   1      0.1090 284512.0000
    484    485   1      0.1529 224262.4000
    484    497   1      0.1090 284512.0000
    484    498   1      0.1090 284512.0000
    485    499   1      0.1090 284512.0000
    485    500   1      0.1090 284512.0000
    485    501   1      0.1090 284512.0000

[ pairs ]
; ai   aj   funct   fudge_QQ  charge_i   charge_j   c6    c12
     10      3   2   0.50000     0.0600000   -0.4000000   2.066619e-04  7.875431e-08
     10     12   2   0.50000     0.0600000    0.0300000   6.128906e-05  1.496315e-08
     10     27   2   0.50000     0.0600000   -0.1200000   2.494471e-04  1.671101e-07
     11      3   2   0.50000     0.0600000   -0.4000000   2.066619e-04  7.875431e-08
     11     12   2   0.50000     0.0600000    0.0300000   6.128906e-05  1.496315e-08
     11     27   2   0.50000     0.0600000   -0.1200000   2.494471e-04  1.671101e-07
     26      3   2   0.50000     0.0600000   -0.4000000   2.066619e-04  7.875431e-08
     26     12   2   0.50000     0.0600000    0.0300000   6.128906e-05  1.496315e-08
     26     27   2   0.50000     0.0600000   -0.1200000   2.494471e-04  1.671101e-07
      1      4   2   0.50000    -0.1800000    0.1400000   1.015252e-03  1.866303e-06
     12      4   2   0.50000     0.0300000    0.1400000   2.494471e-04  1.671101e-07
     27      4   2   0.50000    -0.1200000    0.1400000   1.015252e-03  1.866303e-06
      1     28   2   0.50000    -0.1800000    0.1700000   1.015252e-03  1.866303e-06
      1     36   2   0.50000    -0.1800000    0.0600000   2.494471e-04  1.671101e-07
      1     37   2   0.50000    -0.1800000    0.0600000   2.494471e-04  1.671101e-07
      3     28   2   0.50000    -0.4000000    0.1700000   8.411158e-04  8.795366e-07
      3     36   2   0.50000    -0.4000000    0.0600000   2.066619e-04  7.875431e-08
      3     37   2   0.50000    -0.4000000    0.0600000   2.066619e-04  7.875431e-08
     12     28   2   0.50000     0.0300000    0.1700000   2.494471e-04  1.671101e-07
     12     36   2   0.50000     0.0300000    0.0600000   6.128906e-05  1.496315e-08
     12     37   2   0.50000     0.0300000    0.0600000   6.128906e-05  1.496315e-08
      2      5   2   0.50000     0.1700000   -0.1200000   1.015252e-03  1.866303e-06
      2     13   2   0.50000     0.1700000    0.0300000   2.494471e-04  1.671101e-07
      2     14   2   0.50000     0.1700000    0.0300000   2.494471e-04  1.671101e-07
      3      6   2   0.50000    -0.4000000   -0.1200000   8.411158e-04  8.795366e-07
      3     15   2   0.50000    -0.4000000    0.0600000   2.066619e-04  7.875431e-08
      3     16   2   0.50000    -0.4000000    0.0600000   2.066619e-04  7.875431e-08
     13      6   2   0.50000     0.0300000   -0.1200000   2.494471e-04  1.671101e-07
     13     15   2   0.50000     0.0300000    0.0600000   6.128906e-05  1.496315e-08
     13     16   2   0.50000     0.0300000    0.0600000   6.128906e-05  1.496315e-08
     14      6   2   0.50000     0.0300000   -0.1200000   2.494471e-04  1.671101e-07
     14     15   2   0.50000     0.0300000    0.0600000   6.128906e-05  1.496315e-08
     14     16   2   0.50000     0.0300000    0.0600000   6.128906e-05  1.496315e-08
      4      7   2   0.50000     0.1400000   -0.1200000   1.015252e-03  1.866303e-06
      4     17   2   0.50000     0.1400000    0.0600000   2.494471e-04  1.671101e-07
      4     18   2   0.50000     0.1400000    0.0600000   2.494471e-04  1.671101e-07
     15      7   2   0.50000     0.0600000   -0.1200000   2.494471e-04  1.671101e-07
     15     17   2   0.50000     0.0600000    0.0600000   6.128906e-05  1.496315e-08
     15     18   2   0.50000     0.0600000    0.0600000   6.128906e-05  1.496315e-08
     16      7   2   0.50000     0.0600000   -0.1200000   2.494471e-04  1.671101e-07
     16     17   2   0.50000     0.0600000    0.0600000   6.128906e-05  1.496315e-08
     16     18   2   0.50000     0.0600000    0.0600000   6.128906e-05  1.496315e-08
      5      8   2   0.50000    -0.1200000   -0.1200000   1.015252e-03  1.866303e-06
      5     19   2   0.50000    -0.1200000    0.0600000   2.494471e-04  1.671101e-07
      5     20   2   0.50000    -0.1200000    0.0600000   2.494471e-04  1.671101e-07
     17      8   2   0.50000     0.0600000   -0.1200000   2.494471e-04  1.671101e-07
     17     19   2   0.50000     0.0600000    0.0600000   6.128906e-05  1.496315e-08
     17     20   2   0.50000     0.0600000    0.0600000   6.128906e-05  1.496315e-08
     18      8   2   0.50000     0.0600000   -0.1200000   2.494471e-04  1.671101e-07
     18     19   2   0.50000     0.0600000    0.0600000   6.128906e-05  1.496315e-08
     18     20   2   0.50000     0.0600000    0.0600000   6.128906e-05  1.496315e-08
      6      9   2   0.50000    -0.1200000   -0.1800000   1.015252e-03  1.866303e-06
      6     21   2   0.50000    -0.1200000    0.0600000   2.494471e-04  1.671101e-07
      6     22   2   0.50000    -0.1200000    0.0600000   2.494471e-04  1.671101e-07
     19      9   2   0.50000     0.0600000   -0.1800000   2.494471e-04  1.671101e-07
     19     21   2   0.50000     0.0600000    0.0600000   6.128906e-05  1.496315e-08
     19     22   2   0.50000     0.0600000    0.0600000   6.128906e-05  1.496315e-08
     20      9   2   0.50000     0.0600000   -0.1800000   2.494471e-04  1.671101e-07
     20     21   2   0.50000     0.0600000    0.0600000   6.128906e-05  1.496315e-08
     20     22   2   0.50000     0.0600000    0.0600000   6.128906e-05  1.496315e-08
      7     23   2   0.50000    -0.1200000    0.0600000   2.494471e-04  1.671101e-07
      7     24   2   0.50000    -0.1200000    0.0600000   2.494471e-04  1.671101e-07
      7     25   2   0.50000    -0.1200000    0.0600000   2.494471e-04  1.671101e-07
     21     23   2   0.50000     0.0600000    0.0600000   6.128906e-05  1.496315e-08
     21     24   2   0.50000     0.0600000    0.0600000   6.128906e-05  1.496315e-08
     21     25   2   0.50000     0.0600000    0.0600000   6.128906e-05  1.496315e-08
     22     23   2   0.50000     0.0600000    0.0600000   6.128906e-05  1.496315e-08
     22     24   2   0.50000     0.0600000    0.0600000   6.128906e-05  1.496315e-08
     22     25   2   0.50000     0.0600000    0.0600000   6.128906e-05  1.496315e-08
      2     29   2   0.50000     0.1700000   -0.4000000   8.411158e-04  8.795366e-07
      2     38   2   0.50000     0.1700000    0.0300000   2.494471e-04  1.671101e-07
      2     52   2   0.50000     0.1700000   -0.1200000   1.015252e-03  1.866303e-06
     36     29   2   0.50000     0.0600000   -0.4000000   2.066619e-04  7.875431e-08
     36     38   2   0.50000     0.0600000    0.0300000   6.128906e-05  1.496315e-08
     36     52   2   0.50000     0.0600000   -0.1200000   2.494471e-04  1.671101e-07
     37     29   2   0.50000     0.0600000   -0.4000000   2.066619e-04  7.875431e-08
     37     38   2   0.50000     0.0600000    0.0300000   6.128906e-05  1.496315e-08
     37     52   2   0.50000     0.0600000   -0.1200000   2.494471e-04  1.671101e-07
     27     30   2   0.50000    -0.1200000    0.1400000   1.015252e-03  1.866303e-06
     38     30   2   0.50000     0.0300000    0.1400000   2.494471e-04  1.671101e-07
     52     30   2   0.50000    -0.1200000    0.1400000   1.015252e-03  1.866303e-06
     27     53   2   0.50000    -0.1200000    0.1700000   1.015252e-03  1.866303e-06
     27     61   2   0.50000    -0.1200000    0.0600000   2.494471e-04  1.671101e-07
     27     62   2   0.50000    -0.1200000    0.0600000   2.494471e-04  1.671101e-07
     29     53   2   0.50000    -0.4000000    0.1700000   8.411158e-04  8.795366e-07
     29     61   2   0.50000    -0.4000000    0.0600000   2.066619e-04  7.875431e-08
     29     62   2   0.50000    -0.4000000    0.0600000   2.066619e-04  7.875431e-08
     38     53   2   0.50000     0.0300000    0.1700000   2.494471e-04  1.671101e-07
     38     61   2   0.50000     0.0300000    0.0600000   6.128906e-05  1.496315e-08
     38     62   2   0.50000     0.0300000    0.0600000   6.128906e-05  1.496315e-08
     28     31   2   0.50000     0.1700000   -0.1200000   1.015252e-03  1.866303e-06
     28     39   2   0.50000     0.1700000    0.0300000   2.494471e-04  1.671101e-07
     28     40   2   0.50000     0.1700000    0.0300000   2.494471e-04  1.671101e-07
     29     32   2   0.50000    -0.4000000   -0.1200000   8.411158e-04  8.795366e-07
     29     41   2   0.50000    -0.4000000    0.0600000   2.066619e-04  7.875431e-08
     29     42   2   0.50000    -0.4000000    0.0600000   2.066619e-04  7.875431e-08
     39     32   2   0.50000     0.0300000   -0.1200000   2.494471e-04  1.671101e-07
     39     41   2   0.50000     0.0300000    0.0600000   6.128906e-05  1.496315e-08
     39     42   2   0.50000     0.0300000    0.0600000   6.128906e-05  1.496315e-08
     40     32   2   0.50000     0.0300000   -0.1200000   2.494471e-04  1.671101e-07
     40     41   2   0.50000     0.0300000    0.0600000   6.128906e-05  1.496315e-08
     40     42   2   0.50000     0.0300000    0.0600000   6.128906e-05  1.496315e-08
     30     33   2   0.50000     0.1400000   -0.1200000   1.015252e-03  1.866303e-06
     30     43   2   0.50000     0.1400000    0.0600000   2.494471e-04  1.671101e-07
     30     44   2   0.50000     0.1400000    0.0600000   2.494471e-04  1.671101e-07
     41     33   2   0.50000     0.0600000   -0.1200000   2.494471e-04  1.671101e-07
     41     43   2   0.50000     0.0600000    0.0600000   6.128906e-05  1.496315e-08
     41     44   2   0.50000     0.0600000    0.0600000   6.128906e-05  1.496315e-08
     42     33   2   0.50000     0.0600000   -0.1200000   2.494471e-04  1.671101e-07
     42     43   2   0.50000     0.0600000    0.0600000   6.128906e-05  1.496315e-08
     42     44   2   0.50000     0.0600000    0.0600000   6.128906e-05  1.496315e-08
     31     34   2   0.50000    -0.1200000   -0.1200000   1.015252e-03  1.866303e-06
     31     45   2   0.50000    -0.1200000    0.0600000   2.494471e-04  1.671101e-07
     31     46   2   0.50000    -0.1200000    0.0600000   2.494471e-04  1.671101e-07
     43     34   2   0.50000     0.0600000   -0.1200000   2.494471e-04  1.671101e-07
     43     45   2   0.50000     0.0600000    0.0600000   6.128906e-05  1.496315e-08
     43     46   2   0.50000     0.0600000    0.0600000   6.128906e-05  1.496315e-08
     44     34   2   0.50000     0.0600000   -0.1200000   2.494471e-04  1.671101e-07
     44     45   2   0.50000     0.0600000    0.0600000   6.128906e-05  1.496315e-08
     44     46   2   0.50000     0.0600000    0.0600000   6.128906e-05  1.496315e-08
     32     35   2   0.50000    -0.1200000   -0.1800000   1.015252e-03  1.866303e-06
     32     47   2   0.50000    -0.1200000    0.0600000   2.494471e-04  1.671101e-07
     32     48   2   0.50000    -0.1200000    0.0600000   2.494471e-04  1.671101e-07
     45     35   2   0.50000     0.0600000   -0.1800000   2.494471e-04  1.671101e-07
     45     47   2   0.50000     0.0600000    0.0600000   6.128906e-05  1.496315e-08
     45     48   2   0.50000     0.0600000    0.0600000   6.128906e-05  1.496315e-08
     46     35   2   0.50000     0.0600000   -0.1800000   2.494471e-04  1.671101e-07
     46     47   2   0.50000     0.0600000    0.0600000   6.128906e-05  1.496315e-08
     46     48   2   0.50000     0.0600000    0.0600000   6.128906e-05  1.496315e-08
     33     49   2   0.50000    -0.1200000    0.0600000   2.494471e-04  1.671101e-07
     33     50   2   0.50000    -0.1200000    0.0600000   2.494471e-04  1.671101e-07
     33     51   2   0.50000    -0.1200000    0.0600000   2.494471e-04  1.671101e-07
     47     49   2   0.50000     0.0600000    0.0600000   6.128906e-05  1.496315e-08
     47     50   2   0.50000     0.0600000    0.0600000   6.128906e-05  1.496315e-08
     47     51   2   0.50000     0.0600000    0.0600000   6.128906e-05  1.496315e-08
     48     49   2   0.50000     0.0600000    0.0600000   6.128906e-05  1.496315e-08
     48     50   2   0.50000     0.0600000    0.0600000   6.128906e-05  1.496315e-08
     48     51   2   0.50000     0.0600000    0.0600000   6.128906e-05  1.496315e-08
     28     54   2   0.50000     0.1700000   -0.4000000   8.411158e-04  8.795366e-07
     28     63   2   0.50000     0.1700000    0.0300000   2.494471e-04  1.671101e-07
     28     77   2   0.50000     0.1700000   -0.1200000   1.015252e-03  1.866303e-06
     61     54   2   0.50000     0.0600000   -0.4000000   2.066619e-04  7.875431e-08
     61     63   2   0.50000     0.0600000    0.0300000   6.128906e-05  1.496315e-08
     61     77   2   0.50000     0.0600000   -0.1200000   2.494471e-04  1.671101e-07
     62     54   2   0.50000     0.0600000   -0.4000000   2.066619e-04  7.875431e-08
     62     63   2   0.50000     0.0600000    0.0300000   6.128906e-05  1.496315e-08
     62     77   2   0.50000     0.0600000   -0.1200000   2.494471e-04  1.671101e-07
     52     55   2   0.50000    -0.1200000    0.1400000   1.015252e-03  1.866303e-06
     63     55   2   0.50000     0.0300000    0.1400000   2.494471e-04  1.671101e-07
     77     55   2   0.50000    -0.1200000    0.1400000   1.015252e-03  1.866303e-06
     52     78   2   0.50000    -0.1200000    0.1700000   1.015252e-03  1.866303e-06
     52     86   2   0.50000    -0.1200000    0.0600000   2.494471e-04  1.671101e-07
     52     87   2   0.50000    -0.1200000    0.0600000   2.494471e-04  1.671101e-07
     54     78   2   0.50000    -0.4000000    0.1700000   8.411158e-04  8.795366e-07
     54     86   2   0.50000    -0.4000000    0.0600000   2.066619e-04  7.875431e-08
     54     87   2   0.50000    -0.4000000    0.0600000   2.066619e-04  7.875431e-08
     63     78   2   0.50000     0.0300000    0.1700000   2.494471e-04  1.671101e-07
     63     86   2   0.50000     0.0300000    0.0600000   6.128906e-05  1.496315e-08
     63     87   2   0.50000     0.0300000    0.0600000   6.128906e-05  1.496315e-08
     53     56   2   0.50000     0.1700000   -0.1200000   1.015252e-03  1.866303e-06
     53     64   2   0.50000     0.1700000    0.0300000   2.494471e-04  1.671101e-07
     53     65   2   0.50000     0.1700000    0.0300000   2.494471e-04  1.671101e-07
     54     57   2   0.50000    -0.4000000   -0.1200000   8.411158e-04  8.795366e-07
     54     66   2   0.50000    -0.4000000    0.0600000   2.066619e-04  7.875431e-08
     54     67   2   0.50000    -0.4000000    0.0600000   2.066619e-04  7.875431e-08
     64     57   2   0.50000     0.0300000   -0.1200000   2.494471e-04  1.671101e-07
     64     66   2   0.50000     0.0300000    0.0600000   6.128906e-05  1.496315e-08
     64     67   2   0.50000     0.0300000    0.0600000   6.128906e-05  1.496315e-08
     65     57   2   0.50000     0.0300000   -0.1200000   2.494471e-04  1.671101e-07
     65     66   2   0.50000     0.0300000    0.0600000   6.128906e-05  1.496315e-08
     65     67   2   0.50000     0.0300000    0.0600000   6.128906e-05  1.496315e-08
     55     58   2   0.50000     0.1400000   -0.1200000   1.015252e-03  1.866303e-06
     55     68   2   0.50000     0.1400000    0.0600000   2.494471e-04  1.671101e-07
     55     69   2   0.50000     0.1400000    0.0600000   2.494471e-04  1.671101e-07
     66     58   2   0.50000     0.0600000   -0.1200000   2.494471e-04  1.671101e-07
     66     68   2   0.50000     0.0600000    0.0600000   6.128906e-05  1.496315e-08
     66     69   2   0.50000     0.0600000    0.0600000   6.128906e-05  1.496315e-08
     67     58   2   0.50000     0.0600000   -0.1200000   2.494471e-04  1.671101e-07
     67     68   2   0.50000     0.0600000    0.0600000   6.128906e-05  1.496315e-08
     67     69   2   0.50000     0.0600000    0.0600000   6.128906e-05  1.496315e-08
     56     59   2   0.50000    -0.1200000   -0.1200000   1.015252e-03  1.866303e-06
     56     70   2   0.50000    -0.1200000    0.0600000   2.494471e-04  1.671101e-07
     56     71   2   0.50000    -0.1200000    0.0600000   2.494471e-04  1.671101e-07
     68     59   2   0.50000     0.0600000   -0.1200000   2.494471e-04  1.671101e-07
     68     70   2   0.50000     0.0600000    0.0600000   6.128906e-05  1.496315e-08
     68     71   2   0.50000     0.0600000    0.0600000   6.128906e-05  1.496315e-08
     69     59   2   0.50000     0.0600000   -0.1200000   2.494471e-04  1.671101e-07
     69     70   2   0.50000     0.0600000    0.0600000   6.128906e-05  1.496315e-08
     69     71   2   0.50000     0.0600000    0.0600000   6.128906e-05  1.496315e-08
     57     60   2   0.50000    -0.1200000   -0.1800000   1.015252e-03  1.866303e-06
     57     72   2   0.50000    -0.1200000    0.0600000   2.494471e-04  1.671101e-07
     57     73   2   0.50000    -0.1200000    0.0600000   2.494471e-04  1.671101e-07
     70     60   2   0.50000     0.0600000   -0.1800000   2.494471e-04  1.671101e-07
     70     72   2   0.50000     0.0600000    0.0600000   6.128906e-05  1.496315e-08
     70     73   2   0.50000     0.0600000    0.0600000   6.128906e-05  1.496315e-08
     71     60   2   0.50000     0.0600000   -0.1800000   2.494471e-04  1.671101e-07
     71     72   2   0.50000     0.0600000    0.0600000   6.128906e-05  1.496315e-08
     71     73   2   0.50000     0.0600000    0.0600000   6.128906e-05  1.496315e-08
     58     74   2   0.50000    -0.1200000    0.0600000   2.494471e-04  1.671101e-07
     58     75   2   0.50000    -0.1200000    0.0600000   2.494471e-04  1.671101e-07
     58     76   2   0.50000    -0.1200000    0.0600000   2.494471e-04  1.671101e-07
     72     74   2   0.50000     0.0600000    0.0600000   6.128906e-05  1.496315e-08
     72     75   2   0.50000     0.0600000    0.0600000   6.128906e-05  1.496315e-08
     72     76   2   0.50000     0.0600000    0.0600000   6.128906e-05  1.496315e-08
     73     74   2   0.50000     0.0600000    0.0600000   6.128906e-05  1.496315e-08
     73     75   2   0.50000     0.0600000    0.0600000   6.128906e-05  1.496315e-08
     73     76   2   0.50000     0.0600000    0.0600000   6.128906e-05  1.496315e-08
     53     79   2   0.50000     0.1700000   -0.4000000   8.411158e-04  8.795366e-07
     53     88   2   0.50000     0.1700000    0.0300000   2.494471e-04  1.671101e-07
     53    102   2   0.50000     0.1700000   -0.1200000   1.015252e-03  1.866303e-06
     86     79   2   0.50000     0.0600000   -0.4000000   2.066619e-04  7.875431e-08
     86     88   2   0.50000     0.0600000    0.0300000   6.128906e-05  1.496315e-08
     86    102   2   0.50000     0.0600000   -0.1200000   2.494471e-04  1.671101e-07
     87     79   2   0.50000     0.0600000   -0.4000000   2.066619e-04  7.875431e-08
     87     88   2   0.50000     0.0600000    0.0300000   6.128906e-05  1.496315e-08
     87    102   2   0.50000     0.0600000   -0.1200000   2.494471e-04  1.671101e-07
     77     80   2   0.50000    -0.1200000    0.1400000   1.015252e-03  1.866303e-06
     88     80   2   0.50000     0.0300000    0.1400000   2.494471e-04  1.671101e-07
    102     80   2   0.50000    -0.1200000    0.1400000   1.015252e-03  1.866303e-06
     77    103   2   0.50000    -0.1200000    0.1700000   1.015252e-03  1.866303e-06
     77    111   2   0.50000    -0.1200000    0.0600000   2.494471e-04  1.671101e-07
     77    112   2   0.50000    -0.1200000    0.0600000   2.494471e-04  1.671101e-07
     79    103   2   0.50000    -0.4000000    0.1700000   8.411158e-04  8.795366e-07
     79    111   2   0.50000    -0.4000000    0.0600000   2.066619e-04  7.875431e-08
     79    112   2   0.50000    -0.4000000    0.0600000   2.066619e-04  7.875431e-08
     88    103   2   0.50000     0.0300000    0.1700000   2.494471e-04  1.671101e-07
     88    111   2   0.50000     0.0300000    0.0600000   6.128906e-05  1.496315e-08
     88    112   2   0.50000     0.0300000    0.0600000   6.128906e-05  1.496315e-08
     78     81   2   0.50000     0.1700000   -0.1200000   1.015252e-03  1.866303e-06
     78     89   2   0.50000     0.1700000    0.0300000   2.494471e-04  1.671101e-07
     78     90   2   0.50000     0.1700000    0.0300000   2.494471e-04  1.671101e-07
     79     82   2   0.50000    -0.4000000   -0.1200000   8.411158e-04  8.795366e-07
     79     91   2   0.50000    -0.4000000    0.0600000   2.066619e-04  7.875431e-08
     79     92   2   0.50000    -0.4000000    0.0600000   2.066619e-04  7.875431e-08
     89     82   2   0.50000     0.0300000   -0.1200000   2.494471e-04  1.671101e-07
     89     91   2   0.50000     0.0300000    0.0600000   6.128906e-05  1.496315e-08
     89     92   2   0.50000     0.0300000    0.0600000   6.128906e-05  1.496315e-08
     90     82   2   0.50000     0.0300000   -0.1200000   2.494471e-04  1.671101e-07
     90     91   2   0.50000     0.0300000    0.0600000   6.128906e-05  1.496315e-08
     90     92   2   0.50000     0.0300000    0.0600000   6.128906e-05  1.496315e-08
     80     83   2   0.50000     0.1400000   -0.1200000   1.015252e-03  1.866303e-06
     80     93   2   0.50000     0.1400000    0.0600000   2.494471e-04  1.671101e-07
     80     94   2   0.50000     0.1400000    0.0600000   2.494471e-04  1.671101e-07
     91     83   2   0.50000     0.0600000   -0.1200000   2.494471e-04  1.671101e-07
     91     93   2   0.50000     0.0600000    0.0600000   6.128906e-05  1.496315e-08
     91     94   2   0.50000     0.0600000    0.0600000   6.128906e-05  1.496315e-08
     92     83   2   0.50000     0.0600000   -0.1200000   2.494471e-04  1.671101e-07
     92     93   2   0.50000     0.0600000    0.0600000   6.128906e-05  1.496315e-08
     92     94   2   0.50000     0.0600000    0.0600000   6.128906e-05  1.496315e-08
     81     84   2   0.50000    -0.1200000   -0.1200000   1.015252e-03  1.866303e-06
     81     95   2   0.50000    -0.1200000    0.0600000   2.494471e-04  1.671101e-07
     81     96   2   0.50000    -0.1200000    0.0600000   2.494471e-04  1.671101e-07
     93     84   2   0.50000     0.0600000   -0.1200000   2.494471e-04  1.671101e-07
     93     95   2   0.50000     0.0600000    0.0600000   6.128906e-05  1.496315e-08
     93     96   2   0.50000     0.0600000    0.0600000   6.128906e-05  1.496315e-08
     94     84   2   0.50000     0.0600000   -0.1200000   2.494471e-04  1.671101e-07
     94     95   2   0.50000     0.0600000    0.0600000   6.128906e-05  1.496315e-08
     94     96   2   0.50000     0.0600000    0.0600000   6.128906e-05  1.496315e-08
     82     85   2   0.50000    -0.1200000   -0.1800000   1.015252e-03  1.866303e-06
     82     97   2   0.50000    -0.1200000    0.0600000   2.494471e-04  1.671101e-07
     82     98   2   0.50000    -0.1200000    0.0600000   2.494471e-04  1.671101e-07
     95     85   2   0.50000     0.0600000   -0.1800000   2.494471e-04  1.671101e-07
     95     97   2   0.50000     0.0600000    0.0600000   6.128906e-05  1.496315e-08
     95     98   2   0.50000     0.0600000    0.0600000   6.128906e-05  1.496315e-08
     96     85   2   0.50000     0.0600000   -0.1800000   2.494471e-04  1.671101e-07
     96     97   2   0.50000     0.0600000    0.0600000   6.128906e-05  1.496315e-08
     96     98   2   0.50000     0.0600000    0.0600000   6.128906e-05  1.496315e-08
     83     99   2   0.50000    -0.1200000    0.0600000   2.494471e-04  1.671101e-07
     83    100   2   0.50000    -0.1200000    0.0600000   2.494471e-04  1.671101e-07
     83    101   2   0.50000    -0.1200000    0.0600000   2.494471e-04  1.671101e-07
     97     99   2   0.50000     0.0600000    0.0600000   6.128906e-05  1.496315e-08
     97    100   2   0.50000     0.0600000    0.0600000   6.128906e-05  1.496315e-08
     97    101   2   0.50000     0.0600000    0.0600000   6.128906e-05  1.496315e-08
     98     99   2   0.50000     0.0600000    0.0600000   6.128906e-05  1.496315e-08
     98    100   2   0.50000     0.0600000    0.0600000   6.128906e-05  1.496315e-08
     98    101   2   0.50000     0.0600000    0.0600000   6.128906e-05  1.496315e-08
     78    104   2   0.50000     0.1700000   -0.4000000   8.411158e-04  8.795366e-07
     78    113   2   0.50000     0.1700000    0.0300000   2.494471e-04  1.671101e-07
     78    127   2   0.50000     0.1700000   -0.1200000   1.015252e-03  1.866303e-06
    111    104   2   0.50000     0.0600000   -0.4000000   2.066619e-04  7.875431e-08
    111    113   2   0.50000     0.0600000    0.0300000   6.128906e-05  1.496315e-08
    111    127   2   0.50000     0.0600000   -0.1200000   2.494471e-04  1.671101e-07
    112    104   2   0.50000     0.0600000   -0.4000000   2.066619e-04  7.875431e-08
    112    113   2   0.50000     0.0600000    0.0300000   6.128906e-05  1.496315e-08
    112    127   2   0.50000     0.0600000   -0.1200000   2.494471e-04  1.671101e-07
    102    105   2   0.50000    -0.1200000    0.1400000   1.015252e-03  1.866303e-06
    113    105   2   0.50000     0.0300000    0.1400000   2.494471e-04  1.671101e-07
    127    105   2   0.50000    -0.1200000    0.1400000   1.015252e-03  1.866303e-06
    102    128   2   0.50000    -0.1200000    0.1700000   1.015252e-03  1.866303e-06
    102    136   2   0.50000    -0.1200000    0.0600000   2.494471e-04  1.671101e-07
    102    137   2   0.50000    -0.1200000    0.0600000   2.494471e-04  1.671101e-07
    104    128   2   0.50000    -0.4000000    0.1700000   8.411158e-04  8.795366e-07
    104    136   2   0.50000    -0.4000000    0.0600000   2.066619e-04  7.875431e-08
    104    137   2   0.50000    -0.4000000    0.0600000   2.066619e-04  7.875431e-08
    113    128   2   0.50000     0.0300000    0.1700000   2.494471e-04  1.671101e-07
    113    136   2   0.50000     0.0300000    0.0600000   6.128906e-05  1.496315e-08
    113    137   2   0.50000     0.0300000    0.0600000   6.128906e-05  1.496315e-08
    103    106   2   0.50000     0.1700000   -0.1200000   1.015252e-03  1.866303e-06
    103    114   2   0.50000     0.1700000    0.0300000   2.494471e-04  1.671101e-07
    103    115   2   0.50000     0.1700000    0.0300000   2.494471e-04  1.671101e-07
    104    107   2   0.50000    -0.4000000   -0.1200000   8.411158e-04  8.795366e-07
    104    116   2   0.50000    -0.4000000    0.0600000   2.066619e-04  7.875431e-08
    104    117   2   0.50000    -0.4000000    0.0600000   2.066619e-04  7.875431e-08
    114    107   2   0.50000     0.0300000   -0.1200000   2.494471e-04  1.671101e-07
    114    116   2   0.50000     0.0300000    0.0600000   6.128906e-05  1.496315e-08
    114    117   2   0.50000     0.0300000    0.0600000   6.128906e-05  1.496315e-08
    115    107   2   0.50000     0.0300000   -0.1200000   2.494471e-04  1.671101e-07
    115    116   2   0.50000     0.0300000    0.0600000   6.128906e-05  1.496315e-08
    115    117   2   0.50000     0.0300000    0.0600000   6.128906e-05  1.496315e-08
    105    108   2   0.50000     0.1400000   -0.1200000   1.015252e-03  1.866303e-06
    105    118   2   0.50000     0.1400000    0.0600000   2.494471e-04  1.671101e-07
    105    119   2   0.50000     0.1400000    0.0600000   2.494471e-04  1.671101e-07
    116    108   2   0.50000     0.0600000   -0.1200000   2.494471e-04  1.671101e-07
    116    118   2   0.50000     0.0600000    0.0600000   6.128906e-05  1.496315e-08
    116    119   2   0.50000     0.0600000    0.0600000   6.128906e-05  1.496315e-08
    117    108   2   0.50000     0.0600000   -0.1200000   2.494471e-04  1.671101e-07
    117    118   2   0.50000     0.0600000    0.0600000   6.128906e-05  1.496315e-08
    117    119   2   0.50000     0.0600000    0.0600000   6.128906e-05  1.496315e-08
    106    109   2   0.50000    -0.1200000   -0.1200000   1.015252e-03  1.866303e-06
    106    120   2   0.50000    -0.1200000    0.0600000   2.494471e-04  1.671101e-07
    106    121   2   0.50000    -0.1200000    0.0600000   2.494471e-04  1.671101e-07
    118    109   2   0.50000     0.0600000   -0.1200000   2.494471e-04  1.671101e-07
    118    120   2   0.50000     0.0600000    0.0600000   6.128906e-05  1.496315e-08
    118    121   2   0.50000     0.0600000    0.0600000   6.128906e-05  1.496315e-08
    119    109   2   0.50000     0.0600000   -0.1200000   2.494471e-04  1.671101e-07
    119    120   2   0.50000     0.0600000    0.0600000   6.128906e-05  1.496315e-08
    119    121   2   0.50000     0.0600000    0.0600000   6.128906e-05  1.496315e-08
    107    110   2   0.50000    -0.1200000   -0.1800000   1.015252e-03  1.866303e-06
    107    122   2   0.50000    -0.1200000    0.0600000   2.494471e-04  1.671101e-07
    107    123   2   0.50000    -0.1200000    0.0600000   2.494471e-04  1.671101e-07
    120    110   2   0.50000     0.0600000   -0.1800000   2.494471e-04  1.671101e-07
    120    122   2   0.50000     0.0600000    0.0600000   6.128906e-05  1.496315e-08
    120    123   2   0.50000     0.0600000    0.0600000   6.128906e-05  1.496315e-08
    121    110   2   0.50000     0.0600000   -0.1800000   2.494471e-04  1.671101e-07
    121    122   2   0.50000     0.0600000    0.0600000   6.128906e-05  1.496315e-08
    121    123   2   0.50000     0.0600000    0.0600000   6.128906e-05  1.496315e-08
    108    124   2   0.50000    -0.1200000    0.0600000   2.494471e-04  1.671101e-07
    108    125   2   0.50000    -0.1200000    0.0600000   2.494471e-04  1.671101e-07
    108    126   2   0.50000    -0.1200000    0.0600000   2.494471e-04  1.671101e-07
    122    124   2   0.50000     0.0600000    0.0600000   6.128906e-05  1.496315e-08
    122    125   2   0.50000     0.0600000    0.0600000   6.128906e-05  1.496315e-08
    122    126   2   0.50000     0.0600000    0.0600000   6.128906e-05  1.496315e-08
    123    124   2   0.50000     0.0600000    0.0600000   6.128906e-05  1.496315e-08
    123    125   2   0.50000     0.0600000    0.0600000   6.128906e-05  1.496315e-08
    123    126   2   0.50000     0.0600000    0.0600000   6.128906e-05  1.496315e-08
    103    129   2   0.50000     0.1700000   -0.4000000   8.411158e-04  8.795366e-07
    103    138   2   0.50000     0.1700000    0.0300000   2.494471e-04  1.671101e-07
    103    152   2   0.50000     0.1700000   -0.1200000   1.015252e-03  1.866303e-06
    136    129   2   0.50000     0.0600000   -0.4000000   2.066619e-04  7.875431e-08
    136    138   2   0.50000     0.0600000    0.0300000   6.128906e-05  1.496315e-08
    136    152   2   0.50000     0.0600000   -0.1200000   2.494471e-04  1.671101e-07
    137    129   2   0.50000     0.0600000   -0.4000000   2.066619e-04  7.875431e-08
    137    138   2   0.50000     0.0600000    0.0300000   6.128906e-05  1.496315e-08
    137    152   2   0.50000     0.0600000   -0.1200000   2.494471e-04  1.671101e-07
    127    130   2   0.50000    -0.1200000    0.1400000   1.015252e-03  1.866303e-06
    138    130   2   0.50000     0.0300000    0.1400000   2.494471e-04  1.671101e-07
    152    130   2   0.50000    -0.1200000    0.1400000   1.015252e-03  1.866303e-06
    127    153   2   0.50000    -0.1200000    0.1700000   1.015252e-03  1.866303e-06
    127    161   2   0.50000    -0.1200000    0.0600000   2.494471e-04  1.671101e-07
    127    162   2   0.50000    -0.1200000    0.0600000   2.494471e-04  1.671101e-07
    129    153   2   0.50000    -0.4000000    0.1700000   8.411158e-04  8.795366e-07
    129    161   2   0.50000    -0.4000000    0.0600000   2.066619e-04  7.875431e-08
    129    162   2   0.50000    -0.4000000    0.0600000   2.066619e-04  7.875431e-08
    138    153   2   0.50000     0.0300000    0.1700000   2.494471e-04  1.671101e-07
    138    161   2   0.50000     0.0300000    0.0600000   6.128906e-05  1.496315e-08
    138    162   2   0.50000     0.0300000    0.0600000   6.128906e-05  1.496315e-08
    128    131   2   0.50000     0.1700000   -0.1200000   1.015252e-03  1.866303e-06
    128    139   2   0.50000     0.1700000    0.0300000   2.494471e-04  1.671101e-07
    128    140   2   0.50000     0.1700000    0.0300000   2.494471e-04  1.671101e-07
    129    132   2   0.50000    -0.4000000   -0.1200000   8.411158e-04  8.795366e-07
    129    141   2   0.50000    -0.4000000    0.0600000   2.066619e-04  7.875431e-08
    129    142   2   0.50000    -0.4000000    0.0600000   2.066619e-04  7.875431e-08
    139    132   2   0.50000     0.0300000   -0.1200000   2.494471e-04  1.671101e-07
    139    141   2   0.50000     0.0300000    0.0600000   6.128906e-05  1.496315e-08
    139    142   2   0.50000     0.0300000    0.0600000   6.128906e-05  1.496315e-08
    140    132   2   0.50000     0.0300000   -0.1200000   2.494471e-04  1.671101e-07
    140    141   2   0.50000     0.0300000    0.0600000   6.128906e-05  1.496315e-08
    140    142   2   0.50000     0.0300000    0.0600000   6.128906e-05  1.496315e-08
    130    133   2   0.50000     0.1400000   -0.1200000   1.015252e-03  1.866303e-06
    130    143   2   0.50000     0.1400000    0.0600000   2.494471e-04  1.671101e-07
    130    144   2   0.50000     0.1400000    0.0600000   2.494471e-04  1.671101e-07
    141    133   2   0.50000     0.0600000   -0.1200000   2.494471e-04  1.671101e-07
    141    143   2   0.50000     0.0600000    0.0600000   6.128906e-05  1.496315e-08
    141    144   2   0.50000     0.0600000    0.0600000   6.128906e-05  1.496315e-08
    142    133   2   0.50000     0.0600000   -0.1200000   2.494471e-04  1.671101e-07
    142    143   2   0.50000     0.0600000    0.0600000   6.128906e-05  1.496315e-08
    142    144   2   0.50000     0.0600000    0.0600000   6.128906e-05  1.496315e-08
    131    134   2   0.50000    -0.1200000   -0.1200000   1.015252e-03  1.866303e-06
    131    145   2   0.50000    -0.1200000    0.0600000   2.494471e-04  1.671101e-07
    131    146   2   0.50000    -0.1200000    0.0600000   2.494471e-04  1.671101e-07
    143    134   2   0.50000     0.0600000   -0.1200000   2.494471e-04  1.671101e-07
    143    145   2   0.50000     0.0600000    0.0600000   6.128906e-05  1.496315e-08
    143    146   2   0.50000     0.0600000    0.0600000   6.128906e-05  1.496315e-08
    144    134   2   0.50000     0.0600000   -0.1200000   2.494471e-04  1.671101e-07
    144    145   2   0.50000     0.0600000    0.0600000   6.128906e-05  1.496315e-08
    144    146   2   0.50000     0.0600000    0.0600000   6.128906e-05  1.496315e-08
    132    135   2   0.50000    -0.1200000   -0.1800000   1.015252e-03  1.866303e-06
    132    147   2   0.50000    -0.1200000    0.0600000   2.494471e-04  1.671101e-07
    132    148   2   0.50000    -0.1200000    0.0600000   2.494471e-04  1.671101e-07
    145    135   2   0.50000     0.0600000   -0.1800000   2.494471e-04  1.671101e-07
    145    147   2   0.50000     0.0600000    0.0600000   6.128906e-05  1.496315e-08
    145    148   2   0.50000     0.0600000    0.0600000   6.128906e-05  1.496315e-08
    146    135   2   0.50000     0.0600000   -0.1800000   2.494471e-04  1.671101e-07
    146    147   2   0.50000     0.0600000    0.0600000   6.128906e-05  1.496315e-08
    146    148   2   0.50000     0.0600000    0.0600000   6.128906e-05  1.496315e-08
    133    149   2   0.50000    -0.1200000    0.0600000   2.494471e-04  1.671101e-07
    133    150   2   0.50000    -0.1200000    0.0600000   2.494471e-04  1.671101e-07
    133    151   2   0.50000    -0.1200000    0.0600000   2.494471e-04  1.671101e-07
    147    149   2   0.50000     0.0600000    0.0600000   6.128906e-05  1.496315e-08
    147    150   2   0.50000     0.0600000    0.0600000   6.128906e-05  1.496315e-08
    147    151   2   0.50000     0.0600000    0.0600000   6.128906e-05  1.496315e-08
    148    149   2   0.50000     0.0600000    0.0600000   6.128906e-05  1.496315e-08
    148    150   2   0.50000     0.0600000    0.0600000   6.128906e-05  1.496315e-08
    148    151   2   0.50000     0.0600000    0.0600000   6.128906e-05  1.496315e-08
    128    154   2   0.50000     0.1700000   -0.4000000   8.411158e-04  8.795366e-07
    128    163   2   0.50000     0.1700000    0.0300000   2.494471e-04  1.671101e-07
    128    177   2   0.50000     0.1700000   -0.1200000   1.015252e-03  1.866303e-06
    161    154   2   0.50000     0.0600000   -0.4000000   2.066619e-04  7.875431e-08
    161    163   2   0.50000     0.0600000    0.0300000   6.128906e-05  1.496315e-08
    161    177   2   0.50000     0.0600000   -0.1200000   2.494471e-04  1.671101e-07
    162    154   2   0.50000     0.0600000   -0.4000000   2.066619e-04  7.875431e-08
    162    163   2   0.50000     0.0600000    0.0300000   6.128906e-05  1.496315e-08
    162    177   2   0.50000     0.0600000   -0.1200000   2.494471e-04  1.671101e-07
    152    155   2   0.50000    -0.1200000    0.1400000   1.015252e-03  1.866303e-06
    163    155   2   0.50000     0.0300000    0.1400000   2.494471e-04  1.671101e-07
    177    155   2   0.50000    -0.1200000    0.1400000   1.015252e-03  1.866303e-06
    152    178   2   0.50000    -0.1200000    0.1700000   1.015252e-03  1.866303e-06
    152    186   2   0.50000    -0.1200000    0.0600000   2.494471e-04  1.671101e-07
    152    187   2   0.50000    -0.1200000    0.0600000   2.494471e-04  1.671101e-07
    154    178   2   0.50000    -0.4000000    0.1700000   8.411158e-04  8.795366e-07
    154    186   2   0.50000    -0.4000000    0.0600000   2.066619e-04  7.875431e-08
    154    187   2   0.50000    -0.4000000    0.0600000   2.066619e-04  7.875431e-08
    163    178   2   0.50000     0.0300000    0.1700000   2.494471e-04  1.671101e-07
    163    186   2   0.50000     0.0300000    0.0600000   6.128906e-05  1.496315e-08
    163    187   2   0.50000     0.0300000    0.0600000   6.128906e-05  1.496315e-08
    153    156   2   0.50000     0.1700000   -0.1200000   1.015252e-03  1.866303e-06
    153    164   2   0.50000     0.1700000    0.0300000   2.494471e-04  1.671101e-07
    153    165   2   0.50000     0.1700000    0.0300000   2.494471e-04  1.671101e-07
    154    157   2   0.50000    -0.4000000   -0.1200000   8.411158e-04  8.795366e-07
    154    166   2   0.50000    -0.4000000    0.0600000   2.066619e-04  7.875431e-08
    154    167   2   0.50000    -0.4000000    0.0600000   2.066619e-04  7.875431e-08
    164    157   2   0.50000     0.0300000   -0.1200000   2.494471e-04  1.671101e-07
    164    166   2   0.50000     0.0300000    0.0600000   6.128906e-05  1.496315e-08
    164    167   2   0.50000     0.0300000    0.0600000   6.128906e-05  1.496315e-08
    165    157   2   0.50000     0.0300000   -0.1200000   2.494471e-04  1.671101e-07
    165    166   2   0.50000     0.0300000    0.0600000   6.128906e-05  1.496315e-08
    165    167   2   0.50000     0.0300000    0.0600000   6.128906e-05  1.496315e-08
    155    158   2   0.50000     0.1400000   -0.1200000   1.015252e-03  1.866303e-06
    155    168   2   0.50000     0.1400000    0.0600000   2.494471e-04  1.671101e-07
    155    169   2   0.50000     0.1400000    0.0600000   2.494471e-04  1.671101e-07
    166    158   2   0.50000     0.0600000   -0.1200000   2.494471e-04  1.671101e-07
    166    168   2   0.50000     0.0600000    0.0600000   6.128906e-05  1.496315e-08
    166    169   2   0.50000     0.0600000    0.0600000   6.128906e-05  1.496315e-08
    167    158   2   0.50000     0.0600000   -0.1200000   2.494471e-04  1.671101e-07
    167    168   2   0.50000     0.0600000    0.0600000   6.128906e-05  1.496315e-08
    167    169   2   0.50000     0.0600000    0.0600000   6.128906e-05  1.496315e-08
    156    159   2   0.50000    -0.1200000   -0.1200000   1.015252e-03  1.866303e-06
    156    170   2   0.50000    -0.1200000    0.0600000   2.494471e-04  1.671101e-07
    156    171   2   0.50000    -0.1200000    0.0600000   2.494471e-04  1.671101e-07
    168    159   2   0.50000     0.0600000   -0.1200000   2.494471e-04  1.671101e-07
    168    170   2   0.50000     0.0600000    0.0600000   6.128906e-05  1.496315e-08
    168    171   2   0.50000     0.0600000    0.0600000   6.128906e-05  1.496315e-08
    169    159   2   0.50000     0.0600000   -0.1200000   2.494471e-04  1.671101e-07
    169    170   2   0.50000     0.0600000    0.0600000   6.128906e-05  1.496315e-08
    169    171   2   0.50000     0.0600000    0.0600000   6.128906e-05  1.496315e-08
    157    160   2   0.50000    -0.1200000   -0.1800000   1.015252e-03  1.866303e-06
    157    172   2   0.50000    -0.1200000    0.0600000   2.494471e-04  1.671101e-07
    157    173   2   0.50000    -0.1200000    0.0600000   2.494471e-04  1.671101e-07
    170    160   2   0.50000     0.0600000   -0.1800000   2.494471e-04  1.671101e-07
    170    172   2   0.50000     0.0600000    0.0600000   6.128906e-05  1.496315e-08
    170    173   2   0.50000     0.0600000    0.0600000   6.128906e-05  1.496315e-08
    171    160   2   0.50000     0.0600000   -0.1800000   2.494471e-04  1.671101e-07
    171    172   2   0.50000     0.0600000    0.0600000   6.128906e-05  1.496315e-08
    171    173   2   0.50000     0.0600000    0.0600000   6.128906e-05  1.496315e-08
    158    174   2   0.50000    -0.1200000    0.0600000   2.494471e-04  1.671101e-07
    158    175   2   0.50000    -0.1200000    0.0600000   2.494471e-04  1.671101e-07
    158    176   2   0.50000    -0.1200000    0.0600000   2.494471e-04  1.671101e-07
    172    174   2   0.50000     0.0600000    0.0600000   6.128906e-05  1.496315e-08
    172    175   2   0.50000     0.0600000    0.0600000   6.128906e-05  1.496315e-08
    172    176   2   0.50000     0.0600000    0.0600000   6.128906e-05  1.496315e-08
    173    174   2   0.50000     0.0600000    0.0600000   6.128906e-05  1.496315e-08
    173    175   2   0.50000     0.0600000    0.0600000   6.128906e-05  1.496315e-08
    173    176   2   0.50000     0.0600000    0.0600000   6.128906e-05  1.496315e-08
    153    179   2   0.50000     0.1700000   -0.4000000   8.411158e-04  8.795366e-07
    153    188   2   0.50000     0.1700000    0.0300000   2.494471e-04  1.671101e-07
    153    202   2   0.50000     0.1700000   -0.1200000   1.015252e-03  1.866303e-06
    186    179   2   0.50000     0.0600000   -0.4000000   2.066619e-04  7.875431e-08
    186    188   2   0.50000     0.0600000    0.0300000   6.128906e-05  1.496315e-08
    186    202   2   0.50000     0.0600000   -0.1200000   2.494471e-04  1.671101e-07
    187    179   2   0.50000     0.0600000   -0.4000000   2.066619e-04  7.875431e-08
    187    188   2   0.50000     0.0600000    0.0300000   6.128906e-05  1.496315e-08
    187    202   2   0.50000     0.0600000   -0.1200000   2.494471e-04  1.671101e-07
    177    180   2   0.50000    -0.1200000    0.1400000   1.015252e-03  1.866303e-06
    188    180   2   0.50000     0.0300000    0.1400000   2.494471e-04  1.671101e-07
    202    180   2   0.50000    -0.1200000    0.1400000   1.015252e-03  1.866303e-06
    177    203   2   0.50000    -0.1200000    0.1700000   1.015252e-03  1.866303e-06
    177    211   2   0.50000    -0.1200000    0.0600000   2.494471e-04  1.671101e-07
    177    212   2   0.50000    -0.1200000    0.0600000   2.494471e-04  1.671101e-07
    179    203   2   0.50000    -0.4000000    0.1700000   8.411158e-04  8.795366e-07
    179    211   2   0.50000    -0.4000000    0.0600000   2.066619e-04  7.875431e-08
    179    212   2   0.50000    -0.4000000    0.0600000   2.066619e-04  7.875431e-08
    188    203   2   0.50000     0.0300000    0.1700000   2.494471e-04  1.671101e-07
    188    211   2   0.50000     0.0300000    0.0600000   6.128906e-05  1.496315e-08
    188    212   2   0.50000     0.0300000    0.0600000   6.128906e-05  1.496315e-08
    178    181   2   0.50000     0.1700000   -0.1200000   1.015252e-03  1.866303e-06
    178    189   2   0.50000     0.1700000    0.0300000   2.494471e-04  1.671101e-07
    178    190   2   0.50000     0.1700000    0.0300000   2.494471e-04  1.671101e-07
    179    182   2   0.50000    -0.4000000   -0.1200000   8.411158e-04  8.795366e-07
    179    191   2   0.50000    -0.4000000    0.0600000   2.066619e-04  7.875431e-08
    179    192   2   0.50000    -0.4000000    0.0600000   2.066619e-04  7.875431e-08
    189    182   2   0.50000     0.0300000   -0.1200000   2.494471e-04  1.671101e-07
    189    191   2   0.50000     0.0300000    0.0600000   6.128906e-05  1.496315e-08
    189    192   2   0.50000     0.0300000    0.0600000   6.128906e-05  1.496315e-08
    190    182   2   0.50000     0.0300000   -0.1200000   2.494471e-04  1.671101e-07
    190    191   2   0.50000     0.0300000    0.0600000   6.128906e-05  1.496315e-08
    190    192   2   0.50000     0.0300000    0.0600000   6.128906e-05  1.496315e-08
    180    183   2   0.50000     0.1400000   -0.1200000   1.015252e-03  1.866303e-06
    180    193   2   0.50000     0.1400000    0.0600000   2.494471e-04  1.671101e-07
    180    194   2   0.50000     0.1400000    0.0600000   2.494471e-04  1.671101e-07
    191    183   2   0.50000     0.0600000   -0.1200000   2.494471e-04  1.671101e-07
    191    193   2   0.50000     0.0600000    0.0600000   6.128906e-05  1.496315e-08
    191    194   2   0.50000     0.0600000    0.0600000   6.128906e-05  1.496315e-08
    192    183   2   0.50000     0.0600000   -0.1200000   2.494471e-04  1.671101e-07
    192    193   2   0.50000     0.0600000    0.0600000   6.128906e-05  1.496315e-08
    192    194   2   0.50000     0.0600000    0.0600000   6.128906e-05  1.496315e-08
    181    184   2   0.50000    -0.1200000   -0.1200000   1.015252e-03  1.866303e-06
    181    195   2   0.50000    -0.1200000    0.0600000   2.494471e-04  1.671101e-07
    181    196   2   0.50000    -0.1200000    0.0600000   2.494471e-04  1.671101e-07
    193    184   2   0.50000     0.0600000   -0.1200000   2.494471e-04  1.671101e-07
    193    195   2   0.50000     0.0600000    0.0600000   6.128906e-05  1.496315e-08
    193    196   2   0.50000     0.0600000    0.0600000   6.128906e-05  1.496315e-08
    194    184   2   0.50000     0.0600000   -0.1200000   2.494471e-04  1.671101e-07
    194    195   2   0.50000     0.0600000    0.0600000   6.128906e-05  1.496315e-08
    194    196   2   0.50000     0.0600000    0.0600000   6.128906e-05  1.496315e-08
    182    185   2   0.50000    -0.1200000   -0.1800000   1.015252e-03  1.866303e-06
    182    197   2   0.50000    -0.1200000    0.0600000   2.494471e-04  1.671101e-07
    182    198   2   0.50000    -0.1200000    0.0600000   2.494471e-04  1.671101e-07
    195    185   2   0.50000     0.0600000   -0.1800000   2.494471e-04  1.671101e-07
    195    197   2   0.50000     0.0600000    0.0600000   6.128906e-05  1.496315e-08
    195    198   2   0.50000     0.0600000    0.0600000   6.128906e-05  1.496315e-08
    196    185   2   0.50000     0.0600000   -0.1800000   2.494471e-04  1.671101e-07
    196    197   2   0.50000     0.0600000    0.0600000   6.128906e-05  1.496315e-08
    196    198   2   0.50000     0.0600000    0.0600000   6.128906e-05  1.496315e-08
    183    199   2   0.50000    -0.1200000    0.0600000   2.494471e-04  1.671101e-07
    183    200   2   0.50000    -0.1200000    0.0600000   2.494471e-04  1.671101e-07
    183    201   2   0.50000    -0.1200000    0.0600000   2.494471e-04  1.671101e-07
    197    199   2   0.50000     0.0600000    0.0600000   6.128906e-05  1.496315e-08
    197    200   2   0.50000     0.0600000    0.0600000   6.128906e-05  1.496315e-08
    197    201   2   0.50000     0.0600000    0.0600000   6.128906e-05  1.496315e-08
    198    199   2   0.50000     0.0600000    0.0600000   6.128906e-05  1.496315e-08
    198    200   2   0.50000     0.0600000    0.0600000   6.128906e-05  1.496315e-08
    198    201   2   0.50000     0.0600000    0.0600000   6.128906e-05  1.496315e-08
    178    204   2   0.50000     0.1700000   -0.4000000   8.411158e-04  8.795366e-07
    178    213   2   0.50000     0.1700000    0.0300000   2.494471e-04  1.671101e-07
    178    227   2   0.50000     0.1700000   -0.1200000   1.015252e-03  1.866303e-06
    211    204   2   0.50000     0.0600000   -0.4000000   2.066619e-04  7.875431e-08
    211    213   2   0.50000     0.0600000    0.0300000   6.128906e-05  1.496315e-08
    211    227   2   0.50000     0.0600000   -0.1200000   2.494471e-04  1.671101e-07
    212    204   2   0.50000     0.0600000   -0.4000000   2.066619e-04  7.875431e-08
    212    213   2   0.50000     0.0600000    0.0300000   6.128906e-05  1.496315e-08
    212    227   2   0.50000     0.0600000   -0.1200000   2.494471e-04  1.671101e-07
    202    205   2   0.50000    -0.1200000    0.1400000   1.015252e-03  1.866303e-06
    213    205   2   0.50000     0.0300000    0.1400000   2.494471e-04  1.671101e-07
    227    205   2   0.50000    -0.1200000    0.1400000   1.015252e-03  1.866303e-06
    202    228   2   0.50000    -0.1200000    0.1700000   1.015252e-03  1.866303e-06
    202    236   2   0.50000    -0.1200000    0.0600000   2.494471e-04  1.671101e-07
    202    237   2   0.50000    -0.1200000    0.0600000   2.494471e-04  1.671101e-07
    204    228   2   0.50000    -0.4000000    0.1700000   8.411158e-04  8.795366e-07
    204    236   2   0.50000    -0.4000000    0.0600000   2.066619e-04  7.875431e-08
    204    237   2   0.50000    -0.4000000    0.0600000   2.066619e-04  7.875431e-08
    213    228   2   0.50000     0.0300000    0.1700000   2.494471e-04  1.671101e-07
    213    236   2   0.50000     0.0300000    0.0600000   6.128906e-05  1.496315e-08
    213    237   2   0.50000     0.0300000    0.0600000   6.128906e-05  1.496315e-08
    203    206   2   0.50000     0.1700000   -0.1200000   1.015252e-03  1.866303e-06
    203    214   2   0.50000     0.1700000    0.0300000   2.494471e-04  1.671101e-07
    203    215   2   0.50000     0.1700000    0.0300000   2.494471e-04  1.671101e-07
    204    207   2   0.50000    -0.4000000   -0.1200000   8.411158e-04  8.795366e-07
    204    216   2   0.50000    -0.4000000    0.0600000   2.066619e-04  7.875431e-08
    204    217   2   0.50000    -0.4000000    0.0600000   2.066619e-04  7.875431e-08
    214    207   2   0.50000     0.0300000   -0.1200000   2.494471e-04  1.671101e-07
    214    216   2   0.50000     0.0300000    0.0600000   6.128906e-05  1.496315e-08
    214    217   2   0.50000     0.0300000    0.0600000   6.128906e-05  1.496315e-08
    215    207   2   0.50000     0.0300000   -0.1200000   2.494471e-04  1.671101e-07
    215    216   2   0.50000     0.0300000    0.0600000   6.128906e-05  1.496315e-08
    215    217   2   0.50000     0.0300000    0.0600000   6.128906e-05  1.496315e-08
    205    208   2   0.50000     0.1400000   -0.1200000   1.015252e-03  1.866303e-06
    205    218   2   0.50000     0.1400000    0.0600000   2.494471e-04  1.671101e-07
    205    219   2   0.50000     0.1400000    0.0600000   2.494471e-04  1.671101e-07
    216    208   2   0.50000     0.0600000   -0.1200000   2.494471e-04  1.671101e-07
    216    218   2   0.50000     0.0600000    0.0600000   6.128906e-05  1.496315e-08
    216    219   2   0.50000     0.0600000    0.0600000   6.128906e-05  1.496315e-08
    217    208   2   0.50000     0.0600000   -0.1200000   2.494471e-04  1.671101e-07
    217    218   2   0.50000     0.0600000    0.0600000   6.128906e-05  1.496315e-08
    217    219   2   0.50000     0.0600000    0.0600000   6.128906e-05  1.496315e-08
    206    209   2   0.50000    -0.1200000   -0.1200000   1.015252e-03  1.866303e-06
    206    220   2   0.50000    -0.1200000    0.0600000   2.494471e-04  1.671101e-07
    206    221   2   0.50000    -0.1200000    0.0600000   2.494471e-04  1.671101e-07
    218    209   2   0.50000     0.0600000   -0.1200000   2.494471e-04  1.671101e-07
    218    220   2   0.50000     0.0600000    0.0600000   6.128906e-05  1.496315e-08
    218    221   2   0.50000     0.0600000    0.0600000   6.128906e-05  1.496315e-08
    219    209   2   0.50000     0.0600000   -0.1200000   2.494471e-04  1.671101e-07
    219    220   2   0.50000     0.0600000    0.0600000   6.128906e-05  1.496315e-08
    219    221   2   0.50000     0.0600000    0.0600000   6.128906e-05  1.496315e-08
    207    210   2   0.50000    -0.1200000   -0.1800000   1.015252e-03  1.866303e-06
    207    222   2   0.50000    -0.1200000    0.0600000   2.494471e-04  1.671101e-07
    207    223   2   0.50000    -0.1200000    0.0600000   2.494471e-04  1.671101e-07
    220    210   2   0.50000     0.0600000   -0.1800000   2.494471e-04  1.671101e-07
    220    222   2   0.50000     0.0600000    0.0600000   6.128906e-05  1.496315e-08
    220    223   2   0.50000     0.0600000    0.0600000   6.128906e-05  1.496315e-08
    221    210   2   0.50000     0.0600000   -0.1800000   2.494471e-04  1.671101e-07
    221    222   2   0.50000     0.0600000    0.0600000   6.128906e-05  1.496315e-08
    221    223   2   0.50000     0.0600000    0.0600000   6.128906e-05  1.496315e-08
    208    224   2   0.50000    -0.1200000    0.0600000   2.494471e-04  1.671101e-07
    208    225   2   0.50000    -0.1200000    0.0600000   2.494471e-04  1.671101e-07
    208    226   2   0.50000    -0.1200000    0.0600000   2.494471e-04  1.671101e-07
    222    224   2   0.50000     0.0600000    0.0600000   6.128906e-05  1.496315e-08
    222    225   2   0.50000     0.0600000    0.0600000   6.128906e-05  1.496315e-08
    222    226   2   0.50000     0.0600000    0.0600000   6.128906e-05  1.496315e-08
    223    224   2   0.50000     0.0600000    0.0600000   6.128906e-05  1.496315e-08
    223    225   2   0.50000     0.0600000    0.0600000   6.128906e-05  1.496315e-08
    223    226   2   0.50000     0.0600000    0.0600000   6.128906e-05  1.496315e-08
    203    229   2   0.50000     0.1700000   -0.4000000   8.411158e-04  8.795366e-07
    203    238   2   0.50000     0.1700000    0.0300000   2.494471e-04  1.671101e-07
    203    252   2   0.50000     0.1700000   -0.1200000   1.015252e-03  1.866303e-06
    236    229   2   0.50000     0.0600000   -0.4000000   2.066619e-04  7.875431e-08
    236    238   2   0.50000     0.0600000    0.0300000   6.128906e-05  1.496315e-08
    236    252   2   0.50000     0.0600000   -0.1200000   2.494471e-04  1.671101e-07
    237    229   2   0.50000     0.0600000   -0.4000000   2.066619e-04  7.875431e-08
    237    238   2   0.50000     0.0600000    0.0300000   6.128906e-05  1.496315e-08
    237    252   2   0.50000     0.0600000   -0.1200000   2.494471e-04  1.671101e-07
    227    230   2   0.50000    -0.1200000    0.1400000   1.015252e-03  1.866303e-06
    238    230   2   0.50000     0.0300000    0.1400000   2.494471e-04  1.671101e-07
    252    230   2   0.50000    -0.1200000    0.1400000   1.015252e-03  1.866303e-06
    227    253   2   0.50000    -0.1200000    0.1700000   1.015252e-03  1.866303e-06
    227    261   2   0.50000    -0.1200000    0.0600000   2.494471e-04  1.671101e-07
    227    262   2   0.50000    -0.1200000    0.0600000   2.494471e-04  1.671101e-07
    229    253   2   0.50000    -0.4000000    0.1700000   8.411158e-04  8.795366e-07
    229    261   2   0.50000    -0.4000000    0.0600000   2.066619e-04  7.875431e-08
    229    262   2   0.50000    -0.4000000    0.0600000   2.066619e-04  7.875431e-08
    238    253   2   0.50000     0.0300000    0.1700000   2.494471e-04  1.671101e-07
    238    261   2   0.50000     0.0300000    0.0600000   6.128906e-05  1.496315e-08
    238    262   2   0.50000     0.0300000    0.0600000   6.128906e-05  1.496315e-08
    228    231   2   0.50000     0.1700000   -0.1200000   1.015252e-03  1.866303e-06
    228    239   2   0.50000     0.1700000    0.0300000   2.494471e-04  1.671101e-07
    228    240   2   0.50000     0.1700000    0.0300000   2.494471e-04  1.671101e-07
    229    232   2   0.50000    -0.4000000   -0.1200000   8.411158e-04  8.795366e-07
    229    241   2   0.50000    -0.4000000    0.0600000   2.066619e-04  7.875431e-08
    229    242   2   0.50000    -0.4000000    0.0600000   2.066619e-04  7.875431e-08
    239    232   2   0.50000     0.0300000   -0.1200000   2.494471e-04  1.671101e-07
    239    241   2   0.50000     0.0300000    0.0600000   6.128906e-05  1.496315e-08
    239    242   2   0.50000     0.0300000    0.0600000   6.128906e-05  1.496315e-08
    240    232   2   0.50000     0.0300000   -0.1200000   2.494471e-04  1.671101e-07
    240    241   2   0.50000     0.0300000    0.0600000   6.128906e-05  1.496315e-08
    240    242   2   0.50000     0.0300000    0.0600000   6.128906e-05  1.496315e-08
    230    233   2   0.50000     0.1400000   -0.1200000   1.015252e-03  1.866303e-06
    230    243   2   0.50000     0.1400000    0.0600000   2.494471e-04  1.671101e-07
    230    244   2   0.50000     0.1400000    0.0600000   2.494471e-04  1.671101e-07
    241    233   2   0.50000     0.0600000   -0.1200000   2.494471e-04  1.671101e-07
    241    243   2   0.50000     0.0600000    0.0600000   6.128906e-05  1.496315e-08
    241    244   2   0.50000     0.0600000    0.0600000   6.128906e-05  1.496315e-08
    242    233   2   0.50000     0.0600000   -0.1200000   2.494471e-04  1.671101e-07
    242    243   2   0.50000     0.0600000    0.0600000   6.128906e-05  1.496315e-08
    242    244   2   0.50000     0.0600000    0.0600000   6.128906e-05  1.496315e-08
    231    234   2   0.50000    -0.1200000   -0.1200000   1.015252e-03  1.866303e-06
    231    245   2   0.50000    -0.1200000    0.0600000   2.494471e-04  1.671101e-07
    231    246   2   0.50000    -0.1200000    0.0600000   2.494471e-04  1.671101e-07
    243    234   2   0.50000     0.0600000   -0.1200000   2.494471e-04  1.671101e-07
    243    245   2   0.50000     0.0600000    0.0600000   6.128906e-05  1.496315e-08
    243    246   2   0.50000     0.0600000    0.0600000   6.128906e-05  1.496315e-08
    244    234   2   0.50000     0.0600000   -0.1200000   2.494471e-04  1.671101e-07
    244    245   2   0.50000     0.0600000    0.0600000   6.128906e-05  1.496315e-08
    244    246   2   0.50000     0.0600000    0.0600000   6.128906e-05  1.496315e-08
    232    235   2   0.50000    -0.1200000   -0.1800000   1.015252e-03  1.866303e-06
    232    247   2   0.50000    -0.1200000    0.0600000   2.494471e-04  1.671101e-07
    232    248   2   0.50000    -0.1200000    0.0600000   2.494471e-04  1.671101e-07
    245    235   2   0.50000     0.0600000   -0.1800000   2.494471e-04  1.671101e-07
    245    247   2   0.50000     0.0600000    0.0600000   6.128906e-05  1.496315e-08
    245    248   2   0.50000     0.0600000    0.0600000   6.128906e-05  1.496315e-08
    246    235   2   0.50000     0.0600000   -0.1800000   2.494471e-04  1.671101e-07
    246    247   2   0.50000     0.0600000    0.0600000   6.128906e-05  1.496315e-08
    246    248   2   0.50000     0.0600000    0.0600000   6.128906e-05  1.496315e-08
    233    249   2   0.50000    -0.1200000    0.0600000   2.494471e-04  1.671101e-07
    233    250   2   0.50000    -0.1200000    0.0600000   2.494471e-04  1.671101e-07
    233    251   2   0.50000    -0.1200000    0.0600000   2.494471e-04  1.671101e-07
    247    249   2   0.50000     0.0600000    0.0600000   6.128906e-05  1.496315e-08
    247    250   2   0.50000     0.0600000    0.0600000   6.128906e-05  1.496315e-08
    247    251   2   0.50000     0.0600000    0.0600000   6.128906e-05  1.496315e-08
    248    249   2   0.50000     0.0600000    0.0600000   6.128906e-05  1.496315e-08
    248    250   2   0.50000     0.0600000    0.0600000   6.128906e-05  1.496315e-08
    248    251   2   0.50000     0.0600000    0.0600000   6.128906e-05  1.496315e-08
    228    254   2   0.50000     0.1700000   -0.4000000   8.411158e-04  8.795366e-07
    228    263   2   0.50000     0.1700000    0.0300000   2.494471e-04  1.671101e-07
    228    277   2   0.50000     0.1700000   -0.1200000   1.015252e-03  1.866303e-06
    261    254   2   0.50000     0.0600000   -0.4000000   2.066619e-04  7.875431e-08
    261    263   2   0.50000     0.0600000    0.0300000   6.128906e-05  1.496315e-08
    261    277   2   0.50000     0.0600000   -0.1200000   2.494471e-04  1.671101e-07
    262    254   2   0.50000     0.0600000   -0.4000000   2.066619e-04  7.875431e-08
    262    263   2   0.50000     0.0600000    0.0300000   6.128906e-05  1.496315e-08
    262    277   2   0.50000     0.0600000   -0.1200000   2.494471e-04  1.671101e-07
    252    255   2   0.50000    -0.1200000    0.1400000   1.015252e-03  1.866303e-06
    263    255   2   0.50000     0.0300000    0.1400000   2.494471e-04  1.671101e-07
    277    255   2   0.50000    -0.1200000    0.1400000   1.015252e-03  1.866303e-06
    252    278   2   0.50000    -0.1200000    0.1700000   1.015252e-03  1.866303e-06
    252    286   2   0.50000    -0.1200000    0.0600000   2.494471e-04  1.671101e-07
    252    287   2   0.50000    -0.1200000    0.0600000   2.494471e-04  1.671101e-07
    254    278   2   0.50000    -0.4000000    0.1700000   8.411158e-04  8.795366e-07
    254    286   2   0.50000    -0.4000000    0.0600000   2.066619e-04  7.875431e-08
    254    287   2   0.50000    -0.4000000    0.0600000   2.066619e-04  7.875431e-08
    263    278   2   0.50000     0.0300000    0.1700000   2.494471e-04  1.671101e-07
    263    286   2   0.50000     0.0300000    0.0600000   6.128906e-05  1.496315e-08
    263    287   2   0.50000     0.0300000    0.0600000   6.128906e-05  1.496315e-08
    253    256   2   0.50000     0.1700000   -0.1200000   1.015252e-03  1.866303e-06
    253    264   2   0.50000     0.1700000    0.0300000   2.494471e-04  1.671101e-07
    253    265   2   0.50000     0.1700000    0.0300000   2.494471e-04  1.671101e-07
    254    257   2   0.50000    -0.4000000   -0.1200000   8.411158e-04  8.795366e-07
    254    266   2   0.50000    -0.4000000    0.0600000   2.066619e-04  7.875431e-08
    254    267   2   0.50000    -0.4000000    0.0600000   2.066619e-04  7.875431e-08
    264    257   2   0.50000     0.0300000   -0.1200000   2.494471e-04  1.671101e-07
    264    266   2   0.50000     0.0300000    0.0600000   6.128906e-05  1.496315e-08
    264    267   2   0.50000     0.0300000    0.0600000   6.128906e-05  1.496315e-08
    265    257   2   0.50000     0.0300000   -0.1200000   2.494471e-04  1.671101e-07
    265    266   2   0.50000     0.0300000    0.0600000   6.128906e-05  1.496315e-08
    265    267   2   0.50000     0.0300000    0.0600000   6.128906e-05  1.496315e-08
    255    258   2   0.50000     0.1400000   -0.1200000   1.015252e-03  1.866303e-06
    255    268   2   0.50000     0.1400000    0.0600000   2.494471e-04  1.671101e-07
    255    269   2   0.50000     0.1400000    0.0600000   2.494471e-04  1.671101e-07
    266    258   2   0.50000     0.0600000   -0.1200000   2.494471e-04  1.671101e-07
    266    268   2   0.50000     0.0600000    0.0600000   6.128906e-05  1.496315e-08
    266    269   2   0.50000     0.0600000    0.0600000   6.128906e-05  1.496315e-08
    267    258   2   0.50000     0.0600000   -0.1200000   2.494471e-04  1.671101e-07
    267    268   2   0.50000     0.0600000    0.0600000   6.128906e-05  1.496315e-08
    267    269   2   0.50000     0.0600000    0.0600000   6.128906e-05  1.496315e-08
    256    259   2   0.50000    -0.1200000   -0.1200000   1.015252e-03  1.866303e-06
    256    270   2   0.50000    -0.1200000    0.0600000   2.494471e-04  1.671101e-07
    256    271   2   0.50000    -0.1200000    0.0600000   2.494471e-04  1.671101e-07
    268    259   2   0.50000     0.0600000   -0.1200000   2.494471e-04  1.671101e-07
    268    270   2   0.50000     0.0600000    0.0600000   6.128906e-05  1.496315e-08
    268    271   2   0.50000     0.0600000    0.0600000   6.128906e-05  1.496315e-08
    269    259   2   0.50000     0.0600000   -0.1200000   2.494471e-04  1.671101e-07
    269    270   2   0.50000     0.0600000    0.0600000   6.128906e-05  1.496315e-08
    269    271   2   0.50000     0.0600000    0.0600000   6.128906e-05  1.496315e-08
    257    260   2   0.50000    -0.1200000   -0.1800000   1.015252e-03  1.866303e-06
    257    272   2   0.50000    -0.1200000    0.0600000   2.494471e-04  1.671101e-07
    257    273   2   0.50000    -0.1200000    0.0600000   2.494471e-04  1.671101e-07
    270    260   2   0.50000     0.0600000   -0.1800000   2.494471e-04  1.671101e-07
    270    272   2   0.50000     0.0600000    0.0600000   6.128906e-05  1.496315e-08
    270    273   2   0.50000     0.0600000    0.0600000   6.128906e-05  1.496315e-08
    271    260   2   0.50000     0.0600000   -0.1800000   2.494471e-04  1.671101e-07
    271    272   2   0.50000     0.0600000    0.0600000   6.128906e-05  1.496315e-08
    271    273   2   0.50000     0.0600000    0.0600000   6.128906e-05  1.496315e-08
    258    274   2   0.50000    -0.1200000    0.0600000   2.494471e-04  1.671101e-07
    258    275   2   0.50000    -0.1200000    0.0600000   2.494471e-04  1.671101e-07
    258    276   2   0.50000    -0.1200000    0.0600000   2.494471e-04  1.671101e-07
    272    274   2   0.50000     0.0600000    0.0600000   6.128906e-05  1.496315e-08
    272    275   2   0.50000     0.0600000    0.0600000   6.128906e-05  1.496315e-08
    272    276   2   0.50000     0.0600000    0.0600000   6.128906e-05  1.496315e-08
    273    274   2   0.50000     0.0600000    0.0600000   6.128906e-05  1.496315e-08
    273    275   2   0.50000     0.0600000    0.0600000   6.128906e-05  1.496315e-08
    273    276   2   0.50000     0.0600000    0.0600000   6.128906e-05  1.496315e-08
    253    279   2   0.50000     0.1700000   -0.4000000   8.411158e-04  8.795366e-07
    253    288   2   0.50000     0.1700000    0.0300000   2.494471e-04  1.671101e-07
    253    302   2   0.50000     0.1700000   -0.1200000   1.015252e-03  1.866303e-06
    286    279   2   0.50000     0.0600000   -0.4000000   2.066619e-04  7.875431e-08
    286    288   2   0.50000     0.0600000    0.0300000   6.128906e-05  1.496315e-08
    286    302   2   0.50000     0.0600000   -0.1200000   2.494471e-04  1.671101e-07
    287    279   2   0.50000     0.0600000   -0.4000000   2.066619e-04  7.875431e-08
    287    288   2   0.50000     0.0600000    0.0300000   6.128906e-05  1.496315e-08
    287    302   2   0.50000     0.0600000   -0.1200000   2.494471e-04  1.671101e-07
    277    280   2   0.50000    -0.1200000    0.1400000   1.015252e-03  1.866303e-06
    288    280   2   0.50000     0.0300000    0.1400000   2.494471e-04  1.671101e-07
    302    280   2   0.50000    -0.1200000    0.1400000   1.015252e-03  1.866303e-06
    277    303   2   0.50000    -0.1200000    0.1700000   1.015252e-03  1.866303e-06
    277    311   2   0.50000    -0.1200000    0.0600000   2.494471e-04  1.671101e-07
    277    312   2   0.50000    -0.1200000    0.0600000   2.494471e-04  1.671101e-07
    279    303   2   0.50000    -0.4000000    0.1700000   8.411158e-04  8.795366e-07
    279    311   2   0.50000    -0.4000000    0.0600000   2.066619e-04  7.875431e-08
    279    312   2   0.50000    -0.4000000    0.0600000   2.066619e-04  7.875431e-08
    288    303   2   0.50000     0.0300000    0.1700000   2.494471e-04  1.671101e-07
    288    311   2   0.50000     0.0300000    0.0600000   6.128906e-05  1.496315e-08
    288    312   2   0.50000     0.0300000    0.0600000   6.128906e-05  1.496315e-08
    278    281   2   0.50000     0.1700000   -0.1200000   1.015252e-03  1.866303e-06
    278    289   2   0.50000     0.1700000    0.0300000   2.494471e-04  1.671101e-07
    278    290   2   0.50000     0.1700000    0.0300000   2.494471e-04  1.671101e-07
    279    282   2   0.50000    -0.4000000   -0.1200000   8.411158e-04  8.795366e-07
    279    291   2   0.50000    -0.4000000    0.0600000   2.066619e-04  7.875431e-08
    279    292   2   0.50000    -0.4000000    0.0600000   2.066619e-04  7.875431e-08
    289    282   2   0.50000     0.0300000   -0.1200000   2.494471e-04  1.671101e-07
    289    291   2   0.50000     0.0300000    0.0600000   6.128906e-05  1.496315e-08
    289    292   2   0.50000     0.0300000    0.0600000   6.128906e-05  1.496315e-08
    290    282   2   0.50000     0.0300000   -0.1200000   2.494471e-04  1.671101e-07
    290    291   2   0.50000     0.0300000    0.0600000   6.128906e-05  1.496315e-08
    290    292   2   0.50000     0.0300000    0.0600000   6.128906e-05  1.496315e-08
    280    283   2   0.50000     0.1400000   -0.1200000   1.015252e-03  1.866303e-06
    280    293   2   0.50000     0.1400000    0.0600000   2.494471e-04  1.671101e-07
    280    294   2   0.50000     0.1400000    0.0600000   2.494471e-04  1.671101e-07
    291    283   2   0.50000     0.0600000   -0.1200000   2.494471e-04  1.671101e-07
    291    293   2   0.50000     0.0600000    0.0600000   6.128906e-05  1.496315e-08
    291    294   2   0.50000     0.0600000    0.0600000   6.128906e-05  1.496315e-08
    292    283   2   0.50000     0.0600000   -0.1200000   2.494471e-04  1.671101e-07
    292    293   2   0.50000     0.0600000    0.0600000   6.128906e-05  1.496315e-08
    292    294   2   0.50000     0.0600000    0.0600000   6.128906e-05  1.496315e-08
    281    284   2   0.50000    -0.1200000   -0.1200000   1.015252e-03  1.866303e-06
    281    295   2   0.50000    -0.1200000    0.0600000   2.494471e-04  1.671101e-07
    281    296   2   0.50000    -0.1200000    0.0600000   2.494471e-04  1.671101e-07
    293    284   2   0.50000     0.0600000   -0.1200000   2.494471e-04  1.671101e-07
    293    295   2   0.50000     0.0600000    0.0600000   6.128906e-05  1.496315e-08
    293    296   2   0.50000     0.0600000    0.0600000   6.128906e-05  1.496315e-08
    294    284   2   0.50000     0.0600000   -0.1200000   2.494471e-04  1.671101e-07
    294    295   2   0.50000     0.0600000    0.0600000   6.128906e-05  1.496315e-08
    294    296   2   0.50000     0.0600000    0.0600000   6.128906e-05  1.496315e-08
    282    285   2   0.50000    -0.1200000   -0.1800000   1.015252e-03  1.866303e-06
    282    297   2   0.50000    -0.1200000    0.0600000   2.494471e-04  1.671101e-07
    282    298   2   0.50000    -0.1200000    0.0600000   2.494471e-04  1.671101e-07
    295    285   2   0.50000     0.0600000   -0.1800000   2.494471e-04  1.671101e-07
    295    297   2   0.50000     0.0600000    0.0600000   6.128906e-05  1.496315e-08
    295    298   2   0.50000     0.0600000    0.0600000   6.128906e-05  1.496315e-08
    296    285   2   0.50000     0.0600000   -0.1800000   2.494471e-04  1.671101e-07
    296    297   2   0.50000     0.0600000    0.0600000   6.128906e-05  1.496315e-08
    296    298   2   0.50000     0.0600000    0.0600000   6.128906e-05  1.496315e-08
    283    299   2   0.50000    -0.1200000    0.0600000   2.494471e-04  1.671101e-07
    283    300   2   0.50000    -0.1200000    0.0600000   2.494471e-04  1.671101e-07
    283    301   2   0.50000    -0.1200000    0.0600000   2.494471e-04  1.671101e-07
    297    299   2   0.50000     0.0600000    0.0600000   6.128906e-05  1.496315e-08
    297    300   2   0.50000     0.0600000    0.0600000   6.128906e-05  1.496315e-08
    297    301   2   0.50000     0.0600000    0.0600000   6.128906e-05  1.496315e-08
    298    299   2   0.50000     0.0600000    0.0600000   6.128906e-05  1.496315e-08
    298    300   2   0.50000     0.0600000    0.0600000   6.128906e-05  1.496315e-08
    298    301   2   0.50000     0.0600000    0.0600000   6.128906e-05  1.496315e-08
    278    304   2   0.50000     0.1700000   -0.4000000   8.411158e-04  8.795366e-07
    278    313   2   0.50000     0.1700000    0.0300000   2.494471e-04  1.671101e-07
    278    327   2   0.50000     0.1700000   -0.1200000   1.015252e-03  1.866303e-06
    311    304   2   0.50000     0.0600000   -0.4000000   2.066619e-04  7.875431e-08
    311    313   2   0.50000     0.0600000    0.0300000   6.128906e-05  1.496315e-08
    311    327   2   0.50000     0.0600000   -0.1200000   2.494471e-04  1.671101e-07
    312    304   2   0.50000     0.0600000   -0.4000000   2.066619e-04  7.875431e-08
    312    313   2   0.50000     0.0600000    0.0300000   6.128906e-05  1.496315e-08
    312    327   2   0.50000     0.0600000   -0.1200000   2.494471e-04  1.671101e-07
    302    305   2   0.50000    -0.1200000    0.1400000   1.015252e-03  1.866303e-06
    313    305   2   0.50000     0.0300000    0.1400000   2.494471e-04  1.671101e-07
    327    305   2   0.50000    -0.1200000    0.1400000   1.015252e-03  1.866303e-06
    302    328   2   0.50000    -0.1200000    0.1700000   1.015252e-03  1.866303e-06
    302    336   2   0.50000    -0.1200000    0.0600000   2.494471e-04  1.671101e-07
    302    337   2   0.50000    -0.1200000    0.0600000   2.494471e-04  1.671101e-07
    304    328   2   0.50000    -0.4000000    0.1700000   8.411158e-04  8.795366e-07
    304    336   2   0.50000    -0.4000000    0.0600000   2.066619e-04  7.875431e-08
    304    337   2   0.50000    -0.4000000    0.0600000   2.066619e-04  7.875431e-08
    313    328   2   0.50000     0.0300000    0.1700000   2.494471e-04  1.671101e-07
    313    336   2   0.50000     0.0300000    0.0600000   6.128906e-05  1.496315e-08
    313    337   2   0.50000     0.0300000    0.0600000   6.128906e-05  1.496315e-08
    303    306   2   0.50000     0.1700000   -0.1200000   1.015252e-03  1.866303e-06
    303    314   2   0.50000     0.1700000    0.0300000   2.494471e-04  1.671101e-07
    303    315   2   0.50000     0.1700000    0.0300000   2.494471e-04  1.671101e-07
    304    307   2   0.50000    -0.4000000   -0.1200000   8.411158e-04  8.795366e-07
    304    316   2   0.50000    -0.4000000    0.0600000   2.066619e-04  7.875431e-08
    304    317   2   0.50000    -0.4000000    0.0600000   2.066619e-04  7.875431e-08
    314    307   2   0.50000     0.0300000   -0.1200000   2.494471e-04  1.671101e-07
    314    316   2   0.50000     0.0300000    0.0600000   6.128906e-05  1.496315e-08
    314    317   2   0.50000     0.0300000    0.0600000   6.128906e-05  1.496315e-08
    315    307   2   0.50000     0.0300000   -0.1200000   2.494471e-04  1.671101e-07
    315    316   2   0.50000     0.0300000    0.0600000   6.128906e-05  1.496315e-08
    315    317   2   0.50000     0.0300000    0.0600000   6.128906e-05  1.496315e-08
    305    308   2   0.50000     0.1400000   -0.1200000   1.015252e-03  1.866303e-06
    305    318   2   0.50000     0.1400000    0.0600000   2.494471e-04  1.671101e-07
    305    319   2   0.50000     0.1400000    0.0600000   2.494471e-04  1.671101e-07
    316    308   2   0.50000     0.0600000   -0.1200000   2.494471e-04  1.671101e-07
    316    318   2   0.50000     0.0600000    0.0600000   6.128906e-05  1.496315e-08
    316    319   2   0.50000     0.0600000    0.0600000   6.128906e-05  1.496315e-08
    317    308   2   0.50000     0.0600000   -0.1200000   2.494471e-04  1.671101e-07
    317    318   2   0.50000     0.0600000    0.0600000   6.128906e-05  1.496315e-08
    317    319   2   0.50000     0.0600000    0.0600000   6.128906e-05  1.496315e-08
    306    309   2   0.50000    -0.1200000   -0.1200000   1.015252e-03  1.866303e-06
    306    320   2   0.50000    -0.1200000    0.0600000   2.494471e-04  1.671101e-07
    306    321   2   0.50000    -0.1200000    0.0600000   2.494471e-04  1.671101e-07
    318    309   2   0.50000     0.0600000   -0.1200000   2.494471e-04  1.671101e-07
    318    320   2   0.50000     0.0600000    0.0600000   6.128906e-05  1.496315e-08
    318    321   2   0.50000     0.0600000    0.0600000   6.128906e-05  1.496315e-08
    319    309   2   0.50000     0.0600000   -0.1200000   2.494471e-04  1.671101e-07
    319    320   2   0.50000     0.0600000    0.0600000   6.128906e-05  1.496315e-08
    319    321   2   0.50000     0.0600000    0.0600000   6.128906e-05  1.496315e-08
    307    310   2   0.50000    -0.1200000   -0.1800000   1.015252e-03  1.866303e-06
    307    322   2   0.50000    -0.1200000    0.0600000   2.494471e-04  1.671101e-07
    307    323   2   0.50000    -0.1200000    0.0600000   2.494471e-04  1.671101e-07
    320    310   2   0.50000     0.0600000   -0.1800000   2.494471e-04  1.671101e-07
    320    322   2   0.50000     0.0600000    0.0600000   6.128906e-05  1.496315e-08
    320    323   2   0.50000     0.0600000    0.0600000   6.128906e-05  1.496315e-08
    321    310   2   0.50000     0.0600000   -0.1800000   2.494471e-04  1.671101e-07
    321    322   2   0.50000     0.0600000    0.0600000   6.128906e-05  1.496315e-08
    321    323   2   0.50000     0.0600000    0.0600000   6.128906e-05  1.496315e-08
    308    324   2   0.50000    -0.1200000    0.0600000   2.494471e-04  1.671101e-07
    308    325   2   0.50000    -0.1200000    0.0600000   2.494471e-04  1.671101e-07
    308    326   2   0.50000    -0.1200000    0.0600000   2.494471e-04  1.671101e-07
    322    324   2   0.50000     0.0600000    0.0600000   6.128906e-05  1.496315e-08
    322    325   2   0.50000     0.0600000    0.0600000   6.128906e-05  1.496315e-08
    322    326   2   0.50000     0.0600000    0.0600000   6.128906e-05  1.496315e-08
    323    324   2   0.50000     0.0600000    0.0600000   6.128906e-05  1.496315e-08
    323    325   2   0.50000     0.0600000    0.0600000   6.128906e-05  1.496315e-08
    323    326   2   0.50000     0.0600000    0.0600000   6.128906e-05  1.496315e-08
    303    329   2   0.50000     0.1700000   -0.4000000   8.411158e-04  8.795366e-07
    303    338   2   0.50000     0.1700000    0.0300000   2.494471e-04  1.671101e-07
    303    352   2   0.50000     0.1700000   -0.1200000   1.015252e-03  1.866303e-06
    336    329   2   0.50000     0.0600000   -0.4000000   2.066619e-04  7.875431e-08
    336    338   2   0.50000     0.0600000    0.0300000   6.128906e-05  1.496315e-08
    336    352   2   0.50000     0.0600000   -0.1200000   2.494471e-04  1.671101e-07
    337    329   2   0.50000     0.0600000   -0.4000000   2.066619e-04  7.875431e-08
    337    338   2   0.50000     0.0600000    0.0300000   6.128906e-05  1.496315e-08
    337    352   2   0.50000     0.0600000   -0.1200000   2.494471e-04  1.671101e-07
    327    330   2   0.50000    -0.1200000    0.1400000   1.015252e-03  1.866303e-06
    338    330   2   0.50000     0.0300000    0.1400000   2.494471e-04  1.671101e-07
    352    330   2   0.50000    -0.1200000    0.1400000   1.015252e-03  1.866303e-06
    327    353   2   0.50000    -0.1200000    0.1700000   1.015252e-03  1.866303e-06
    327    361   2   0.50000    -0.1200000    0.0600000   2.494471e-04  1.671101e-07
    327    362   2   0.50000    -0.1200000    0.0600000   2.494471e-04  1.671101e-07
    329    353   2   0.50000    -0.4000000    0.1700000   8.411158e-04  8.795366e-07
    329    361   2   0.50000    -0.4000000    0.0600000   2.066619e-04  7.875431e-08
    329    362   2   0.50000    -0.4000000    0.0600000   2.066619e-04  7.875431e-08
    338    353   2   0.50000     0.0300000    0.1700000   2.494471e-04  1.671101e-07
    338    361   2   0.50000     0.0300000    0.0600000   6.128906e-05  1.496315e-08
    338    362   2   0.50000     0.0300000    0.0600000   6.128906e-05  1.496315e-08
    328    331   2   0.50000     0.1700000   -0.1200000   1.015252e-03  1.866303e-06
    328    339   2   0.50000     0.1700000    0.0300000   2.494471e-04  1.671101e-07
    328    340   2   0.50000     0.1700000    0.0300000   2.494471e-04  1.671101e-07
    329    332   2   0.50000    -0.4000000   -0.1200000   8.411158e-04  8.795366e-07
    329    341   2   0.50000    -0.4000000    0.0600000   2.066619e-04  7.875431e-08
    329    342   2   0.50000    -0.4000000    0.0600000   2.066619e-04  7.875431e-08
    339    332   2   0.50000     0.0300000   -0.1200000   2.494471e-04  1.671101e-07
    339    341   2   0.50000     0.0300000    0.0600000   6.128906e-05  1.496315e-08
    339    342   2   0.50000     0.0300000    0.0600000   6.128906e-05  1.496315e-08
    340    332   2   0.50000     0.0300000   -0.1200000   2.494471e-04  1.671101e-07
    340    341   2   0.50000     0.0300000    0.0600000   6.128906e-05  1.496315e-08
    340    342   2   0.50000     0.0300000    0.0600000   6.128906e-05  1.496315e-08
    330    333   2   0.50000     0.1400000   -0.1200000   1.015252e-03  1.866303e-06
    330    343   2   0.50000     0.1400000    0.0600000   2.494471e-04  1.671101e-07
    330    344   2   0.50000     0.1400000    0.0600000   2.494471e-04  1.671101e-07
    341    333   2   0.50000     0.0600000   -0.1200000   2.494471e-04  1.671101e-07
    341    343   2   0.50000     0.0600000    0.0600000   6.128906e-05  1.496315e-08
    341    344   2   0.50000     0.0600000    0.0600000   6.128906e-05  1.496315e-08
    342    333   2   0.50000     0.0600000   -0.1200000   2.494471e-04  1.671101e-07
    342    343   2   0.50000     0.0600000    0.0600000   6.128906e-05  1.496315e-08
    342    344   2   0.50000     0.0600000    0.0600000   6.128906e-05  1.496315e-08
    331    334   2   0.50000    -0.1200000   -0.1200000   1.015252e-03  1.866303e-06
    331    345   2   0.50000    -0.1200000    0.0600000   2.494471e-04  1.671101e-07
    331    346   2   0.50000    -0.1200000    0.0600000   2.494471e-04  1.671101e-07
    343    334   2   0.50000     0.0600000   -0.1200000   2.494471e-04  1.671101e-07
    343    345   2   0.50000     0.0600000    0.0600000   6.128906e-05  1.496315e-08
    343    346   2   0.50000     0.0600000    0.0600000   6.128906e-05  1.496315e-08
    344    334   2   0.50000     0.0600000   -0.1200000   2.494471e-04  1.671101e-07
    344    345   2   0.50000     0.0600000    0.0600000   6.128906e-05  1.496315e-08
    344    346   2   0.50000     0.0600000    0.0600000   6.128906e-05  1.496315e-08
    332    335   2   0.50000    -0.1200000   -0.1800000   1.015252e-03  1.866303e-06
    332    347   2   0.50000    -0.1200000    0.0600000   2.494471e-04  1.671101e-07
    332    348   2   0.50000    -0.1200000    0.0600000   2.494471e-04  1.671101e-07
    345    335   2   0.50000     0.0600000   -0.1800000   2.494471e-04  1.671101e-07
    345    347   2   0.50000     0.0600000    0.0600000   6.128906e-05  1.496315e-08
    345    348   2   0.50000     0.0600000    0.0600000   6.128906e-05  1.496315e-08
    346    335   2   0.50000     0.0600000   -0.1800000   2.494471e-04  1.671101e-07
    346    347   2   0.50000     0.0600000    0.0600000   6.128906e-05  1.496315e-08
    346    348   2   0.50000     0.0600000    0.0600000   6.128906e-05  1.496315e-08
    333    349   2   0.50000    -0.1200000    0.0600000   2.494471e-04  1.671101e-07
    333    350   2   0.50000    -0.1200000    0.0600000   2.494471e-04  1.671101e-07
    333    351   2   0.50000    -0.1200000    0.0600000   2.494471e-04  1.671101e-07
    347    349   2   0.50000     0.0600000    0.0600000   6.128906e-05  1.496315e-08
    347    350   2   0.50000     0.0600000    0.0600000   6.128906e-05  1.496315e-08
    347    351   2   0.50000     0.0600000    0.0600000   6.128906e-05  1.496315e-08
    348    349   2   0.50000     0.0600000    0.0600000   6.128906e-05  1.496315e-08
    348    350   2   0.50000     0.0600000    0.0600000   6.128906e-05  1.496315e-08
    348    351   2   0.50000     0.0600000    0.0600000   6.128906e-05  1.496315e-08
    328    354   2   0.50000     0.1700000   -0.4000000   8.411158e-04  8.795366e-07
    328    363   2   0.50000     0.1700000    0.0300000   2.494471e-04  1.671101e-07
    328    377   2   0.50000     0.1700000   -0.1200000   1.015252e-03  1.866303e-06
    361    354   2   0.50000     0.0600000   -0.4000000   2.066619e-04  7.875431e-08
    361    363   2   0.50000     0.0600000    0.0300000   6.128906e-05  1.496315e-08
    361    377   2   0.50000     0.0600000   -0.1200000   2.494471e-04  1.671101e-07
    362    354   2   0.50000     0.0600000   -0.4000000   2.066619e-04  7.875431e-08
    362    363   2   0.50000     0.0600000    0.0300000   6.128906e-05  1.496315e-08
    362    377   2   0.50000     0.0600000   -0.1200000   2.494471e-04  1.671101e-07
    352    355   2   0.50000    -0.1200000    0.1400000   1.015252e-03  1.866303e-06
    363    355   2   0.50000     0.0300000    0.1400000   2.494471e-04  1.671101e-07
    377    355   2   0.50000    -0.1200000    0.1400000   1.015252e-03  1.866303e-06
    352    378   2   0.50000    -0.1200000    0.1700000   1.015252e-03  1.866303e-06
    352    386   2   0.50000    -0.1200000    0.0600000   2.494471e-04  1.671101e-07
    352    387   2   0.50000    -0.1200000    0.0600000   2.494471e-04  1.671101e-07
    354    378   2   0.50000    -0.4000000    0.1700000   8.411158e-04  8.795366e-07
    354    386   2   0.50000    -0.4000000    0.0600000   2.066619e-04  7.875431e-08
    354    387   2   0.50000    -0.4000000    0.0600000   2.066619e-04  7.875431e-08
    363    378   2   0.50000     0.0300000    0.1700000   2.494471e-04  1.671101e-07
    363    386   2   0.50000     0.0300000    0.0600000   6.128906e-05  1.496315e-08
    363    387   2   0.50000     0.0300000    0.0600000   6.128906e-05  1.496315e-08
    353    356   2   0.50000     0.1700000   -0.1200000   1.015252e-03  1.866303e-06
    353    364   2   0.50000     0.1700000    0.0300000   2.494471e-04  1.671101e-07
    353    365   2   0.50000     0.1700000    0.0300000   2.494471e-04  1.671101e-07
    354    357   2   0.50000    -0.4000000   -0.1200000   8.411158e-04  8.795366e-07
    354    366   2   0.50000    -0.4000000    0.0600000   2.066619e-04  7.875431e-08
    354    367   2   0.50000    -0.4000000    0.0600000   2.066619e-04  7.875431e-08
    364    357   2   0.50000     0.0300000   -0.1200000   2.494471e-04  1.671101e-07
    364    366   2   0.50000     0.0300000    0.0600000   6.128906e-05  1.496315e-08
    364    367   2   0.50000     0.0300000    0.0600000   6.128906e-05  1.496315e-08
    365    357   2   0.50000     0.0300000   -0.1200000   2.494471e-04  1.671101e-07
    365    366   2   0.50000     0.0300000    0.0600000   6.128906e-05  1.496315e-08
    365    367   2   0.50000     0.0300000    0.0600000   6.128906e-05  1.496315e-08
    355    358   2   0.50000     0.1400000   -0.1200000   1.015252e-03  1.866303e-06
    355    368   2   0.50000     0.1400000    0.0600000   2.494471e-04  1.671101e-07
    355    369   2   0.50000     0.1400000    0.0600000   2.494471e-04  1.671101e-07
    366    358   2   0.50000     0.0600000   -0.1200000   2.494471e-04  1.671101e-07
    366    368   2   0.50000     0.0600000    0.0600000   6.128906e-05  1.496315e-08
    366    369   2   0.50000     0.0600000    0.0600000   6.128906e-05  1.496315e-08
    367    358   2   0.50000     0.0600000   -0.1200000   2.494471e-04  1.671101e-07
    367    368   2   0.50000     0.0600000    0.0600000   6.128906e-05  1.496315e-08
    367    369   2   0.50000     0.0600000    0.0600000   6.128906e-05  1.496315e-08
    356    359   2   0.50000    -0.1200000   -0.1200000   1.015252e-03  1.866303e-06
    356    370   2   0.50000    -0.1200000    0.0600000   2.494471e-04  1.671101e-07
    356    371   2   0.50000    -0.1200000    0.0600000   2.494471e-04  1.671101e-07
    368    359   2   0.50000     0.0600000   -0.1200000   2.494471e-04  1.671101e-07
    368    370   2   0.50000     0.0600000    0.0600000   6.128906e-05  1.496315e-08
    368    371   2   0.50000     0.0600000    0.0600000   6.128906e-05  1.496315e-08
    369    359   2   0.50000     0.0600000   -0.1200000   2.494471e-04  1.671101e-07
    369    370   2   0.50000     0.0600000    0.0600000   6.128906e-05  1.496315e-08
    369    371   2   0.50000     0.0600000    0.0600000   6.128906e-05  1.496315e-08
    357    360   2   0.50000    -0.1200000   -0.1800000   1.015252e-03  1.866303e-06
    357    372   2   0.50000    -0.1200000    0.0600000   2.494471e-04  1.671101e-07
    357    373   2   0.50000    -0.1200000    0.0600000   2.494471e-04  1.671101e-07
    370    360   2   0.50000     0.0600000   -0.1800000   2.494471e-04  1.671101e-07
    370    372   2   0.50000     0.0600000    0.0600000   6.128906e-05  1.496315e-08
    370    373   2   0.50000     0.0600000    0.0600000   6.128906e-05  1.496315e-08
    371    360   2   0.50000     0.0600000   -0.1800000   2.494471e-04  1.671101e-07
    371    372   2   0.50000     0.0600000    0.0600000   6.128906e-05  1.496315e-08
    371    373   2   0.50000     0.0600000    0.0600000   6.128906e-05  1.496315e-08
    358    374   2   0.50000    -0.1200000    0.0600000   2.494471e-04  1.671101e-07
    358    375   2   0.50000    -0.1200000    0.0600000   2.494471e-04  1.671101e-07
    358    376   2   0.50000    -0.1200000    0.0600000   2.494471e-04  1.671101e-07
    372    374   2   0.50000     0.0600000    0.0600000   6.128906e-05  1.496315e-08
    372    375   2   0.50000     0.0600000    0.0600000   6.128906e-05  1.496315e-08
    372    376   2   0.50000     0.0600000    0.0600000   6.128906e-05  1.496315e-08
    373    374   2   0.50000     0.0600000    0.0600000   6.128906e-05  1.496315e-08
    373    375   2   0.50000     0.0600000    0.0600000   6.128906e-05  1.496315e-08
    373    376   2   0.50000     0.0600000    0.0600000   6.128906e-05  1.496315e-08
    353    379   2   0.50000     0.1700000   -0.4000000   8.411158e-04  8.795366e-07
    353    388   2   0.50000     0.1700000    0.0300000   2.494471e-04  1.671101e-07
    353    402   2   0.50000     0.1700000   -0.1200000   1.015252e-03  1.866303e-06
    386    379   2   0.50000     0.0600000   -0.4000000   2.066619e-04  7.875431e-08
    386    388   2   0.50000     0.0600000    0.0300000   6.128906e-05  1.496315e-08
    386    402   2   0.50000     0.0600000   -0.1200000   2.494471e-04  1.671101e-07
    387    379   2   0.50000     0.0600000   -0.4000000   2.066619e-04  7.875431e-08
    387    388   2   0.50000     0.0600000    0.0300000   6.128906e-05  1.496315e-08
    387    402   2   0.50000     0.0600000   -0.1200000   2.494471e-04  1.671101e-07
    377    380   2   0.50000    -0.1200000    0.1400000   1.015252e-03  1.866303e-06
    388    380   2   0.50000     0.0300000    0.1400000   2.494471e-04  1.671101e-07
    402    380   2   0.50000    -0.1200000    0.1400000   1.015252e-03  1.866303e-06
    377    403   2   0.50000    -0.1200000    0.1700000   1.015252e-03  1.866303e-06
    377    411   2   0.50000    -0.1200000    0.0600000   2.494471e-04  1.671101e-07
    377    412   2   0.50000    -0.1200000    0.0600000   2.494471e-04  1.671101e-07
    379    403   2   0.50000    -0.4000000    0.1700000   8.411158e-04  8.795366e-07
    379    411   2   0.50000    -0.4000000    0.0600000   2.066619e-04  7.875431e-08
    379    412   2   0.50000    -0.4000000    0.0600000   2.066619e-04  7.875431e-08
    388    403   2   0.50000     0.0300000    0.1700000   2.494471e-04  1.671101e-07
    388    411   2   0.50000     0.0300000    0.0600000   6.128906e-05  1.496315e-08
    388    412   2   0.50000     0.0300000    0.0600000   6.128906e-05  1.496315e-08
    378    381   2   0.50000     0.1700000   -0.1200000   1.015252e-03  1.866303e-06
    378    389   2   0.50000     0.1700000    0.0300000   2.494471e-04  1.671101e-07
    378    390   2   0.50000     0.1700000    0.0300000   2.494471e-04  1.671101e-07
    379    382   2   0.50000    -0.4000000   -0.1200000   8.411158e-04  8.795366e-07
    379    391   2   0.50000    -0.4000000    0.0600000   2.066619e-04  7.875431e-08
    379    392   2   0.50000    -0.4000000    0.0600000   2.066619e-04  7.875431e-08
    389    382   2   0.50000     0.0300000   -0.1200000   2.494471e-04  1.671101e-07
    389    391   2   0.50000     0.0300000    0.0600000   6.128906e-05  1.496315e-08
    389    392   2   0.50000     0.0300000    0.0600000   6.128906e-05  1.496315e-08
    390    382   2   0.50000     0.0300000   -0.1200000   2.494471e-04  1.671101e-07
    390    391   2   0.50000     0.0300000    0.0600000   6.128906e-05  1.496315e-08
    390    392   2   0.50000     0.0300000    0.0600000   6.128906e-05  1.496315e-08
    380    383   2   0.50000     0.1400000   -0.1200000   1.015252e-03  1.866303e-06
    380    393   2   0.50000     0.1400000    0.0600000   2.494471e-04  1.671101e-07
    380    394   2   0.50000     0.1400000    0.0600000   2.494471e-04  1.671101e-07
    391    383   2   0.50000     0.0600000   -0.1200000   2.494471e-04  1.671101e-07
    391    393   2   0.50000     0.0600000    0.0600000   6.128906e-05  1.496315e-08
    391    394   2   0.50000     0.0600000    0.0600000   6.128906e-05  1.496315e-08
    392    383   2   0.50000     0.0600000   -0.1200000   2.494471e-04  1.671101e-07
    392    393   2   0.50000     0.0600000    0.0600000   6.128906e-05  1.496315e-08
    392    394   2   0.50000     0.0600000    0.0600000   6.128906e-05  1.496315e-08
    381    384   2   0.50000    -0.1200000   -0.1200000   1.015252e-03  1.866303e-06
    381    395   2   0.50000    -0.1200000    0.0600000   2.494471e-04  1.671101e-07
    381    396   2   0.50000    -0.1200000    0.0600000   2.494471e-04  1.671101e-07
    393    384   2   0.50000     0.0600000   -0.1200000   2.494471e-04  1.671101e-07
    393    395   2   0.50000     0.0600000    0.0600000   6.128906e-05  1.496315e-08
    393    396   2   0.50000     0.0600000    0.0600000   6.128906e-05  1.496315e-08
    394    384   2   0.50000     0.0600000   -0.1200000   2.494471e-04  1.671101e-07
    394    395   2   0.50000     0.0600000    0.0600000   6.128906e-05  1.496315e-08
    394    396   2   0.50000     0.0600000    0.0600000   6.128906e-05  1.496315e-08
    382    385   2   0.50000    -0.1200000   -0.1800000   1.015252e-03  1.866303e-06
    382    397   2   0.50000    -0.1200000    0.0600000   2.494471e-04  1.671101e-07
    382    398   2   0.50000    -0.1200000    0.0600000   2.494471e-04  1.671101e-07
    395    385   2   0.50000     0.0600000   -0.1800000   2.494471e-04  1.671101e-07
    395    397   2   0.50000     0.0600000    0.0600000   6.128906e-05  1.496315e-08
    395    398   2   0.50000     0.0600000    0.0600000   6.128906e-05  1.496315e-08
    396    385   2   0.50000     0.0600000   -0.1800000   2.494471e-04  1.671101e-07
    396    397   2   0.50000     0.0600000    0.0600000   6.128906e-05  1.496315e-08
    396    398   2   0.50000     0.0600000    0.0600000   6.128906e-05  1.496315e-08
    383    399   2   0.50000    -0.1200000    0.0600000   2.494471e-04  1.671101e-07
    383    400   2   0.50000    -0.1200000    0.0600000   2.494471e-04  1.671101e-07
    383    401   2   0.50000    -0.1200000    0.0600000   2.494471e-04  1.671101e-07
    397    399   2   0.50000     0.0600000    0.0600000   6.128906e-05  1.496315e-08
    397    400   2   0.50000     0.0600000    0.0600000   6.128906e-05  1.496315e-08
    397    401   2   0.50000     0.0600000    0.0600000   6.128906e-05  1.496315e-08
    398    399   2   0.50000     0.0600000    0.0600000   6.128906e-05  1.496315e-08
    398    400   2   0.50000     0.0600000    0.0600000   6.128906e-05  1.496315e-08
    398    401   2   0.50000     0.0600000    0.0600000   6.128906e-05  1.496315e-08
    378    404   2   0.50000     0.1700000   -0.4000000   8.411158e-04  8.795366e-07
    378    413   2   0.50000     0.1700000    0.0300000   2.494471e-04  1.671101e-07
    378    427   2   0.50000     0.1700000   -0.1200000   1.015252e-03  1.866303e-06
    411    404   2   0.50000     0.0600000   -0.4000000   2.066619e-04  7.875431e-08
    411    413   2   0.50000     0.0600000    0.0300000   6.128906e-05  1.496315e-08
    411    427   2   0.50000     0.0600000   -0.1200000   2.494471e-04  1.671101e-07
    412    404   2   0.50000     0.0600000   -0.4000000   2.066619e-04  7.875431e-08
    412    413   2   0.50000     0.0600000    0.0300000   6.128906e-05  1.496315e-08
    412    427   2   0.50000     0.0600000   -0.1200000   2.494471e-04  1.671101e-07
    402    405   2   0.50000    -0.1200000    0.1400000   1.015252e-03  1.866303e-06
    413    405   2   0.50000     0.0300000    0.1400000   2.494471e-04  1.671101e-07
    427    405   2   0.50000    -0.1200000    0.1400000   1.015252e-03  1.866303e-06
    402    428   2   0.50000    -0.1200000    0.1700000   1.015252e-03  1.866303e-06
    402    436   2   0.50000    -0.1200000    0.0600000   2.494471e-04  1.671101e-07
    402    437   2   0.50000    -0.1200000    0.0600000   2.494471e-04  1.671101e-07
    404    428   2   0.50000    -0.4000000    0.1700000   8.411158e-04  8.795366e-07
    404    436   2   0.50000    -0.4000000    0.0600000   2.066619e-04  7.875431e-08
    404    437   2   0.50000    -0.4000000    0.0600000   2.066619e-04  7.875431e-08
    413    428   2   0.50000     0.0300000    0.1700000   2.494471e-04  1.671101e-07
    413    436   2   0.50000     0.0300000    0.0600000   6.128906e-05  1.496315e-08
    413    437   2   0.50000     0.0300000    0.0600000   6.128906e-05  1.496315e-08
    403    406   2   0.50000     0.1700000   -0.1200000   1.015252e-03  1.866303e-06
    403    414   2   0.50000     0.1700000    0.0300000   2.494471e-04  1.671101e-07
    403    415   2   0.50000     0.1700000    0.0300000   2.494471e-04  1.671101e-07
    404    407   2   0.50000    -0.4000000   -0.1200000   8.411158e-04  8.795366e-07
    404    416   2   0.50000    -0.4000000    0.0600000   2.066619e-04  7.875431e-08
    404    417   2   0.50000    -0.4000000    0.0600000   2.066619e-04  7.875431e-08
    414    407   2   0.50000     0.0300000   -0.1200000   2.494471e-04  1.671101e-07
    414    416   2   0.50000     0.0300000    0.0600000   6.128906e-05  1.496315e-08
    414    417   2   0.50000     0.0300000    0.0600000   6.128906e-05  1.496315e-08
    415    407   2   0.50000     0.0300000   -0.1200000   2.494471e-04  1.671101e-07
    415    416   2   0.50000     0.0300000    0.0600000   6.128906e-05  1.496315e-08
    415    417   2   0.50000     0.0300000    0.0600000   6.128906e-05  1.496315e-08
    405    408   2   0.50000     0.1400000   -0.1200000   1.015252e-03  1.866303e-06
    405    418   2   0.50000     0.1400000    0.0600000   2.494471e-04  1.671101e-07
    405    419   2   0.50000     0.1400000    0.0600000   2.494471e-04  1.671101e-07
    416    408   2   0.50000     0.0600000   -0.1200000   2.494471e-04  1.671101e-07
    416    418   2   0.50000     0.0600000    0.0600000   6.128906e-05  1.496315e-08
    416    419   2   0.50000     0.0600000    0.0600000   6.128906e-05  1.496315e-08
    417    408   2   0.50000     0.0600000   -0.1200000   2.494471e-04  1.671101e-07
    417    418   2   0.50000     0.0600000    0.0600000   6.128906e-05  1.496315e-08
    417    419   2   0.50000     0.0600000    0.0600000   6.128906e-05  1.496315e-08
    406    409   2   0.50000    -0.1200000   -0.1200000   1.015252e-03  1.866303e-06
    406    420   2   0.50000    -0.1200000    0.0600000   2.494471e-04  1.671101e-07
    406    421   2   0.50000    -0.1200000    0.0600000   2.494471e-04  1.671101e-07
    418    409   2   0.50000     0.0600000   -0.1200000   2.494471e-04  1.671101e-07
    418    420   2   0.50000     0.0600000    0.0600000   6.128906e-05  1.496315e-08
    418    421   2   0.50000     0.0600000    0.0600000   6.128906e-05  1.496315e-08
    419    409   2   0.50000     0.0600000   -0.1200000   2.494471e-04  1.671101e-07
    419    420   2   0.50000     0.0600000    0.0600000   6.128906e-05  1.496315e-08
    419    421   2   0.50000     0.0600000    0.0600000   6.128906e-05  1.496315e-08
    407    410   2   0.50000    -0.1200000   -0.1800000   1.015252e-03  1.866303e-06
    407    422   2   0.50000    -0.1200000    0.0600000   2.494471e-04  1.671101e-07
    407    423   2   0.50000    -0.1200000    0.0600000   2.494471e-04  1.671101e-07
    420    410   2   0.50000     0.0600000   -0.1800000   2.494471e-04  1.671101e-07
    420    422   2   0.50000     0.0600000    0.0600000   6.128906e-05  1.496315e-08
    420    423   2   0.50000     0.0600000    0.0600000   6.128906e-05  1.496315e-08
    421    410   2   0.50000     0.0600000   -0.1800000   2.494471e-04  1.671101e-07
    421    422   2   0.50000     0.0600000    0.0600000   6.128906e-05  1.496315e-08
    421    423   2   0.50000     0.0600000    0.0600000   6.128906e-05  1.496315e-08
    408    424   2   0.50000    -0.1200000    0.0600000   2.494471e-04  1.671101e-07
    408    425   2   0.50000    -0.1200000    0.0600000   2.494471e-04  1.671101e-07
    408    426   2   0.50000    -0.1200000    0.0600000   2.494471e-04  1.671101e-07
    422    424   2   0.50000     0.0600000    0.0600000   6.128906e-05  1.496315e-08
    422    425   2   0.50000     0.0600000    0.0600000   6.128906e-05  1.496315e-08
    422    426   2   0.50000     0.0600000    0.0600000   6.128906e-05  1.496315e-08
    423    424   2   0.50000     0.0600000    0.0600000   6.128906e-05  1.496315e-08
    423    425   2   0.50000     0.0600000    0.0600000   6.128906e-05  1.496315e-08
    423    426   2   0.50000     0.0600000    0.0600000   6.128906e-05  1.496315e-08
    403    429   2   0.50000     0.1700000   -0.4000000   8.411158e-04  8.795366e-07
    403    438   2   0.50000     0.1700000    0.0300000   2.494471e-04  1.671101e-07
    403    452   2   0.50000     0.1700000   -0.1200000   1.015252e-03  1.866303e-06
    436    429   2   0.50000     0.0600000   -0.4000000   2.066619e-04  7.875431e-08
    436    438   2   0.50000     0.0600000    0.0300000   6.128906e-05  1.496315e-08
    436    452   2   0.50000     0.0600000   -0.1200000   2.494471e-04  1.671101e-07
    437    429   2   0.50000     0.0600000   -0.4000000   2.066619e-04  7.875431e-08
    437    438   2   0.50000     0.0600000    0.0300000   6.128906e-05  1.496315e-08
    437    452   2   0.50000     0.0600000   -0.1200000   2.494471e-04  1.671101e-07
    427    430   2   0.50000    -0.1200000    0.1400000   1.015252e-03  1.866303e-06
    438    430   2   0.50000     0.0300000    0.1400000   2.494471e-04  1.671101e-07
    452    430   2   0.50000    -0.1200000    0.1400000   1.015252e-03  1.866303e-06
    427    453   2   0.50000    -0.1200000    0.1700000   1.015252e-03  1.866303e-06
    427    461   2   0.50000    -0.1200000    0.0600000   2.494471e-04  1.671101e-07
    427    462   2   0.50000    -0.1200000    0.0600000   2.494471e-04  1.671101e-07
    429    453   2   0.50000    -0.4000000    0.1700000   8.411158e-04  8.795366e-07
    429    461   2   0.50000    -0.4000000    0.0600000   2.066619e-04  7.875431e-08
    429    462   2   0.50000    -0.4000000    0.0600000   2.066619e-04  7.875431e-08
    438    453   2   0.50000     0.0300000    0.1700000   2.494471e-04  1.671101e-07
    438    461   2   0.50000     0.0300000    0.0600000   6.128906e-05  1.496315e-08
    438    462   2   0.50000     0.0300000    0.0600000   6.128906e-05  1.496315e-08
    428    431   2   0.50000     0.1700000   -0.1200000   1.015252e-03  1.866303e-06
    428    439   2   0.50000     0.1700000    0.0300000   2.494471e-04  1.671101e-07
    428    440   2   0.50000     0.1700000    0.0300000   2.494471e-04  1.671101e-07
    429    432   2   0.50000    -0.4000000   -0.1200000   8.411158e-04  8.795366e-07
    429    441   2   0.50000    -0.4000000    0.0600000   2.066619e-04  7.875431e-08
    429    442   2   0.50000    -0.4000000    0.0600000   2.066619e-04  7.875431e-08
    439    432   2   0.50000     0.0300000   -0.1200000   2.494471e-04  1.671101e-07
    439    441   2   0.50000     0.0300000    0.0600000   6.128906e-05  1.496315e-08
    439    442   2   0.50000     0.0300000    0.0600000   6.128906e-05  1.496315e-08
    440    432   2   0.50000     0.0300000   -0.1200000   2.494471e-04  1.671101e-07
    440    441   2   0.50000     0.0300000    0.0600000   6.128906e-05  1.496315e-08
    440    442   2   0.50000     0.0300000    0.0600000   6.128906e-05  1.496315e-08
    430    433   2   0.50000     0.1400000   -0.1200000   1.015252e-03  1.866303e-06
    430    443   2   0.50000     0.1400000    0.0600000   2.494471e-04  1.671101e-07
    430    444   2   0.50000     0.1400000    0.0600000   2.494471e-04  1.671101e-07
    441    433   2   0.50000     0.0600000   -0.1200000   2.494471e-04  1.671101e-07
    441    443   2   0.50000     0.0600000    0.0600000   6.128906e-05  1.496315e-08
    441    444   2   0.50000     0.0600000    0.0600000   6.128906e-05  1.496315e-08
    442    433   2   0.50000     0.0600000   -0.1200000   2.494471e-04  1.671101e-07
    442    443   2   0.50000     0.0600000    0.0600000   6.128906e-05  1.496315e-08
    442    444   2   0.50000     0.0600000    0.0600000   6.128906e-05  1.496315e-08
    431    434   2   0.50000    -0.1200000   -0.1200000   1.015252e-03  1.866303e-06
    431    445   2   0.50000    -0.1200000    0.0600000   2.494471e-04  1.671101e-07
    431    446   2   0.50000    -0.1200000    0.0600000   2.494471e-04  1.671101e-07
    443    434   2   0.50000     0.0600000   -0.1200000   2.494471e-04  1.671101e-07
    443    445   2   0.50000     0.0600000    0.0600000   6.128906e-05  1.496315e-08
    443    446   2   0.50000     0.0600000    0.0600000   6.128906e-05  1.496315e-08
    444    434   2   0.50000     0.0600000   -0.1200000   2.494471e-04  1.671101e-07
    444    445   2   0.50000     0.0600000    0.0600000   6.128906e-05  1.496315e-08
    444    446   2   0.50000     0.0600000    0.0600000   6.128906e-05  1.496315e-08
    432    435   2   0.50000    -0.1200000   -0.1800000   1.015252e-03  1.866303e-06
    432    447   2   0.50000    -0.1200000    0.0600000   2.494471e-04  1.671101e-07
    432    448   2   0.50000    -0.1200000    0.0600000   2.494471e-04  1.671101e-07
    445    435   2   0.50000     0.0600000   -0.1800000   2.494471e-04  1.671101e-07
    445    447   2   0.50000     0.0600000    0.0600000   6.128906e-05  1.496315e-08
    445    448   2   0.50000     0.0600000    0.0600000   6.128906e-05  1.496315e-08
    446    435   2   0.50000     0.0600000   -0.1800000   2.494471e-04  1.671101e-07
    446    447   2   0.50000     0.0600000    0.0600000   6.128906e-05  1.496315e-08
    446    448   2   0.50000     0.0600000    0.0600000   6.128906e-05  1.496315e-08
    433    449   2   0.50000    -0.1200000    0.0600000   2.494471e-04  1.671101e-07
    433    450   2   0.50000    -0.1200000    0.0600000   2.494471e-04  1.671101e-07
    433    451   2   0.50000    -0.1200000    0.0600000   2.494471e-04  1.671101e-07
    447    449   2   0.50000     0.0600000    0.0600000   6.128906e-05  1.496315e-08
    447    450   2   0.50000     0.0600000    0.0600000   6.128906e-05  1.496315e-08
    447    451   2   0.50000     0.0600000    0.0600000   6.128906e-05  1.496315e-08
    448    449   2   0.50000     0.0600000    0.0600000   6.128906e-05  1.496315e-08
    448    450   2   0.50000     0.0600000    0.0600000   6.128906e-05  1.496315e-08
    448    451   2   0.50000     0.0600000    0.0600000   6.128906e-05  1.496315e-08
    428    454   2   0.50000     0.1700000   -0.4000000   8.411158e-04  8.795366e-07
    428    463   2   0.50000     0.1700000    0.0300000   2.494471e-04  1.671101e-07
    428    477   2   0.50000     0.1700000   -0.1200000   1.015252e-03  1.866303e-06
    461    454   2   0.50000     0.0600000   -0.4000000   2.066619e-04  7.875431e-08
    461    463   2   0.50000     0.0600000    0.0300000   6.128906e-05  1.496315e-08
    461    477   2   0.50000     0.0600000   -0.1200000   2.494471e-04  1.671101e-07
    462    454   2   0.50000     0.0600000   -0.4000000   2.066619e-04  7.875431e-08
    462    463   2   0.50000     0.0600000    0.0300000   6.128906e-05  1.496315e-08
    462    477   2   0.50000     0.0600000   -0.1200000   2.494471e-04  1.671101e-07
    452    455   2   0.50000    -0.1200000    0.1400000   1.015252e-03  1.866303e-06
    463    455   2   0.50000     0.0300000    0.1400000   2.494471e-04  1.671101e-07
    477    455   2   0.50000    -0.1200000    0.1400000   1.015252e-03  1.866303e-06
    452    478   2   0.50000    -0.1200000    0.1400000   1.015252e-03  1.866303e-06
    452    486   2   0.50000    -0.1200000    0.0600000   2.494471e-04  1.671101e-07
    452    487   2   0.50000    -0.1200000    0.0600000   2.494471e-04  1.671101e-07
    454    478   2   0.50000    -0.4000000    0.1400000   8.411158e-04  8.795366e-07
    454    486   2   0.50000    -0.4000000    0.0600000   2.066619e-04  7.875431e-08
    454    487   2   0.50000    -0.4000000    0.0600000   2.066619e-04  7.875431e-08
    463    478   2   0.50000     0.0300000    0.1400000   2.494471e-04  1.671101e-07
    463    486   2   0.50000     0.0300000    0.0600000   6.128906e-05  1.496315e-08
    463    487   2   0.50000     0.0300000    0.0600000   6.128906e-05  1.496315e-08
    453    456   2   0.50000     0.1700000   -0.1200000   1.015252e-03  1.866303e-06
    453    464   2   0.50000     0.1700000    0.0300000   2.494471e-04  1.671101e-07
    453    465   2   0.50000     0.1700000    0.0300000   2.494471e-04  1.671101e-07
    454    457   2   0.50000    -0.4000000   -0.1200000   8.411158e-04  8.795366e-07
    454    466   2   0.50000    -0.4000000    0.0600000   2.066619e-04  7.875431e-08
    454    467   2   0.50000    -0.4000000    0.0600000   2.066619e-04  7.875431e-08
    464    457   2   0.50000     0.0300000   -0.1200000   2.494471e-04  1.671101e-07
    464    466   2   0.50000     0.0300000    0.0600000   6.128906e-05  1.496315e-08
    464    467   2   0.50000     0.0300000    0.0600000   6.128906e-05  1.496315e-08
    465    457   2   0.50000     0.0300000   -0.1200000   2.494471e-04  1.671101e-07
    465    466   2   0.50000     0.0300000    0.0600000   6.128906e-05  1.496315e-08
    465    467   2   0.50000     0.0300000    0.0600000   6.128906e-05  1.496315e-08
    455    458   2   0.50000     0.1400000   -0.1200000   1.015252e-03  1.866303e-06
    455    468   2   0.50000     0.1400000    0.0600000   2.494471e-04  1.671101e-07
    455    469   2   0.50000     0.1400000    0.0600000   2.494471e-04  1.671101e-07
    466    458   2   0.50000     0.0600000   -0.1200000   2.494471e-04  1.671101e-07
    466    468   2   0.50000     0.0600000    0.0600000   6.128906e-05  1.496315e-08
    466    469   2   0.50000     0.0600000    0.0600000   6.128906e-05  1.496315e-08
    467    458   2   0.50000     0.0600000   -0.1200000   2.494471e-04  1.671101e-07
    467    468   2   0.50000     0.0600000    0.0600000   6.128906e-05  1.496315e-08
    467    469   2   0.50000     0.0600000    0.0600000   6.128906e-05  1.496315e-08
    456    459   2   0.50000    -0.1200000   -0.1200000   1.015252e-03  1.866303e-06
    456    470   2   0.50000    -0.1200000    0.0600000   2.494471e-04  1.671101e-07
    456    471   2   0.50000    -0.1200000    0.0600000   2.494471e-04  1.671101e-07
    468    459   2   0.50000     0.0600000   -0.1200000   2.494471e-04  1.671101e-07
    468    470   2   0.50000     0.0600000    0.0600000   6.128906e-05  1.496315e-08
    468    471   2   0.50000     0.0600000    0.0600000   6.128906e-05  1.496315e-08
    469    459   2   0.50000     0.0600000   -0.1200000   2.494471e-04  1.671101e-07
    469    470   2   0.50000     0.0600000    0.0600000   6.128906e-05  1.496315e-08
    469    471   2   0.50000     0.0600000    0.0600000   6.128906e-05  1.496315e-08
    457    460   2   0.50000    -0.1200000   -0.1800000   1.015252e-03  1.866303e-06
    457    472   2   0.50000    -0.1200000    0.0600000   2.494471e-04  1.671101e-07
    457    473   2   0.50000    -0.1200000    0.0600000   2.494471e-04  1.671101e-07
    470    460   2   0.50000     0.0600000   -0.1800000   2.494471e-04  1.671101e-07
    470    472   2   0.50000     0.0600000    0.0600000   6.128906e-05  1.496315e-08
    470    473   2   0.50000     0.0600000    0.0600000   6.128906e-05  1.496315e-08
    471    460   2   0.50000     0.0600000   -0.1800000   2.494471e-04  1.671101e-07
    471    472   2   0.50000     0.0600000    0.0600000   6.128906e-05  1.496315e-08
    471    473   2   0.50000     0.0600000    0.0600000   6.128906e-05  1.496315e-08
    458    474   2   0.50000    -0.1200000    0.0600000   2.494471e-04  1.671101e-07
    458    475   2   0.50000    -0.1200000    0.0600000   2.494471e-04  1.671101e-07
    458    476   2   0.50000    -0.1200000    0.0600000   2.494471e-04  1.671101e-07
    472    474   2   0.50000     0.0600000    0.0600000   6.128906e-05  1.496315e-08
    472    475   2   0.50000     0.0600000    0.0600000   6.128906e-05  1.496315e-08
    472    476   2   0.50000     0.0600000    0.0600000   6.128906e-05  1.496315e-08
    473    474   2   0.50000     0.0600000    0.0600000   6.128906e-05  1.496315e-08
    473    475   2   0.50000     0.0600000    0.0600000   6.128906e-05  1.496315e-08
    473    476   2   0.50000     0.0600000    0.0600000   6.128906e-05  1.496315e-08
    453    479   2   0.50000     0.1700000   -0.4000000   8.411158e-04  8.795366e-07
    453    488   2   0.50000     0.1700000    0.0300000   2.494471e-04  1.671101e-07
    453    502   2   0.50000     0.1700000    0.0300000   2.494471e-04  1.671101e-07
    486    479   2   0.50000     0.0600000   -0.4000000   2.066619e-04  7.875431e-08
    486    488   2   0.50000     0.0600000    0.0300000   6.128906e-05  1.496315e-08
    486    502   2   0.50000     0.0600000    0.0300000   6.128906e-05  1.496315e-08
    487    479   2   0.50000     0.0600000   -0.4000000   2.066619e-04  7.875431e-08
    487    488   2   0.50000     0.0600000    0.0300000   6.128906e-05  1.496315e-08
    487    502   2   0.50000     0.0600000    0.0300000   6.128906e-05  1.496315e-08
    477    480   2   0.50000    -0.1200000    0.1400000   1.015252e-03  1.866303e-06
    488    480   2   0.50000     0.0300000    0.1400000   2.494471e-04  1.671101e-07
    502    480   2   0.50000     0.0300000    0.1400000   2.494471e-04  1.671101e-07
    478    481   2   0.50000     0.1400000   -0.1200000   1.015252e-03  1.866303e-06
    478    489   2   0.50000     0.1400000    0.0300000   2.494471e-04  1.671101e-07
    478    490   2   0.50000     0.1400000    0.0300000   2.494471e-04  1.671101e-07
    479    482   2   0.50000    -0.4000000   -0.1200000   8.411158e-04  8.795366e-07
    479    491   2   0.50000    -0.4000000    0.0600000   2.066619e-04  7.875431e-08
    479    492   2   0.50000    -0.4000000    0.0600000   2.066619e-04  7.875431e-08
    489    482   2   0.50000     0.0300000   -0.1200000   2.494471e-04  1.671101e-07
    489    491   2   0.50000     0.0300000    0.0600000   6.128906e-05  1.496315e-08
    489    492   2   0.50000     0.0300000    0.0600000   6.128906e-05  1.496315e-08
    490    482   2   0.50000     0.0300000   -0.1200000   2.494471e-04  1.671101e-07
    490    491   2   0.50000     0.0300000    0.0600000   6.128906e-05  1.496315e-08
    490    492   2   0.50000     0.0300000    0.0600000   6.128906e-05  1.496315e-08
    480    483   2   0.50000     0.1400000   -0.1200000   1.015252e-03  1.866303e-06
    480    493   2   0.50000     0.1400000    0.0600000   2.494471e-04  1.671101e-07
    480    494   2   0.50000     0.1400000    0.0600000   2.494471e-04  1.671101e-07
    491    483   2   0.50000     0.0600000   -0.1200000   2.494471e-04  1.671101e-07
    491    493   2   0.50000     0.0600000    0.0600000   6.128906e-05  1.496315e-08
    491    494   2   0.50000     0.0600000    0.0600000   6.128906e-05  1.496315e-08
    492    483   2   0.50000     0.0600000   -0.1200000   2.494471e-04  1.671101e-07
    492    493   2   0.50000     0.0600000    0.0600000   6.128906e-05  1.496315e-08
    492    494   2   0.50000     0.0600000    0.0600000   6.128906e-05  1.496315e-08
    481    484   2   0.50000    -0.1200000   -0.1200000   1.015252e-03  1.866303e-06
    481    495   2   0.50000    -0.1200000    0.0600000   2.494471e-04  1.671101e-07
    481    496   2   0.50000    -0.1200000    0.0600000   2.494471e-04  1.671101e-07
    493    484   2   0.50000     0.0600000   -0.1200000   2.494471e-04  1.671101e-07
    493    495   2   0.50000     0.0600000    0.0600000   6.128906e-05  1.496315e-08
    493    496   2   0.50000     0.0600000    0.0600000   6.128906e-05  1.496315e-08
    494    484   2   0.50000     0.0600000   -0.1200000   2.494471e-04  1.671101e-07
    494    495   2   0.50000     0.0600000    0.0600000   6.128906e-05  1.496315e-08
    494    496   2   0.50000     0.0600000    0.0600000   6.128906e-05  1.496315e-08
    482    485   2   0.50000    -0.1200000   -0.1800000   1.015252e-03  1.866303e-06
    482    497   2   0.50000    -0.1200000    0.0600000   2.494471e-04  1.671101e-07
    482    498   2   0.50000    -0.1200000    0.0600000   2.494471e-04  1.671101e-07
    495    485   2   0.50000     0.0600000   -0.1800000   2.494471e-04  1.671101e-07
    495    497   2   0.50000     0.0600000    0.0600000   6.128906e-05  1.496315e-08
    495    498   2   0.50000     0.0600000    0.0600000   6.128906e-05  1.496315e-08
    496    485   2   0.50000     0.0600000   -0.1800000   2.494471e-04  1.671101e-07
    496    497   2   0.50000     0.0600000    0.0600000   6.128906e-05  1.496315e-08
    496    498   2   0.50000     0.0600000    0.0600000   6.128906e-05  1.496315e-08
    483    499   2   0.50000    -0.1200000    0.0600000   2.494471e-04  1.671101e-07
    483    500   2   0.50000    -0.1200000    0.0600000   2.494471e-04  1.671101e-07
    483    501   2   0.50000    -0.1200000    0.0600000   2.494471e-04  1.671101e-07
    497    499   2   0.50000     0.0600000    0.0600000   6.128906e-05  1.496315e-08
    497    500   2   0.50000     0.0600000    0.0600000   6.128906e-05  1.496315e-08
    497    501   2   0.50000     0.0600000    0.0600000   6.128906e-05  1.496315e-08
    498    499   2   0.50000     0.0600000    0.0600000   6.128906e-05  1.496315e-08
    498    500   2   0.50000     0.0600000    0.0600000   6.128906e-05  1.496315e-08
    498    501   2   0.50000     0.0600000    0.0600000   6.128906e-05  1.496315e-08

[ angles ]
; ai  aj  ak
      2      1     10   1    110.7000    313.8000
      2      1     11   1    110.7000    313.8000
      2      1     26   1    110.7000    313.8000
     10      1     11   1    107.8000    276.1440
     10      1     26   1    107.8000    276.1440
     11      1     26   1    107.8000    276.1440
      1      2      3   1    109.5000    418.4000
      1      2     12   1    110.7000    313.8000
      1      2     27   1    112.7000    488.2728
      3      2     12   1    109.5000    292.8800
      3      2     27   1    109.5000    418.4000
     12      2     27   1    110.7000    313.8000
      2      3      4   1    109.5000    502.0800
      3      4      5   1    109.5000    418.4000
      3      4     13   1    109.5000    292.8800
      3      4     14   1    109.5000    292.8800
      5      4     13   1    110.7000    313.8000
      5      4     14   1    110.7000    313.8000
     13      4     14   1    107.8000    276.1440
      4      5      6   1    112.7000    488.2728
      4      5     15   1    110.7000    313.8000
      4      5     16   1    110.7000    313.8000
      6      5     15   1    110.7000    313.8000
      6      5     16   1    110.7000    313.8000
     15      5     16   1    107.8000    276.1440
      5      6      7   1    112.7000    488.2728
      5      6     17   1    110.7000    313.8000
      5      6     18   1    110.7000    313.8000
      7      6     17   1    110.7000    313.8000
      7      6     18   1    110.7000    313.8000
     17      6     18   1    107.8000    276.1440
      6      7      8   1    112.7000    488.2728
      6      7     19   1    110.7000    313.8000
      6      7     20   1    110.7000    313.8000
      8      7     19   1    110.7000    313.8000
      8      7     20   1    110.7000    313.8000
     19      7     20   1    107.8000    276.1440
      7      8      9   1    112.7000    488.2728
      7      8     21   1    110.7000    313.8000
      7      8     22   1    110.7000    313.8000
      9      8     21   1    110.7000    313.8000
      9      8     22   1    110.7000    313.8000
     21      8     22   1    107.8000    276.1440
      8      9     23   1    110.7000    313.8000
      8      9     24   1    110.7000    313.8000
      8      9     25   1    110.7000    313.8000
     23      9     24   1    107.8000    276.1440
     23      9     25   1    107.8000    276.1440
     24      9     25   1    107.8000    276.1440
      2     27     28   1    112.7000    488.2728
      2     27     36   1    110.7000    313.8000
      2     27     37   1    110.7000    313.8000
     28     27     36   1    110.7000    313.8000
     28     27     37   1    110.7000    313.8000
     36     27     37   1    107.8000    276.1440
     27     28     29   1    109.5000    418.4000
     27     28     38   1    110.7000    313.8000
     27     28     52   1    112.7000    488.2728
     29     28     38   1    109.5000    292.8800
     29     28     52   1    109.5000    418.4000
     38     28     52   1    110.7000    313.8000
     28     29     30   1    109.5000    502.0800
     29     30     31   1    109.5000    418.4000
     29     30     39   1    109.5000    292.8800
     29     30     40   1    109.5000    292.8800
     31     30     39   1    110.7000    313.8000
     31     30     40   1    110.7000    313.8000
     39     30     40   1    107.8000    276.1440
     30     31     32   1    112.7000    488.2728
     30     31     41   1    110.7000    313.8000
     30     31     42   1    110.7000    313.8000
     32     31     41   1    110.7000    313.8000
     32     31     42   1    110.7000    313.8000
     41     31     42   1    107.8000    276.1440
     31     32     33   1    112.7000    488.2728
     31     32     43   1    110.7000    313.8000
     31     32     44   1    110.7000    313.8000
     33     32     43   1    110.7000    313.8000
     33     32     44   1    110.7000    313.8000
     43     32     44   1    107.8000    276.1440
     32     33     34   1    112.7000    488.2728
     32     33     45   1    110.7000    313.8000
     32     33     46   1    110.7000    313.8000
     34     33     45   1    110.7000    313.8000
     34     33     46   1    110.7000    313.8000
     45     33     46   1    107.8000    276.1440
     33     34     35   1    112.7000    488.2728
     33     34     47   1    110.7000    313.8000
     33     34     48   1    110.7000    313.8000
     35     34     47   1    110.7000    313.8000
     35     34     48   1    110.7000    313.8000
     47     34     48   1    107.8000    276.1440
     34     35     49   1    110.7000    313.8000
     34     35     50   1    110.7000    313.8000
     34     35     51   1    110.7000    313.8000
     49     35     50   1    107.8000    276.1440
     49     35     51   1    107.8000    276.1440
     50     35     51   1    107.8000    276.1440
     28     52     53   1    112.7000    488.2728
     28     52     61   1    110.7000    313.8000
     28     52     62   1    110.7000    313.8000
     53     52     61   1    110.7000    313.8000
     53     52     62   1    110.7000    313.8000
     61     52     62   1    107.8000    276.1440
     52     53     54   1    109.5000    418.4000
     52     53     63   1    110.7000    313.8000
     52     53     77   1    112.7000    488.2728
     54     53     63   1    109.5000    292.8800
     54     53     77   1    109.5000    418.4000
     63     53     77   1    110.7000    313.8000
     53     54     55   1    109.5000    502.0800
     54     55     56   1    109.5000    418.4000
     54     55     64   1    109.5000    292.8800
     54     55     65   1    109.5000    292.8800
     56     55     64   1    110.7000    313.8000
     56     55     65   1    110.7000    313.8000
     64     55     65   1    107.8000    276.1440
     55     56     57   1    112.7000    488.2728
     55     56     66   1    110.7000    313.8000
     55     56     67   1    110.7000    313.8000
     57     56     66   1    110.7000    313.8000
     57     56     67   1    110.7000    313.8000
     66     56     67   1    107.8000    276.1440
     56     57     58   1    112.7000    488.2728
     56     57     68   1    110.7000    313.8000
     56     57     69   1    110.7000    313.8000
     58     57     68   1    110.7000    313.8000
     58     57     69   1    110.7000    313.8000
     68     57     69   1    107.8000    276.1440
     57     58     59   1    112.7000    488.2728
     57     58     70   1    110.7000    313.8000
     57     58     71   1    110.7000    313.8000
     59     58     70   1    110.7000    313.8000
     59     58     71   1    110.7000    313.8000
     70     58     71   1    107.8000    276.1440
     58     59     60   1    112.7000    488.2728
     58     59     72   1    110.7000    313.8000
     58     59     73   1    110.7000    313.8000
     60     59     72   1    110.7000    313.8000
     60     59     73   1    110.7000    313.8000
     72     59     73   1    107.8000    276.1440
     59     60     74   1    110.7000    313.8000
     59     60     75   1    110.7000    313.8000
     59     60     76   1    110.7000    313.8000
     74     60     75   1    107.8000    276.1440
     74     60     76   1    107.8000    276.1440
     75     60     76   1    107.8000    276.1440
     53     77     78   1    112.7000    488.2728
     53     77     86   1    110.7000    313.8000
     53     77     87   1    110.7000    313.8000
     78     77     86   1    110.7000    313.8000
     78     77     87   1    110.7000    313.8000
     86     77     87   1    107.8000    276.1440
     77     78     79   1    109.5000    418.4000
     77     78     88   1    110.7000    313.8000
     77     78    102   1    112.7000    488.2728
     79     78     88   1    109.5000    292.8800
     79     78    102   1    109.5000    418.4000
     88     78    102   1    110.7000    313.8000
     78     79     80   1    109.5000    502.0800
     79     80     81   1    109.5000    418.4000
     79     80     89   1    109.5000    292.8800
     79     80     90   1    109.5000    292.8800
     81     80     89   1    110.7000    313.8000
     81     80     90   1    110.7000    313.8000
     89     80     90   1    107.8000    276.1440
     80     81     82   1    112.7000    488.2728
     80     81     91   1    110.7000    313.8000
     80     81     92   1    110.7000    313.8000
     82     81     91   1    110.7000    313.8000
     82     81     92   1    110.7000    313.8000
     91     81     92   1    107.8000    276.1440
     81     82     83   1    112.7000    488.2728
     81     82     93   1    110.7000    313.8000
     81     82     94   1    110.7000    313.8000
     83     82     93   1    110.7000    313.8000
     83     82     94   1    110.7000    313.8000
     93     82     94   1    107.8000    276.1440
     82     83     84   1    112.7000    488.2728
     82     83     95   1    110.7000    313.8000
     82     83     96   1    110.7000    313.8000
     84     83     95   1    110.7000    313.8000
     84     83     96   1    110.7000    313.8000
     95     83     96   1    107.8000    276.1440
     83     84     85   1    112.7000    488.2728
     83     84     97   1    110.7000    313.8000
     83     84     98   1    110.7000    313.8000
     85     84     97   1    110.7000    313.8000
     85     84     98   1    110.7000    313.8000
     97     84     98   1    107.8000    276.1440
     84     85     99   1    110.7000    313.8000
     84     85    100   1    110.7000    313.8000
     84     85    101   1    110.7000    313.8000
     99     85    100   1    107.8000    276.1440
     99     85    101   1    107.8000    276.1440
    100     85    101   1    107.8000    276.1440
     78    102    103   1    112.7000    488.2728
     78    102    111   1    110.7000    313.8000
     78    102    112   1    110.7000    313.8000
    103    102    111   1    110.7000    313.8000
    103    102    112   1    110.7000    313.8000
    111    102    112   1    107.8000    276.1440
    102    103    104   1    109.5000    418.4000
    102    103    113   1    110.7000    313.8000
    102    103    127   1    112.7000    488.2728
    104    103    113   1    109.5000    292.8800
    104    103    127   1    109.5000    418.4000
    113    103    127   1    110.7000    313.8000
    103    104    105   1    109.5000    502.0800
    104    105    106   1    109.5000    418.4000
    104    105    114   1    109.5000    292.8800
    104    105    115   1    109.5000    292.8800
    106    105    114   1    110.7000    313.8000
    106    105    115   1    110.7000    313.8000
    114    105    115   1    107.8000    276.1440
    105    106    107   1    112.7000    488.2728
    105    106    116   1    110.7000    313.8000
    105    106    117   1    110.7000    313.8000
    107    106    116   1    110.7000    313.8000
    107    106    117   1    110.7000    313.8000
    116    106    117   1    107.8000    276.1440
    106    107    108   1    112.7000    488.2728
    106    107    118   1    110.7000    313.8000
    106    107    119   1    110.7000    313.8000
    108    107    118   1    110.7000    313.8000
    108    107    119   1    110.7000    313.8000
    118    107    119   1    107.8000    276.1440
    107    108    109   1    112.7000    488.2728
    107    108    120   1    110.7000    313.8000
    107    108    121   1    110.7000    313.8000
    109    108    120   1    110.7000    313.8000
    109    108    121   1    110.7000    313.8000
    120    108    121   1    107.8000    276.1440
    108    109    110   1    112.7000    488.2728
    108    109    122   1    110.7000    313.8000
    108    109    123   1    110.7000    313.8000
    110    109    122   1    110.7000    313.8000
    110    109    123   1    110.7000    313.8000
    122    109    123   1    107.8000    276.1440
    109    110    124   1    110.7000    313.8000
    109    110    125   1    110.7000    313.8000
    109    110    126   1    110.7000    313.8000
    124    110    125   1    107.8000    276.1440
    124    110    126   1    107.8000    276.1440
    125    110    126   1    107.8000    276.1440
    103    127    128   1    112.7000    488.2728
    103    127    136   1    110.7000    313.8000
    103    127    137   1    110.7000    313.8000
    128    127    136   1    110.7000    313.8000
    128    127    137   1    110.7000    313.8000
    136    127    137   1    107.8000    276.1440
    127    128    129   1    109.5000    418.4000
    127    128    138   1    110.7000    313.8000
    127    128    152   1    112.7000    488.2728
    129    128    138   1    109.5000    292.8800
    129    128    152   1    109.5000    418.4000
    138    128    152   1    110.7000    313.8000
    128    129    130   1    109.5000    502.0800
    129    130    131   1    109.5000    418.4000
    129    130    139   1    109.5000    292.8800
    129    130    140   1    109.5000    292.8800
    131    130    139   1    110.7000    313.8000
    131    130    140   1    110.7000    313.8000
    139    130    140   1    107.8000    276.1440
    130    131    132   1    112.7000    488.2728
    130    131    141   1    110.7000    313.8000
    130    131    142   1    110.7000    313.8000
    132    131    141   1    110.7000    313.8000
    132    131    142   1    110.7000    313.8000
    141    131    142   1    107.8000    276.1440
    131    132    133   1    112.7000    488.2728
    131    132    143   1    110.7000    313.8000
    131    132    144   1    110.7000    313.8000
    133    132    143   1    110.7000    313.8000
    133    132    144   1    110.7000    313.8000
    143    132    144   1    107.8000    276.1440
    132    133    134   1    112.7000    488.2728
    132    133    145   1    110.7000    313.8000
    132    133    146   1    110.7000    313.8000
    134    133    145   1    110.7000    313.8000
    134    133    146   1    110.7000    313.8000
    145    133    146   1    107.8000    276.1440
    133    134    135   1    112.7000    488.2728
    133    134    147   1    110.7000    313.8000
    133    134    148   1    110.7000    313.8000
    135    134    147   1    110.7000    313.8000
    135    134    148   1    110.7000    313.8000
    147    134    148   1    107.8000    276.1440
    134    135    149   1    110.7000    313.8000
    134    135    150   1    110.7000    313.8000
    134    135    151   1    110.7000    313.8000
    149    135    150   1    107.8000    276.1440
    149    135    151   1    107.8000    276.1440
    150    135    151   1    107.8000    276.1440
    128    152    153   1    112.7000    488.2728
    128    152    161   1    110.7000    313.8000
    128    152    162   1    110.7000    313.8000
    153    152    161   1    110.7000    313.8000
    153    152    162   1    110.7000    313.8000
    161    152    162   1    107.8000    276.1440
    152    153    154   1    109.5000    418.4000
    152    153    163   1    110.7000    313.8000
    152    153    177   1    112.7000    488.2728
    154    153    163   1    109.5000    292.8800
    154    153    177   1    109.5000    418.4000
    163    153    177   1    110.7000    313.8000
    153    154    155   1    109.5000    502.0800
    154    155    156   1    109.5000    418.4000
    154    155    164   1    109.5000    292.8800
    154    155    165   1    109.5000    292.8800
    156    155    164   1    110.7000    313.8000
    156    155    165   1    110.7000    313.8000
    164    155    165   1    107.8000    276.1440
    155    156    157   1    112.7000    488.2728
    155    156    166   1    110.7000    313.8000
    155    156    167   1    110.7000    313.8000
    157    156    166   1    110.7000    313.8000
    157    156    167   1    110.7000    313.8000
    166    156    167   1    107.8000    276.1440
    156    157    158   1    112.7000    488.2728
    156    157    168   1    110.7000    313.8000
    156    157    169   1    110.7000    313.8000
    158    157    168   1    110.7000    313.8000
    158    157    169   1    110.7000    313.8000
    168    157    169   1    107.8000    276.1440
    157    158    159   1    112.7000    488.2728
    157    158    170   1    110.7000    313.8000
    157    158    171   1    110.7000    313.8000
    159    158    170   1    110.7000    313.8000
    159    158    171   1    110.7000    313.8000
    170    158    171   1    107.8000    276.1440
    158    159    160   1    112.7000    488.2728
    158    159    172   1    110.7000    313.8000
    158    159    173   1    110.7000    313.8000
    160    159    172   1    110.7000    313.8000
    160    159    173   1    110.7000    313.8000
    172    159    173   1    107.8000    276.1440
    159    160    174   1    110.7000    313.8000
    159    160    175   1    110.7000    313.8000
    159    160    176   1    110.7000    313.8000
    174    160    175   1    107.8000    276.1440
    174    160    176   1    107.8000    276.1440
    175    160    176   1    107.8000    276.1440
    153    177    178   1    112.7000    488.2728
    153    177    186   1    110.7000    313.8000
    153    177    187   1    110.7000    313.8000
    178    177    186   1    110.7000    313.8000
    178    177    187   1    110.7000    313.8000
    186    177    187   1    107.8000    276.1440
    177    178    179   1    109.5000    418.4000
    177    178    188   1    110.7000    313.8000
    177    178    202   1    112.7000    488.2728
    179    178    188   1    109.5000    292.8800
    179    178    202   1    109.5000    418.4000
    188    178    202   1    110.7000    313.8000
    178    179    180   1    109.5000    502.0800
    179    180    181   1    109.5000    418.4000
    179    180    189   1    109.5000    292.8800
    179    180    190   1    109.5000    292.8800
    181    180    189   1    110.7000    313.8000
    181    180    190   1    110.7000    313.8000
    189    180    190   1    107.8000    276.1440
    180    181    182   1    112.7000    488.2728
    180    181    191   1    110.7000    313.8000
    180    181    192   1    110.7000    313.8000
    182    181    191   1    110.7000    313.8000
    182    181    192   1    110.7000    313.8000
    191    181    192   1    107.8000    276.1440
    181    182    183   1    112.7000    488.2728
    181    182    193   1    110.7000    313.8000
    181    182    194   1    110.7000    313.8000
    183    182    193   1    110.7000    313.8000
    183    182    194   1    110.7000    313.8000
    193    182    194   1    107.8000    276.1440
    182    183    184   1    112.7000    488.2728
    182    183    195   1    110.7000    313.8000
    182    183    196   1    110.7000    313.8000
    184    183    195   1    110.7000    313.8000
    184    183    196   1    110.7000    313.8000
    195    183    196   1    107.8000    276.1440
    183    184    185   1    112.7000    488.2728
    183    184    197   1    110.7000    313.8000
    183    184    198   1    110.7000    313.8000
    185    184    197   1    110.7000    313.8000
    185    184    198   1    110.7000    313.8000
    197    184    198   1    107.8000    276.1440
    184    185    199   1    110.7000    313.8000
    184    185    200   1    110.7000    313.8000
    184    185    201   1    110.7000    313.8000
    199    185    200   1    107.8000    276.1440
    199    185    201   1    107.8000    276.1440
    200    185    201   1    107.8000    276.1440
    178    202    203   1    112.7000    488.2728
    178    202    211   1    110.7000    313.8000
    178    202    212   1    110.7000    313.8000
    203    202    211   1    110.7000    313.8000
    203    202    212   1    110.7000    313.8000
    211    202    212   1    107.8000    276.1440
    202    203    204   1    109.5000    418.4000
    202    203    213   1    110.7000    313.8000
    202    203    227   1    112.7000    488.2728
    204    203    213   1    109.5000    292.8800
    204    203    227   1    109.5000    418.4000
    213    203    227   1    110.7000    313.8000
    203    204    205   1    109.5000    502.0800
    204    205    206   1    109.5000    418.4000
    204    205    214   1    109.5000    292.8800
    204    205    215   1    109.5000    292.8800
    206    205    214   1    110.7000    313.8000
    206    205    215   1    110.7000    313.8000
    214    205    215   1    107.8000    276.1440
    205    206    207   1    112.7000    488.2728
    205    206    216   1    110.7000    313.8000
    205    206    217   1    110.7000    313.8000
    207    206    216   1    110.7000    313.8000
    207    206    217   1    110.7000    313.8000
    216    206    217   1    107.8000    276.1440
    206    207    208   1    112.7000    488.2728
    206    207    218   1    110.7000    313.8000
    206    207    219   1    110.7000    313.8000
    208    207    218   1    110.7000    313.8000
    208    207    219   1    110.7000    313.8000
    218    207    219   1    107.8000    276.1440
    207    208    209   1    112.7000    488.2728
    207    208    220   1    110.7000    313.8000
    207    208    221   1    110.7000    313.8000
    209    208    220   1    110.7000    313.8000
    209    208    221   1    110.7000    313.8000
    220    208    221   1    107.8000    276.1440
    208    209    210   1    112.7000    488.2728
    208    209    222   1    110.7000    313.8000
    208    209    223   1    110.7000    313.8000
    210    209    222   1    110.7000    313.8000
    210    209    223   1    110.7000    313.8000
    222    209    223   1    107.8000    276.1440
    209    210    224   1    110.7000    313.8000
    209    210    225   1    110.7000    313.8000
    209    210    226   1    110.7000    313.8000
    224    210    225   1    107.8000    276.1440
    224    210    226   1    107.8000    276.1440
    225    210    226   1    107.8000    276.1440
    203    227    228   1    112.7000    488.2728
    203    227    236   1    110.7000    313.8000
    203    227    237   1    110.7000    313.8000
    228    227    236   1    110.7000    313.8000
    228    227    237   1    110.7000    313.8000
    236    227    237   1    107.8000    276.1440
    227    228    229   1    109.5000    418.4000
    227    228    238   1    110.7000    313.8000
    227    228    252   1    112.7000    488.2728
    229    228    238   1    109.5000    292.8800
    229    228    252   1    109.5000    418.4000
    238    228    252   1    110.7000    313.8000
    228    229    230   1    109.5000    502.0800
    229    230    231   1    109.5000    418.4000
    229    230    239   1    109.5000    292.8800
    229    230    240   1    109.5000    292.8800
    231    230    239   1    110.7000    313.8000
    231    230    240   1    110.7000    313.8000
    239    230    240   1    107.8000    276.1440
    230    231    232   1    112.7000    488.2728
    230    231    241   1    110.7000    313.8000
    230    231    242   1    110.7000    313.8000
    232    231    241   1    110.7000    313.8000
    232    231    242   1    110.7000    313.8000
    241    231    242   1    107.8000    276.1440
    231    232    233   1    112.7000    488.2728
    231    232    243   1    110.7000    313.8000
    231    232    244   1    110.7000    313.8000
    233    232    243   1    110.7000    313.8000
    233    232    244   1    110.7000    313.8000
    243    232    244   1    107.8000    276.1440
    232    233    234   1    112.7000    488.2728
    232    233    245   1    110.7000    313.8000
    232    233    246   1    110.7000    313.8000
    234    233    245   1    110.7000    313.8000
    234    233    246   1    110.7000    313.8000
    245    233    246   1    107.8000    276.1440
    233    234    235   1    112.7000    488.2728
    233    234    247   1    110.7000    313.8000
    233    234    248   1    110.7000    313.8000
    235    234    247   1    110.7000    313.8000
    235    234    248   1    110.7000    313.8000
    247    234    248   1    107.8000    276.1440
    234    235    249   1    110.7000    313.8000
    234    235    250   1    110.7000    313.8000
    234    235    251   1    110.7000    313.8000
    249    235    250   1    107.8000    276.1440
    249    235    251   1    107.8000    276.1440
    250    235    251   1    107.8000    276.1440
    228    252    253   1    112.7000    488.2728
    228    252    261   1    110.7000    313.8000
    228    252    262   1    110.7000    313.8000
    253    252    261   1    110.7000    313.8000
    253    252    262   1    110.7000    313.8000
    261    252    262   1    107.8000    276.1440
    252    253    254   1    109.5000    418.4000
    252    253    263   1    110.7000    313.8000
    252    253    277   1    112.7000    488.2728
    254    253    263   1    109.5000    292.8800
    254    253    277   1    109.5000    418.4000
    263    253    277   1    110.7000    313.8000
    253    254    255   1    109.5000    502.0800
    254    255    256   1    109.5000    418.4000
    254    255    264   1    109.5000    292.8800
    254    255    265   1    109.5000    292.8800
    256    255    264   1    110.7000    313.8000
    256    255    265   1    110.7000    313.8000
    264    255    265   1    107.8000    276.1440
    255    256    257   1    112.7000    488.2728
    255    256    266   1    110.7000    313.8000
    255    256    267   1    110.7000    313.8000
    257    256    266   1    110.7000    313.8000
    257    256    267   1    110.7000    313.8000
    266    256    267   1    107.8000    276.1440
    256    257    258   1    112.7000    488.2728
    256    257    268   1    110.7000    313.8000
    256    257    269   1    110.7000    313.8000
    258    257    268   1    110.7000    313.8000
    258    257    269   1    110.7000    313.8000
    268    257    269   1    107.8000    276.1440
    257    258    259   1    112.7000    488.2728
    257    258    270   1    110.7000    313.8000
    257    258    271   1    110.7000    313.8000
    259    258    270   1    110.7000    313.8000
    259    258    271   1    110.7000    313.8000
    270    258    271   1    107.8000    276.1440
    258    259    260   1    112.7000    488.2728
    258    259    272   1    110.7000    313.8000
    258    259    273   1    110.7000    313.8000
    260    259    272   1    110.7000    313.8000
    260    259    273   1    110.7000    313.8000
    272    259    273   1    107.8000    276.1440
    259    260    274   1    110.7000    313.8000
    259    260    275   1    110.7000    313.8000
    259    260    276   1    110.7000    313.8000
    274    260    275   1    107.8000    276.1440
    274    260    276   1    107.8000    276.1440
    275    260    276   1    107.8000    276.1440
    253    277    278   1    112.7000    488.2728
    253    277    286   1    110.7000    313.8000
    253    277    287   1    110.7000    313.8000
    278    277    286   1    110.7000    313.8000
    278    277    287   1    110.7000    313.8000
    286    277    287   1    107.8000    276.1440
    277    278    279   1    109.5000    418.4000
    277    278    288   1    110.7000    313.8000
    277    278    302   1    112.7000    488.2728
    279    278    288   1    109.5000    292.8800
    279    278    302   1    109.5000    418.4000
    288    278    302   1    110.7000    313.8000
    278    279    280   1    109.5000    502.0800
    279    280    281   1    109.5000    418.4000
    279    280    289   1    109.5000    292.8800
    279    280    290   1    109.5000    292.8800
    281    280    289   1    110.7000    313.8000
    281    280    290   1    110.7000    313.8000
    289    280    290   1    107.8000    276.1440
    280    281    282   1    112.7000    488.2728
    280    281    291   1    110.7000    313.8000
    280    281    292   1    110.7000    313.8000
    282    281    291   1    110.7000    313.8000
    282    281    292   1    110.7000    313.8000
    291    281    292   1    107.8000    276.1440
    281    282    283   1    112.7000    488.2728
    281    282    293   1    110.7000    313.8000
    281    282    294   1    110.7000    313.8000
    283    282    293   1    110.7000    313.8000
    283    282    294   1    110.7000    313.8000
    293    282    294   1    107.8000    276.1440
    282    283    284   1    112.7000    488.2728
    282    283    295   1    110.7000    313.8000
    282    283    296   1    110.7000    313.8000
    284    283    295   1    110.7000    313.8000
    284    283    296   1    110.7000    313.8000
    295    283    296   1    107.8000    276.1440
    283    284    285   1    112.7000    488.2728
    283    284    297   1    110.7000    313.8000
    283    284    298   1    110.7000    313.8000
    285    284    297   1    110.7000    313.8000
    285    284    298   1    110.7000    313.8000
    297    284    298   1    107.8000    276.1440
    284    285    299   1    110.7000    313.8000
    284    285    300   1    110.7000    313.8000
    284    285    301   1    110.7000    313.8000
    299    285    300   1    107.8000    276.1440
    299    285    301   1    107.8000    276.1440
    300    285    301   1    107.8000    276.1440
    278    302    303   1    112.7000    488.2728
    278    302    311   1    110.7000    313.8000
    278    302    312   1    110.7000    313.8000
    303    302    311   1    110.7000    313.8000
    303    302    312   1    110.7000    313.8000
    311    302    312   1    107.8000    276.1440
    302    303    304   1    109.5000    418.4000
    302    303    313   1    110.7000    313.8000
    302    303    327   1    112.7000    488.2728
    304    303    313   1    109.5000    292.8800
    304    303    327   1    109.5000    418.4000
    313    303    327   1    110.7000    313.8000
    303    304    305   1    109.5000    502.0800
    304    305    306   1    109.5000    418.4000
    304    305    314   1    109.5000    292.8800
    304    305    315   1    109.5000    292.8800
    306    305    314   1    110.7000    313.8000
    306    305    315   1    110.7000    313.8000
    314    305    315   1    107.8000    276.1440
    305    306    307   1    112.7000    488.2728
    305    306    316   1    110.7000    313.8000
    305    306    317   1    110.7000    313.8000
    307    306    316   1    110.7000    313.8000
    307    306    317   1    110.7000    313.8000
    316    306    317   1    107.8000    276.1440
    306    307    308   1    112.7000    488.2728
    306    307    318   1    110.7000    313.8000
    306    307    319   1    110.7000    313.8000
    308    307    318   1    110.7000    313.8000
    308    307    319   1    110.7000    313.8000
    318    307    319   1    107.8000    276.1440
    307    308    309   1    112.7000    488.2728
    307    308    320   1    110.7000    313.8000
    307    308    321   1    110.7000    313.8000
    309    308    320   1    110.7000    313.8000
    309    308    321   1    110.7000    313.8000
    320    308    321   1    107.8000    276.1440
    308    309    310   1    112.7000    488.2728
    308    309    322   1    110.7000    313.8000
    308    309    323   1    110.7000    313.8000
    310    309    322   1    110.7000    313.8000
    310    309    323   1    110.7000    313.8000
    322    309    323   1    107.8000    276.1440
    309    310    324   1    110.7000    313.8000
    309    310    325   1    110.7000    313.8000
    309    310    326   1    110.7000    313.8000
    324    310    325   1    107.8000    276.1440
    324    310    326   1    107.8000    276.1440
    325    310    326   1    107.8000    276.1440
    303    327    328   1    112.7000    488.2728
    303    327    336   1    110.7000    313.8000
    303    327    337   1    110.7000    313.8000
    328    327    336   1    110.7000    313.8000
    328    327    337   1    110.7000    313.8000
    336    327    337   1    107.8000    276.1440
    327    328    329   1    109.5000    418.4000
    327    328    338   1    110.7000    313.8000
    327    328    352   1    112.7000    488.2728
    329    328    338   1    109.5000    292.8800
    329    328    352   1    109.5000    418.4000
    338    328    352   1    110.7000    313.8000
    328    329    330   1    109.5000    502.0800
    329    330    331   1    109.5000    418.4000
    329    330    339   1    109.5000    292.8800
    329    330    340   1    109.5000    292.8800
    331    330    339   1    110.7000    313.8000
    331    330    340   1    110.7000    313.8000
    339    330    340   1    107.8000    276.1440
    330    331    332   1    112.7000    488.2728
    330    331    341   1    110.7000    313.8000
    330    331    342   1    110.7000    313.8000
    332    331    341   1    110.7000    313.8000
    332    331    342   1    110.7000    313.8000
    341    331    342   1    107.8000    276.1440
    331    332    333   1    112.7000    488.2728
    331    332    343   1    110.7000    313.8000
    331    332    344   1    110.7000    313.8000
    333    332    343   1    110.7000    313.8000
    333    332    344   1    110.7000    313.8000
    343    332    344   1    107.8000    276.1440
    332    333    334   1    112.7000    488.2728
    332    333    345   1    110.7000    313.8000
    332    333    346   1    110.7000    313.8000
    334    333    345   1    110.7000    313.8000
    334    333    346   1    110.7000    313.8000
    345    333    346   1    107.8000    276.1440
    333    334    335   1    112.7000    488.2728
    333    334    347   1    110.7000    313.8000
    333    334    348   1    110.7000    313.8000
    335    334    347   1    110.7000    313.8000
    335    334    348   1    110.7000    313.8000
    347    334    348   1    107.8000    276.1440
    334    335    349   1    110.7000    313.8000
    334    335    350   1    110.7000    313.8000
    334    335    351   1    110.7000    313.8000
    349    335    350   1    107.8000    276.1440
    349    335    351   1    107.8000    276.1440
    350    335    351   1    107.8000    276.1440
    328    352    353   1    112.7000    488.2728
    328    352    361   1    110.7000    313.8000
    328    352    362   1    110.7000    313.8000
    353    352    361   1    110.7000    313.8000
    353    352    362   1    110.7000    313.8000
    361    352    362   1    107.8000    276.1440
    352    353    354   1    109.5000    418.4000
    352    353    363   1    110.7000    313.8000
    352    353    377   1    112.7000    488.2728
    354    353    363   1    109.5000    292.8800
    354    353    377   1    109.5000    418.4000
    363    353    377   1    110.7000    313.8000
    353    354    355   1    109.5000    502.0800
    354    355    356   1    109.5000    418.4000
    354    355    364   1    109.5000    292.8800
    354    355    365   1    109.5000    292.8800
    356    355    364   1    110.7000    313.8000
    356    355    365   1    110.7000    313.8000
    364    355    365   1    107.8000    276.1440
    355    356    357   1    112.7000    488.2728
    355    356    366   1    110.7000    313.8000
    355    356    367   1    110.7000    313.8000
    357    356    366   1    110.7000    313.8000
    357    356    367   1    110.7000    313.8000
    366    356    367   1    107.8000    276.1440
    356    357    358   1    112.7000    488.2728
    356    357    368   1    110.7000    313.8000
    356    357    369   1    110.7000    313.8000
    358    357    368   1    110.7000    313.8000
    358    357    369   1    110.7000    313.8000
    368    357    369   1    107.8000    276.1440
    357    358    359   1    112.7000    488.2728
    357    358    370   1    110.7000    313.8000
    357    358    371   1    110.7000    313.8000
    359    358    370   1    110.7000    313.8000
    359    358    371   1    110.7000    313.8000
    370    358    371   1    107.8000    276.1440
    358    359    360   1    112.7000    488.2728
    358    359    372   1    110.7000    313.8000
    358    359    373   1    110.7000    313.8000
    360    359    372   1    110.7000    313.8000
    360    359    373   1    110.7000    313.8000
    372    359    373   1    107.8000    276.1440
    359    360    374   1    110.7000    313.8000
    359    360    375   1    110.7000    313.8000
    359    360    376   1    110.7000    313.8000
    374    360    375   1    107.8000    276.1440
    374    360    376   1    107.8000    276.1440
    375    360    376   1    107.8000    276.1440
    353    377    378   1    112.7000    488.2728
    353    377    386   1    110.7000    313.8000
    353    377    387   1    110.7000    313.8000
    378    377    386   1    110.7000    313.8000
    378    377    387   1    110.7000    313.8000
    386    377    387   1    107.8000    276.1440
    377    378    379   1    109.5000    418.4000
    377    378    388   1    110.7000    313.8000
    377    378    402   1    112.7000    488.2728
    379    378    388   1    109.5000    292.8800
    379    378    402   1    109.5000    418.4000
    388    378    402   1    110.7000    313.8000
    378    379    380   1    109.5000    502.0800
    379    380    381   1    109.5000    418.4000
    379    380    389   1    109.5000    292.8800
    379    380    390   1    109.5000    292.8800
    381    380    389   1    110.7000    313.8000
    381    380    390   1    110.7000    313.8000
    389    380    390   1    107.8000    276.1440
    380    381    382   1    112.7000    488.2728
    380    381    391   1    110.7000    313.8000
    380    381    392   1    110.7000    313.8000
    382    381    391   1    110.7000    313.8000
    382    381    392   1    110.7000    313.8000
    391    381    392   1    107.8000    276.1440
    381    382    383   1    112.7000    488.2728
    381    382    393   1    110.7000    313.8000
    381    382    394   1    110.7000    313.8000
    383    382    393   1    110.7000    313.8000
    383    382    394   1    110.7000    313.8000
    393    382    394   1    107.8000    276.1440
    382    383    384   1    112.7000    488.2728
    382    383    395   1    110.7000    313.8000
    382    383    396   1    110.7000    313.8000
    384    383    395   1    110.7000    313.8000
    384    383    396   1    110.7000    313.8000
    395    383    396   1    107.8000    276.1440
    383    384    385   1    112.7000    488.2728
    383    384    397   1    110.7000    313.8000
    383    384    398   1    110.7000    313.8000
    385    384    397   1    110.7000    313.8000
    385    384    398   1    110.7000    313.8000
    397    384    398   1    107.8000    276.1440
    384    385    399   1    110.7000    313.8000
    384    385    400   1    110.7000    313.8000
    384    385    401   1    110.7000    313.8000
    399    385    400   1    107.8000    276.1440
    399    385    401   1    107.8000    276.1440
    400    385    401   1    107.8000    276.1440
    378    402    403   1    112.7000    488.2728
    378    402    411   1    110.7000    313.8000
    378    402    412   1    110.7000    313.8000
    403    402    411   1    110.7000    313.8000
    403    402    412   1    110.7000    313.8000
    411    402    412   1    107.8000    276.1440
    402    403    404   1    109.5000    418.4000
    402    403    413   1    110.7000    313.8000
    402    403    427   1    112.7000    488.2728
    404    403    413   1    109.5000    292.8800
    404    403    427   1    109.5000    418.4000
    413    403    427   1    110.7000    313.8000
    403    404    405   1    109.5000    502.0800
    404    405    406   1    109.5000    418.4000
    404    405    414   1    109.5000    292.8800
    404    405    415   1    109.5000    292.8800
    406    405    414   1    110.7000    313.8000
    406    405    415   1    110.7000    313.8000
    414    405    415   1    107.8000    276.1440
    405    406    407   1    112.7000    488.2728
    405    406    416   1    110.7000    313.8000
    405    406    417   1    110.7000    313.8000
    407    406    416   1    110.7000    313.8000
    407    406    417   1    110.7000    313.8000
    416    406    417   1    107.8000    276.1440
    406    407    408   1    112.7000    488.2728
    406    407    418   1    110.7000    313.8000
    406    407    419   1    110.7000    313.8000
    408    407    418   1    110.7000    313.8000
    408    407    419   1    110.7000    313.8000
    418    407    419   1    107.8000    276.1440
    407    408    409   1    112.7000    488.2728
    407    408    420   1    110.7000    313.8000
    407    408    421   1    110.7000    313.8000
    409    408    420   1    110.7000    313.8000
    409    408    421   1    110.7000    313.8000
    420    408    421   1    107.8000    276.1440
    408    409    410   1    112.7000    488.2728
    408    409    422   1    110.7000    313.8000
    408    409    423   1    110.7000    313.8000
    410    409    422   1    110.7000    313.8000
    410    409    423   1    110.7000    313.8000
    422    409    423   1    107.8000    276.1440
    409    410    424   1    110.7000    313.8000
    409    410    425   1    110.7000    313.8000
    409    410    426   1    110.7000    313.8000
    424    410    425   1    107.8000    276.1440
    424    410    426   1    107.8000    276.1440
    425    410    426   1    107.8000    276.1440
    403    427    428   1    112.7000    488.2728
    403    427    436   1    110.7000    313.8000
    403    427    437   1    110.7000    313.8000
    428    427    436   1    110.7000    313.8000
    428    427    437   1    110.7000    313.8000
    436    427    437   1    107.8000    276.1440
    427    428    429   1    109.5000    418.4000
    427    428    438   1    110.7000    313.8000
    427    428    452   1    112.7000    488.2728
    429    428    438   1    109.5000    292.8800
    429    428    452   1    109.5000    418.4000
    438    428    452   1    110.7000    313.8000
    428    429    430   1    109.5000    502.0800
    429    430    431   1    109.5000    418.4000
    429    430    439   1    109.5000    292.8800
    429    430    440   1    109.5000    292.8800
    431    430    439   1    110.7000    313.8000
    431    430    440   1    110.7000    313.8000
    439    430    440   1    107.8000    276.1440
    430    431    432   1    112.7000    488.2728
    430    431    441   1    110.7000    313.8000
    430    431    442   1    110.7000    313.8000
    432    431    441   1    110.7000    313.8000
    432    431    442   1    110.7000    313.8000
    441    431    442   1    107.8000    276.1440
    431    432    433   1    112.7000    488.2728
    431    432    443   1    110.7000    313.8000
    431    432    444   1    110.7000    313.8000
    433    432    443   1    110.7000    313.8000
    433    432    444   1    110.7000    313.8000
    443    432    444   1    107.8000    276.1440
    432    433    434   1    112.7000    488.2728
    432    433    445   1    110.7000    313.8000
    432    433    446   1    110.7000    313.8000
    434    433    445   1    110.7000    313.8000
    434    433    446   1    110.7000    313.8000
    445    433    446   1    107.8000    276.1440
    433    434    435   1    112.7000    488.2728
    433    434    447   1    110.7000    313.8000
    433    434    448   1    110.7000    313.8000
    435    434    447   1    110.7000    313.8000
    435    434    448   1    110.7000    313.8000
    447    434    448   1    107.8000    276.1440
    434    435    449   1    110.7000    313.8000
    434    435    450   1    110.7000    313.8000
    434    435    451   1    110.7000    313.8000
    449    435    450   1    107.8000    276.1440
    449    435    451   1    107.8000    276.1440
    450    435    451   1    107.8000    276.1440
    428    452    453   1    112.7000    488.2728
    428    452    461   1    110.7000    313.8000
    428    452    462   1    110.7000    313.8000
    453    452    461   1    110.7000    313.8000
    453    452    462   1    110.7000    313.8000
    461    452    462   1    107.8000    276.1440
    452    453    454   1    109.5000    418.4000
    452    453    463   1    110.7000    313.8000
    452    453    477   1    112.7000    488.2728
    454    453    463   1    109.5000    292.8800
    454    453    477   1    109.5000    418.4000
    463    453    477   1    110.7000    313.8000
    453    454    455   1    109.5000    502.0800
    454    455    456   1    109.5000    418.4000
    454    455    464   1    109.5000    292.8800
    454    455    465   1    109.5000    292.8800
    456    455    464   1    110.7000    313.8000
    456    455    465   1    110.7000    313.8000
    464    455    465   1    107.8000    276.1440
    455    456    457   1    112.7000    488.2728
    455    456    466   1    110.7000    313.8000
    455    456    467   1    110.7000    313.8000
    457    456    466   1    110.7000    313.8000
    457    456    467   1    110.7000    313.8000
    466    456    467   1    107.8000    276.1440
    456    457    458   1    112.7000    488.2728
    456    457    468   1    110.7000    313.8000
    456    457    469   1    110.7000    313.8000
    458    457    468   1    110.7000    313.8000
    458    457    469   1    110.7000    313.8000
    468    457    469   1    107.8000    276.1440
    457    458    459   1    112.7000    488.2728
    457    458    470   1    110.7000    313.8000
    457    458    471   1    110.7000    313.8000
    459    458    470   1    110.7000    313.8000
    459    458    471   1    110.7000    313.8000
    470    458    471   1    107.8000    276.1440
    458    459    460   1    112.7000    488.2728
    458    459    472   1    110.7000    313.8000
    458    459    473   1    110.7000    313.8000
    460    459    472   1    110.7000    313.8000
    460    459    473   1    110.7000    313.8000
    472    459    473   1    107.8000    276.1440
    459    460    474   1    110.7000    313.8000
    459    460    475   1    110.7000    313.8000
    459    460    476   1    110.7000    313.8000
    474    460    475   1    107.8000    276.1440
    474    460    476   1    107.8000    276.1440
    475    460    476   1    107.8000    276.1440
    453    477    478   1    112.7000    488.2728
    453    477    486   1    110.7000    313.8000
    453    477    487   1    110.7000    313.8000
    478    477    486   1    110.7000    313.8000
    478    477    487   1    110.7000    313.8000
    486    477    487   1    107.8000    276.1440
    477    478    479   1    109.5000    418.4000
    477    478    488   1    110.7000    313.8000
    477    478    502   1    110.7000    313.8000
    479    478    488   1    109.5000    292.8800
    479    478    502   1    109.5000    292.8800
    488    478    502   1    107.8000    276.1440
    478    479    480   1    109.5000    502.0800
    479    480    481   1    109.5000    418.4000
    479    480    489   1    109.5000    292.8800
    479    480    490   1    109.5000    292.8800
    481    480    489   1    110.7000    313.8000
    481    480    490   1    110.7000    313.8000
    489    480    490   1    107.8000    276.1440
    480    481    482   1    112.7000    488.2728
    480    481    491   1    110.7000    313.8000
    480    481    492   1    110.7000    313.8000
    482    481    491   1    110.7000    313.8000
    482    481    492   1    110.7000    313.8000
    491    481    492   1    107.8000    276.1440
    481    482    483   1    112.7000    488.2728
    481    482    493   1    110.7000    313.8000
    481    482    494   1    110.7000    313.8000
    483    482    493   1    110.7000    313.8000
    483    482    494   1    110.7000    313.8000
    493    482    494   1    107.8000    276.1440
    482    483    484   1    112.7000    488.2728
    482    483    495   1    110.7000    313.8000
    482    483    496   1    110.7000    313.8000
    484    483    495   1    110.7000    313.8000
    484    483    496   1    110.7000    313.8000
    495    483    496   1    107.8000    276.1440
    483    484    485   1    112.7000    488.2728
    483    484    497   1    110.7000    313.8000
    483    484    498   1    110.7000    313.8000
    485    484    497   1    110.7000    313.8000
    485    484    498   1    110.7000    313.8000
    497    484    498   1    107.8000    276.1440
    484    485    499   1    110.7000    313.8000
    484    485    500   1    110.7000    313.8000
    484    485    501   1    110.7000    313.8000
    499    485    500   1    107.8000    276.1440
    499    485    501   1    107.8000    276.1440
    500    485    501   1    107.8000    276.1440

[ dihedrals ]
; Proper dihedrals
     10      1      2      3   5     0.00000     0.00000     1.95811  0.0
     10      1      2     12   5     0.00000     0.00000     1.25520  0.0
     10      1      2     27   5     0.00000     0.00000     1.25520  0.0
     11      1      2      3   5     0.00000     0.00000     1.95811  0.0
     11      1      2     12   5     0.00000     0.00000     1.25520  0.0
     11      1      2     27   5     0.00000     0.00000     1.25520  0.0
     26      1      2      3   5     0.00000     0.00000     1.95811  0.0
     26      1      2     12   5     0.00000     0.00000     1.25520  0.0
     26      1      2     27   5     0.00000     0.00000     1.25520  0.0
      1      2      3      4   5     0.52300    -0.09205     2.34722  0.0
     12      2      3      4   5     0.00000     0.00000     3.10034  0.0
     27      2      3      4   5     0.52300    -0.09205     2.34722  0.0
      1      2     27     28   5     4.74884    -0.63178     1.67360  0.0
      1      2     27     36   5     0.00000     0.00000     1.25520  0.0
      1      2     27     37   5     0.00000     0.00000     1.25520  0.0
      3      2     27     28   5     5.25092    -2.58990     2.28446  0.0
      3      2     27     36   5     0.00000     0.00000     1.95811  0.0
      3      2     27     37   5     0.00000     0.00000     1.95811  0.0
     12      2     27     28   5     0.00000     0.00000     1.25520  0.0
     12      2     27     36   5     0.00000     0.00000     1.25520  0.0
     12      2     27     37   5     0.00000     0.00000     1.25520  0.0
      2      3      4      5   5     0.52300    -0.09205     2.34722  0.0
      2      3      4     13   5     0.00000     0.00000     3.10034  0.0
      2      3      4     14   5     0.00000     0.00000     3.10034  0.0
      3      4      5      6   5     5.25092    -2.58990     2.28446  0.0
      3      4      5     15   5     0.00000     0.00000     1.95811  0.0
      3      4      5     16   5     0.00000     0.00000     1.95811  0.0
     13      4      5      6   5     0.00000     0.00000     1.25520  0.0
     13      4      5     15   5     0.00000     0.00000     1.25520  0.0
     13      4      5     16   5     0.00000     0.00000     1.25520  0.0
     14      4      5      6   5     0.00000     0.00000     1.25520  0.0
     14      4      5     15   5     0.00000     0.00000     1.25520  0.0
     14      4      5     16   5     0.00000     0.00000     1.25520  0.0
      4      5      6      7   5     4.74884    -0.63178     1.67360  0.0
      4      5      6     17   5     0.00000     0.00000     1.25520  0.0
      4      5      6     18   5     0.00000     0.00000     1.25520  0.0
     15      5      6      7   5     0.00000     0.00000     1.25520  0.0
     15      5      6     17   5     0.00000     0.00000     1.25520  0.0
     15      5      6     18   5     0.00000     0.00000     1.25520  0.0
     16      5      6      7   5     0.00000     0.00000     1.25520  0.0
     16      5      6     17   5     0.00000     0.00000     1.25520  0.0
     16      5      6     18   5     0.00000     0.00000     1.25520  0.0
      5      6      7      8   5     4.74884    -0.63178     1.67360  0.0
      5      6      7     19   5     0.00000     0.00000     1.25520  0.0
      5      6      7     20   5     0.00000     0.00000     1.25520  0.0
     17      6      7      8   5     0.00000     0.00000     1.25520  0.0
     17      6      7     19   5     0.00000     0.00000     1.25520  0.0
     17      6      7     20   5     0.00000     0.00000     1.25520  0.0
     18      6      7      8   5     0.00000     0.00000     1.25520  0.0
     18      6      7     19   5     0.00000     0.00000     1.25520  0.0
     18      6      7     20   5     0.00000     0.00000     1.25520  0.0
      6      7      8      9   5     4.74884    -0.63178     1.67360  0.0
      6      7      8     21   5     0.00000     0.00000     1.25520  0.0
      6      7      8     22   5     0.00000     0.00000     1.25520  0.0
     19      7      8      9   5     0.00000     0.00000     1.25520  0.0
     19      7      8     21   5     0.00000     0.00000     1.25520  0.0
     19      7      8     22   5     0.00000     0.00000     1.25520  0.0
     20      7      8      9   5     0.00000     0.00000     1.25520  0.0
     20      7      8     21   5     0.00000     0.00000     1.25520  0.0
     20      7      8     22   5     0.00000     0.00000     1.25520  0.0
      7      8      9     23   5     0.00000     0.00000     1.25520  0.0
      7      8      9     24   5     0.00000     0.00000     1.25520  0.0
      7      8      9     25   5     0.00000     0.00000     1.25520  0.0
     21      8      9     23   5     0.00000     0.00000     1.25520  0.0
     21      8      9     24   5     0.00000     0.00000     1.25520  0.0
     21      8      9     25   5     0.00000     0.00000     1.25520  0.0
     22      8      9     23   5     0.00000     0.00000     1.25520  0.0
     22      8      9     24   5     0.00000     0.00000     1.25520  0.0
     22      8      9     25   5     0.00000     0.00000     1.25520  0.0
      2     27     28     29   5     5.25092    -2.58990     2.28446  0.0
      2     27     28     38   5     0.00000     0.00000     1.25520  0.0
      2     27     28     52   5     4.74884    -0.63178     1.67360  0.0
     36     27     28     29   5     0.00000     0.00000     1.95811  0.0
     36     27     28     38   5     0.00000     0.00000     1.25520  0.0
     36     27     28     52   5     0.00000     0.00000     1.25520  0.0
     37     27     28     29   5     0.00000     0.00000     1.95811  0.0
     37     27     28     38   5     0.00000     0.00000     1.25520  0.0
     37     27     28     52   5     0.00000     0.00000     1.25520  0.0
     27     28     29     30   5     0.52300    -0.09205     2.34722  0.0
     38     28     29     30   5     0.00000     0.00000     3.10034  0.0
     52     28     29     30   5     0.52300    -0.09205     2.34722  0.0
     27     28     52     53   5     4.74884    -0.63178     1.67360  0.0
     27     28     52     61   5     0.00000     0.00000     1.25520  0.0
     27     28     52     62   5     0.00000     0.00000     1.25520  0.0
     29     28     52     53   5     5.25092    -2.58990     2.28446  0.0
     29     28     52     61   5     0.00000     0.00000     1.95811  0.0
     29     28     52     62   5     0.00000     0.00000     1.95811  0.0
     38     28     52     53   5     0.00000     0.00000     1.25520  0.0
     38     28     52     61   5     0.00000     0.00000     1.25520  0.0
     38     28     52     62   5     0.00000     0.00000     1.25520  0.0
     28     29     30     31   5     0.52300    -0.09205     2.34722  0.0
     28     29     30     39   5     0.00000     0.00000     3.10034  0.0
     28     29     30     40   5     0.00000     0.00000     3.10034  0.0
     29     30     31     32   5     5.25092    -2.58990     2.28446  0.0
     29     30     31     41   5     0.00000     0.00000     1.95811  0.0
     29     30     31     42   5     0.00000     0.00000     1.95811  0.0
     39     30     31     32   5     0.00000     0.00000     1.25520  0.0
     39     30     31     41   5     0.00000     0.00000     1.25520  0.0
     39     30     31     42   5     0.00000     0.00000     1.25520  0.0
     40     30     31     32   5     0.00000     0.00000     1.25520  0.0
     40     30     31     41   5     0.00000     0.00000     1.25520  0.0
     40     30     31     42   5     0.00000     0.00000     1.25520  0.0
     30     31     32     33   5     4.74884    -0.63178     1.67360  0.0
     30     31     32     43   5     0.00000     0.00000     1.25520  0.0
     30     31     32     44   5     0.00000     0.00000     1.25520  0.0
     41     31     32     33   5     0.00000     0.00000     1.25520  0.0
     41     31     32     43   5     0.00000     0.00000     1.25520  0.0
     41     31     32     44   5     0.00000     0.00000     1.25520  0.0
     42     31     32     33   5     0.00000     0.00000     1.25520  0.0
     42     31     32     43   5     0.00000     0.00000     1.25520  0.0
     42     31     32     44   5     0.00000     0.00000     1.25520  0.0
     31     32     33     34   5     4.74884    -0.63178     1.67360  0.0
     31     32     33     45   5     0.00000     0.00000     1.25520  0.0
     31     32     33     46   5     0.00000     0.00000     1.25520  0.0
     43     32     33     34   5     0.00000     0.00000     1.25520  0.0
     43     32     33     45   5     0.00000     0.00000     1.25520  0.0
     43     32     33     46   5     0.00000     0.00000     1.25520  0.0
     44     32     33     34   5     0.00000     0.00000     1.25520  0.0
     44     32     33     45   5     0.00000     0.00000     1.25520  0.0
     44     32     33     46   5     0.00000     0.00000     1.25520  0.0
     32     33     34     35   5     4.74884    -0.63178     1.67360  0.0
     32     33     34     47   5     0.00000     0.00000     1.25520  0.0
     32     33     34     48   5     0.00000     0.00000     1.25520  0.0
     45     33     34     35   5     0.00000     0.00000     1.25520  0.0
     45     33     34     47   5     0.00000     0.00000     1.25520  0.0
     45     33     34     48   5     0.00000     0.00000     1.25520  0.0
     46     33     34     35   5     0.00000     0.00000     1.25520  0.0
     46     33     34     47   5     0.00000     0.00000     1.25520  0.0
     46     33     34     48   5     0.00000     0.00000     1.25520  0.0
     33     34     35     49   5     0.00000     0.00000     1.25520  0.0
     33     34     35     50   5     0.00000     0.00000     1.25520  0.0
     33     34     35     51   5     0.00000     0.00000     1.25520  0.0
     47     34     35     49   5     0.00000     0.00000     1.25520  0.0
     47     34     35     50   5     0.00000     0.00000     1.25520  0.0
     47     34     35     51   5     0.00000     0.00000     1.25520  0.0
     48     34     35     49   5     0.00000     0.00000     1.25520  0.0
     48     34     35     50   5     0.00000     0.00000     1.25520  0.0
     48     34     35     51   5     0.00000     0.00000     1.25520  0.0
     28     52     53     54   5     5.25092    -2.58990     2.28446  0.0
     28     52     53     63   5     0.00000     0.00000     1.25520  0.0
     28     52     53     77   5     4.74884    -0.63178     1.67360  0.0
     61     52     53     54   5     0.00000     0.00000     1.95811  0.0
     61     52     53     63   5     0.00000     0.00000     1.25520  0.0
     61     52     53     77   5     0.00000     0.00000     1.25520  0.0
     62     52     53     54   5     0.00000     0.00000     1.95811  0.0
     62     52     53     63   5     0.00000     0.00000     1.25520  0.0
     62     52     53     77   5     0.00000     0.00000     1.25520  0.0
     52     53     54     55   5     0.52300    -0.09205     2.34722  0.0
     63     53     54     55   5     0.00000     0.00000     3.10034  0.0
     77     53     54     55   5     0.52300    -0.09205     2.34722  0.0
     52     53     77     78   5     4.74884    -0.63178     1.67360  0.0
     52     53     77     86   5     0.00000     0.00000     1.25520  0.0
     52     53     77     87   5     0.00000     0.00000     1.25520  0.0
     54     53     77     78   5     5.25092    -2.58990     2.28446  0.0
     54     53     77     86   5     0.00000     0.00000     1.95811  0.0
     54     53     77     87   5     0.00000     0.00000     1.95811  0.0
     63     53     77     78   5     0.00000     0.00000     1.25520  0.0
     63     53     77     86   5     0.00000     0.00000     1.25520  0.0
     63     53     77     87   5     0.00000     0.00000     1.25520  0.0
     53     54     55     56   5     0.52300    -0.09205     2.34722  0.0
     53     54     55     64   5     0.00000     0.00000     3.10034  0.0
     53     54     55     65   5     0.00000     0.00000     3.10034  0.0
     54     55     56     57   5     5.25092    -2.58990     2.28446  0.0
     54     55     56     66   5     0.00000     0.00000     1.95811  0.0
     54     55     56     67   5     0.00000     0.00000     1.95811  0.0
     64     55     56     57   5     0.00000     0.00000     1.25520  0.0
     64     55     56     66   5     0.00000     0.00000     1.25520  0.0
     64     55     56     67   5     0.00000     0.00000     1.25520  0.0
     65     55     56     57   5     0.00000     0.00000     1.25520  0.0
     65     55     56     66   5     0.00000     0.00000     1.25520  0.0
     65     55     56     67   5     0.00000     0.00000     1.25520  0.0
     55     56     57     58   5     4.74884    -0.63178     1.67360  0.0
     55     56     57     68   5     0.00000     0.00000     1.25520  0.0
     55     56     57     69   5     0.00000     0.00000     1.25520  0.0
     66     56     57     58   5     0.00000     0.00000     1.25520  0.0
     66     56     57     68   5     0.00000     0.00000     1.25520  0.0
     66     56     57     69   5     0.00000     0.00000     1.25520  0.0
     67     56     57     58   5     0.00000     0.00000     1.25520  0.0
     67     56     57     68   5     0.00000     0.00000     1.25520  0.0
     67     56     57     69   5     0.00000     0.00000     1.25520  0.0
     56     57     58     59   5     4.74884    -0.63178     1.67360  0.0
     56     57     58     70   5     0.00000     0.00000     1.25520  0.0
     56     57     58     71   5     0.00000     0.00000     1.25520  0.0
     68     57     58     59   5     0.00000     0.00000     1.25520  0.0
     68     57     58     70   5     0.00000     0.00000     1.25520  0.0
     68     57     58     71   5     0.00000     0.00000     1.25520  0.0
     69     57     58     59   5     0.00000     0.00000     1.25520  0.0
     69     57     58     70   5     0.00000     0.00000     1.25520  0.0
     69     57     58     71   5     0.00000     0.00000     1.25520  0.0
     57     58     59     60   5     4.74884    -0.63178     1.67360  0.0
     57     58     59     72   5     0.00000     0.00000     1.25520  0.0
     57     58     59     73   5     0.00000     0.00000     1.25520  0.0
     70     58     59     60   5     0.00000     0.00000     1.25520  0.0
     70     58     59     72   5     0.00000     0.00000     1.25520  0.0
     70     58     59     73   5     0.00000     0.00000     1.25520  0.0
     71     58     59     60   5     0.00000     0.00000     1.25520  0.0
     71     58     59     72   5     0.00000     0.00000     1.25520  0.0
     71     58     59     73   5     0.00000     0.00000     1.25520  0.0
     58     59     60     74   5     0.00000     0.00000     1.25520  0.0
     58     59     60     75   5     0.00000     0.00000     1.25520  0.0
     58     59     60     76   5     0.00000     0.00000     1.25520  0.0
     72     59     60     74   5     0.00000     0.00000     1.25520  0.0
     72     59     60     75   5     0.00000     0.00000     1.25520  0.0
     72     59     60     76   5     0.00000     0.00000     1.25520  0.0
     73     59     60     74   5     0.00000     0.00000     1.25520  0.0
     73     59     60     75   5     0.00000     0.00000     1.25520  0.0
     73     59     60     76   5     0.00000     0.00000     1.25520  0.0
     53     77     78     79   5     5.25092    -2.58990     2.28446  0.0
     53     77     78     88   5     0.00000     0.00000     1.25520  0.0
     53     77     78    102   5     4.74884    -0.63178     1.67360  0.0
     86     77     78     79   5     0.00000     0.00000     1.95811  0.0
     86     77     78     88   5     0.00000     0.00000     1.25520  0.0
     86     77     78    102   5     0.00000     0.00000     1.25520  0.0
     87     77     78     79   5     0.00000     0.00000     1.95811  0.0
     87     77     78     88   5     0.00000     0.00000     1.25520  0.0
     87     77     78    102   5     0.00000     0.00000     1.25520  0.0
     77     78     79     80   5     0.52300    -0.09205     2.34722  0.0
     88     78     79     80   5     0.00000     0.00000     3.10034  0.0
    102     78     79     80   5     0.52300    -0.09205     2.34722  0.0
     77     78    102    103   5     4.74884    -0.63178     1.67360  0.0
     77     78    102    111   5     0.00000     0.00000     1.25520  0.0
     77     78    102    112   5     0.00000     0.00000     1.25520  0.0
     79     78    102    103   5     5.25092    -2.58990     2.28446  0.0
     79     78    102    111   5     0.00000     0.00000     1.95811  0.0
     79     78    102    112   5     0.00000     0.00000     1.95811  0.0
     88     78    102    103   5     0.00000     0.00000     1.25520  0.0
     88     78    102    111   5     0.00000     0.00000     1.25520  0.0
     88     78    102    112   5     0.00000     0.00000     1.25520  0.0
     78     79     80     81   5     0.52300    -0.09205     2.34722  0.0
     78     79     80     89   5     0.00000     0.00000     3.10034  0.0
     78     79     80     90   5     0.00000     0.00000     3.10034  0.0
     79     80     81     82   5     5.25092    -2.58990     2.28446  0.0
     79     80     81     91   5     0.00000     0.00000     1.95811  0.0
     79     80     81     92   5     0.00000     0.00000     1.95811  0.0
     89     80     81     82   5     0.00000     0.00000     1.25520  0.0
     89     80     81     91   5     0.00000     0.00000     1.25520  0.0
     89     80     81     92   5     0.00000     0.00000     1.25520  0.0
     90     80     81     82   5     0.00000     0.00000     1.25520  0.0
     90     80     81     91   5     0.00000     0.00000     1.25520  0.0
     90     80     81     92   5     0.00000     0.00000     1.25520  0.0
     80     81     82     83   5     4.74884    -0.63178     1.67360  0.0
     80     81     82     93   5     0.00000     0.00000     1.25520  0.0
     80     81     82     94   5     0.00000     0.00000     1.25520  0.0
     91     81     82     83   5     0.00000     0.00000     1.25520  0.0
     91     81     82     93   5     0.00000     0.00000     1.25520  0.0
     91     81     82     94   5     0.00000     0.00000     1.25520  0.0
     92     81     82     83   5     0.00000     0.00000     1.25520  0.0
     92     81     82     93   5     0.00000     0.00000     1.25520  0.0
     92     81     82     94   5     0.00000     0.00000     1.25520  0.0
     81     82     83     84   5     4.74884    -0.63178     1.67360  0.0
     81     82     83     95   5     0.00000     0.00000     1.25520  0.0
     81     82     83     96   5     0.00000     0.00000     1.25520  0.0
     93     82     83     84   5     0.00000     0.00000     1.25520  0.0
     93     82     83     95   5     0.00000     0.00000     1.25520  0.0
     93     82     83     96   5     0.00000     0.00000     1.25520  0.0
     94     82     83     84   5     0.00000     0.00000     1.25520  0.0
     94     82     83     95   5     0.00000     0.00000     1.25520  0.0
     94     82     83     96   5     0.00000     0.00000     1.25520  0.0
     82     83     84     85   5     4.74884    -0.63178     1.67360  0.0
     82     83     84     97   5     0.00000     0.00000     1.25520  0.0
     82     83     84     98   5     0.00000     0.00000     1.25520  0.0
     95     83     84     85   5     0.00000     0.00000     1.25520  0.0
     95     83     84     97   5     0.00000     0.00000     1.25520  0.0
     95     83     84     98   5     0.00000     0.00000     1.25520  0.0
     96     83     84     85   5     0.00000     0.00000     1.25520  0.0
     96     83     84     97   5     0.00000     0.00000     1.25520  0.0
     96     83     84     98   5     0.00000     0.00000     1.25520  0.0
     83     84     85     99   5     0.00000     0.00000     1.25520  0.0
     83     84     85    100   5     0.00000     0.00000     1.25520  0.0
     83     84     85    101   5     0.00000     0.00000     1.25520  0.0
     97     84     85     99   5     0.00000     0.00000     1.25520  0.0
     97     84     85    100   5     0.00000     0.00000     1.25520  0.0
     97     84     85    101   5     0.00000     0.00000     1.25520  0.0
     98     84     85     99   5     0.00000     0.00000     1.25520  0.0
     98     84     85    100   5     0.00000     0.00000     1.25520  0.0
     98     84     85    101   5     0.00000     0.00000     1.25520  0.0
     78    102    103    104   5     5.25092    -2.58990     2.28446  0.0
     78    102    103    113   5     0.00000     0.00000     1.25520  0.0
     78    102    103    127   5     4.74884    -0.63178     1.67360  0.0
    111    102    103    104   5     0.00000     0.00000     1.95811  0.0
    111    102    103    113   5     0.00000     0.00000     1.25520  0.0
    111    102    103    127   5     0.00000     0.00000     1.25520  0.0
    112    102    103    104   5     0.00000     0.00000     1.95811  0.0
    112    102    103    113   5     0.00000     0.00000     1.25520  0.0
    112    102    103    127   5     0.00000     0.00000     1.25520  0.0
    102    103    104    105   5     0.52300    -0.09205     2.34722  0.0
    113    103    104    105   5     0.00000     0.00000     3.10034  0.0
    127    103    104    105   5     0.52300    -0.09205     2.34722  0.0
    102    103    127    128   5     4.74884    -0.63178     1.67360  0.0
    102    103    127    136   5     0.00000     0.00000     1.25520  0.0
    102    103    127    137   5     0.00000     0.00000     1.25520  0.0
    104    103    127    128   5     5.25092    -2.58990     2.28446  0.0
    104    103    127    136   5     0.00000     0.00000     1.95811  0.0
    104    103    127    137   5     0.00000     0.00000     1.95811  0.0
    113    103    127    128   5     0.00000     0.00000     1.25520  0.0
    113    103    127    136   5     0.00000     0.00000     1.25520  0.0
    113    103    127    137   5     0.00000     0.00000     1.25520  0.0
    103    104    105    106   5     0.52300    -0.09205     2.34722  0.0
    103    104    105    114   5     0.00000     0.00000     3.10034  0.0
    103    104    105    115   5     0.00000     0.00000     3.10034  0.0
    104    105    106    107   5     5.25092    -2.58990     2.28446  0.0
    104    105    106    116   5     0.00000     0.00000     1.95811  0.0
    104    105    106    117   5     0.00000     0.00000     1.95811  0.0
    114    105    106    107   5     0.00000     0.00000     1.25520  0.0
    114    105    106    116   5     0.00000     0.00000     1.25520  0.0
    114    105    106    117   5     0.00000     0.00000     1.25520  0.0
    115    105    106    107   5     0.00000     0.00000     1.25520  0.0
    115    105    106    116   5     0.00000     0.00000     1.25520  0.0
    115    105    106    117   5     0.00000     0.00000     1.25520  0.0
    105    106    107    108   5     4.74884    -0.63178     1.67360  0.0
    105    106    107    118   5     0.00000     0.00000     1.25520  0.0
    105    106    107    119   5     0.00000     0.00000     1.25520  0.0
    116    106    107    108   5     0.00000     0.00000     1.25520  0.0
    116    106    107    118   5     0.00000     0.00000     1.25520  0.0
    116    106    107    119   5     0.00000     0.00000     1.25520  0.0
    117    106    107    108   5     0.00000     0.00000     1.25520  0.0
    117    106    107    118   5     0.00000     0.00000     1.25520  0.0
    117    106    107    119   5     0.00000     0.00000     1.25520  0.0
    106    107    108    109   5     4.74884    -0.63178     1.67360  0.0
    106    107    108    120   5     0.00000     0.00000     1.25520  0.0
    106    107    108    121   5     0.00000     0.00000     1.25520  0.0
    118    107    108    109   5     0.00000     0.00000     1.25520  0.0
    118    107    108    120   5     0.00000     0.00000     1.25520  0.0
    118    107    108    121   5     0.00000     0.00000     1.25520  0.0
    119    107    108    109   5     0.00000     0.00000     1.25520  0.0
    119    107    108    120   5     0.00000     0.00000     1.25520  0.0
    119    107    108    121   5     0.00000     0.00000     1.25520  0.0
    107    108    109    110   5     4.74884    -0.63178     1.67360  0.0
    107    108    109    122   5     0.00000     0.00000     1.25520  0.0
    107    108    109    123   5     0.00000     0.00000     1.25520  0.0
    120    108    109    110   5     0.00000     0.00000     1.25520  0.0
    120    108    109    122   5     0.00000     0.00000     1.25520  0.0
    120    108    109    123   5     0.00000     0.00000     1.25520  0.0
    121    108    109    110   5     0.00000     0.00000     1.25520  0.0
    121    108    109    122   5     0.00000     0.00000     1.25520  0.0
    121    108    109    123   5     0.00000     0.00000     1.25520  0.0
    108    109    110    124   5     0.00000     0.00000     1.25520  0.0
    108    109    110    125   5     0.00000     0.00000     1.25520  0.0
    108    109    110    126   5     0.00000     0.00000     1.25520  0.0
    122    109    110    124   5     0.00000     0.00000     1.25520  0.0
    122    109    110    125   5     0.00000     0.00000     1.25520  0.0
    122    109    110    126   5     0.00000     0.00000     1.25520  0.0
    123    109    110    124   5     0.00000     0.00000     1.25520  0.0
    123    109    110    125   5     0.00000     0.00000     1.25520  0.0
    123    109    110    126   5     0.00000     0.00000     1.25520  0.0
    103    127    128    129   5     5.25092    -2.58990     2.28446  0.0
    103    127    128    138   5     0.00000     0.00000     1.25520  0.0
    103    127    128    152   5     4.74884    -0.63178     1.67360  0.0
    136    127    128    129   5     0.00000     0.00000     1.95811  0.0
    136    127    128    138   5     0.00000     0.00000     1.25520  0.0
    136    127    128    152   5     0.00000     0.00000     1.25520  0.0
    137    127    128    129   5     0.00000     0.00000     1.95811  0.0
    137    127    128    138   5     0.00000     0.00000     1.25520  0.0
    137    127    128    152   5     0.00000     0.00000     1.25520  0.0
    127    128    129    130   5     0.52300    -0.09205     2.34722  0.0
    138    128    129    130   5     0.00000     0.00000     3.10034  0.0
    152    128    129    130   5     0.52300    -0.09205     2.34722  0.0
    127    128    152    153   5     4.74884    -0.63178     1.67360  0.0
    127    128    152    161   5     0.00000     0.00000     1.25520  0.0
    127    128    152    162   5     0.00000     0.00000     1.25520  0.0
    129    128    152    153   5     5.25092    -2.58990     2.28446  0.0
    129    128    152    161   5     0.00000     0.00000     1.95811  0.0
    129    128    152    162   5     0.00000     0.00000     1.95811  0.0
    138    128    152    153   5     0.00000     0.00000     1.25520  0.0
    138    128    152    161   5     0.00000     0.00000     1.25520  0.0
    138    128    152    162   5     0.00000     0.00000     1.25520  0.0
    128    129    130    131   5     0.52300    -0.09205     2.34722  0.0
    128    129    130    139   5     0.00000     0.00000     3.10034  0.0
    128    129    130    140   5     0.00000     0.00000     3.10034  0.0
    129    130    131    132   5     5.25092    -2.58990     2.28446  0.0
    129    130    131    141   5     0.00000     0.00000     1.95811  0.0
    129    130    131    142   5     0.00000     0.00000     1.95811  0.0
    139    130    131    132   5     0.00000     0.00000     1.25520  0.0
    139    130    131    141   5     0.00000     0.00000     1.25520  0.0
    139    130    131    142   5     0.00000     0.00000     1.25520  0.0
    140    130    131    132   5     0.00000     0.00000     1.25520  0.0
    140    130    131    141   5     0.00000     0.00000     1.25520  0.0
    140    130    131    142   5     0.00000     0.00000     1.25520  0.0
    130    131    132    133   5     4.74884    -0.63178     1.67360  0.0
    130    131    132    143   5     0.00000     0.00000     1.25520  0.0
    130    131    132    144   5     0.00000     0.00000     1.25520  0.0
    141    131    132    133   5     0.00000     0.00000     1.25520  0.0
    141    131    132    143   5     0.00000     0.00000     1.25520  0.0
    141    131    132    144   5     0.00000     0.00000     1.25520  0.0
    142    131    132    133   5     0.00000     0.00000     1.25520  0.0
    142    131    132    143   5     0.00000     0.00000     1.25520  0.0
    142    131    132    144   5     0.00000     0.00000     1.25520  0.0
    131    132    133    134   5     4.74884    -0.63178     1.67360  0.0
    131    132    133    145   5     0.00000     0.00000     1.25520  0.0
    131    132    133    146   5     0.00000     0.00000     1.25520  0.0
    143    132    133    134   5     0.00000     0.00000     1.25520  0.0
    143    132    133    145   5     0.00000     0.00000     1.25520  0.0
    143    132    133    146   5     0.00000     0.00000     1.25520  0.0
    144    132    133    134   5     0.00000     0.00000     1.25520  0.0
    144    132    133    145   5     0.00000     0.00000     1.25520  0.0
    144    132    133    146   5     0.00000     0.00000     1.25520  0.0
    132    133    134    135   5     4.74884    -0.63178     1.67360  0.0
    132    133    134    147   5     0.00000     0.00000     1.25520  0.0
    132    133    134    148   5     0.00000     0.00000     1.25520  0.0
    145    133    134    135   5     0.00000     0.00000     1.25520  0.0
    145    133    134    147   5     0.00000     0.00000     1.25520  0.0
    145    133    134    148   5     0.00000     0.00000     1.25520  0.0
    146    133    134    135   5     0.00000     0.00000     1.25520  0.0
    146    133    134    147   5     0.00000     0.00000     1.25520  0.0
    146    133    134    148   5     0.00000     0.00000     1.25520  0.0
    133    134    135    149   5     0.00000     0.00000     1.25520  0.0
    133    134    135    150   5     0.00000     0.00000     1.25520  0.0
    133    134    135    151   5     0.00000     0.00000     1.25520  0.0
    147    134    135    149   5     0.00000     0.00000     1.25520  0.0
    147    134    135    150   5     0.00000     0.00000     1.25520  0.0
    147    134    135    151   5     0.00000     0.00000     1.25520  0.0
    148    134    135    149   5     0.00000     0.00000     1.25520  0.0
    148    134    135    150   5     0.00000     0.00000     1.25520  0.0
    148    134    135    151   5     0.00000     0.00000     1.25520  0.0
    128    152    153    154   5     5.25092    -2.58990     2.28446  0.0
    128    152    153    163   5     0.00000     0.00000     1.25520  0.0
    128    152    153    177   5     4.74884    -0.63178     1.67360  0.0
    161    152    153    154   5     0.00000     0.00000     1.95811  0.0
    161    152    153    163   5     0.00000     0.00000     1.25520  0.0
    161    152    153    177   5     0.00000     0.00000     1.25520  0.0
    162    152    153    154   5     0.00000     0.00000     1.95811  0.0
    162    152    153    163   5     0.00000     0.00000     1.25520  0.0
    162    152    153    177   5     0.00000     0.00000     1.25520  0.0
    152    153    154    155   5     0.52300    -0.09205     2.34722  0.0
    163    153    154    155   5     0.00000     0.00000     3.10034  0.0
    177    153    154    155   5     0.52300    -0.09205     2.34722  0.0
    152    153    177    178   5     4.74884    -0.63178     1.67360  0.0
    152    153    177    186   5     0.00000     0.00000     1.25520  0.0
    152    153    177    187   5     0.00000     0.00000     1.25520  0.0
    154    153    177    178   5     5.25092    -2.58990     2.28446  0.0
    154    153    177    186   5     0.00000     0.00000     1.95811  0.0
    154    153    177    187   5     0.00000     0.00000     1.95811  0.0
    163    153    177    178   5     0.00000     0.00000     1.25520  0.0
    163    153    177    186   5     0.00000     0.00000     1.25520  0.0
    163    153    177    187   5     0.00000     0.00000     1.25520  0.0
    153    154    155    156   5     0.52300    -0.09205     2.34722  0.0
    153    154    155    164   5     0.00000     0.00000     3.10034  0.0
    153    154    155    165   5     0.00000     0.00000     3.10034  0.0
    154    155    156    157   5     5.25092    -2.58990     2.28446  0.0
    154    155    156    166   5     0.00000     0.00000     1.95811  0.0
    154    155    156    167   5     0.00000     0.00000     1.95811  0.0
    164    155    156    157   5     0.00000     0.00000     1.25520  0.0
    164    155    156    166   5     0.00000     0.00000     1.25520  0.0
    164    155    156    167   5     0.00000     0.00000     1.25520  0.0
    165    155    156    157   5     0.00000     0.00000     1.25520  0.0
    165    155    156    166   5     0.00000     0.00000     1.25520  0.0
    165    155    156    167   5     0.00000     0.00000     1.25520  0.0
    155    156    157    158   5     4.74884    -0.63178     1.67360  0.0
    155    156    157    168   5     0.00000     0.00000     1.25520  0.0
    155    156    157    169   5     0.00000     0.00000     1.25520  0.0
    166    156    157    158   5     0.00000     0.00000     1.25520  0.0
    166    156    157    168   5     0.00000     0.00000     1.25520  0.0
    166    156    157    169   5     0.00000     0.00000     1.25520  0.0
    167    156    157    158   5     0.00000     0.00000     1.25520  0.0
    167    156    157    168   5     0.00000     0.00000     1.25520  0.0
    167    156    157    169   5     0.00000     0.00000     1.25520  0.0
    156    157    158    159   5     4.74884    -0.63178     1.67360  0.0
    156    157    158    170   5     0.00000     0.00000     1.25520  0.0
    156    157    158    171   5     0.00000     0.00000     1.25520  0.0
    168    157    158    159   5     0.00000     0.00000     1.25520  0.0
    168    157    158    170   5     0.00000     0.00000     1.25520  0.0
    168    157    158    171   5     0.00000     0.00000     1.25520  0.0
    169    157    158    159   5     0.00000     0.00000     1.25520  0.0
    169    157    158    170   5     0.00000     0.00000     1.25520  0.0
    169    157    158    171   5     0.00000     0.00000     1.25520  0.0
    157    158    159    160   5     4.74884    -0.63178     1.67360  0.0
    157    158    159    172   5     0.00000     0.00000     1.25520  0.0
    157    158    159    173   5     0.00000     0.00000     1.25520  0.0
    170    158    159    160   5     0.00000     0.00000     1.25520  0.0
    170    158    159    172   5     0.00000     0.00000     1.25520  0.0
    170    158    159    173   5     0.00000     0.00000     1.25520  0.0
    171    158    159    160   5     0.00000     0.00000     1.25520  0.0
    171    158    159    172   5     0.00000     0.00000     1.25520  0.0
    171    158    159    173   5     0.00000     0.00000     1.25520  0.0
    158    159    160    174   5     0.00000     0.00000     1.25520  0.0
    158    159    160    175   5     0.00000     0.00000     1.25520  0.0
    158    159    160    176   5     0.00000     0.00000     1.25520  0.0
    172    159    160    174   5     0.00000     0.00000     1.25520  0.0
    172    159    160    175   5     0.00000     0.00000     1.25520  0.0
    172    159    160    176   5     0.00000     0.00000     1.25520  0.0
    173    159    160    174   5     0.00000     0.00000     1.25520  0.0
    173    159    160    175   5     0.00000     0.00000     1.25520  0.0
    173    159    160    176   5     0.00000     0.00000     1.25520  0.0
    153    177    178    179   5     5.25092    -2.58990     2.28446  0.0
    153    177    178    188   5     0.00000     0.00000     1.25520  0.0
    153    177    178    202   5     4.74884    -0.63178     1.67360  0.0
    186    177    178    179   5     0.00000     0.00000     1.95811  0.0
    186    177    178    188   5     0.00000     0.00000     1.25520  0.0
    186    177    178    202   5     0.00000     0.00000     1.25520  0.0
    187    177    178    179   5     0.00000     0.00000     1.95811  0.0
    187    177    178    188   5     0.00000     0.00000     1.25520  0.0
    187    177    178    202   5     0.00000     0.00000     1.25520  0.0
    177    178    179    180   5     0.52300    -0.09205     2.34722  0.0
    188    178    179    180   5     0.00000     0.00000     3.10034  0.0
    202    178    179    180   5     0.52300    -0.09205     2.34722  0.0
    177    178    202    203   5     4.74884    -0.63178     1.67360  0.0
    177    178    202    211   5     0.00000     0.00000     1.25520  0.0
    177    178    202    212   5     0.00000     0.00000     1.25520  0.0
    179    178    202    203   5     5.25092    -2.58990     2.28446  0.0
    179    178    202    211   5     0.00000     0.00000     1.95811  0.0
    179    178    202    212   5     0.00000     0.00000     1.95811  0.0
    188    178    202    203   5     0.00000     0.00000     1.25520  0.0
    188    178    202    211   5     0.00000     0.00000     1.25520  0.0
    188    178    202    212   5     0.00000     0.00000     1.25520  0.0
    178    179    180    181   5     0.52300    -0.09205     2.34722  0.0
    178    179    180    189   5     0.00000     0.00000     3.10034  0.0
    178    179    180    190   5     0.00000     0.00000     3.10034  0.0
    179    180    181    182   5     5.25092    -2.58990     2.28446  0.0
    179    180    181    191   5     0.00000     0.00000     1.95811  0.0
    179    180    181    192   5     0.00000     0.00000     1.95811  0.0
    189    180    181    182   5     0.00000     0.00000     1.25520  0.0
    189    180    181    191   5     0.00000     0.00000     1.25520  0.0
    189    180    181    192   5     0.00000     0.00000     1.25520  0.0
    190    180    181    182   5     0.00000     0.00000     1.25520  0.0
    190    180    181    191   5     0.00000     0.00000     1.25520  0.0
    190    180    181    192   5     0.00000     0.00000     1.25520  0.0
    180    181    182    183   5     4.74884    -0.63178     1.67360  0.0
    180    181    182    193   5     0.00000     0.00000     1.25520  0.0
    180    181    182    194   5     0.00000     0.00000     1.25520  0.0
    191    181    182    183   5     0.00000     0.00000     1.25520  0.0
    191    181    182    193   5     0.00000     0.00000     1.25520  0.0
    191    181    182    194   5     0.00000     0.00000     1.25520  0.0
    192    181    182    183   5     0.00000     0.00000     1.25520  0.0
    192    181    182    193   5     0.00000     0.00000     1.25520  0.0
    192    181    182    194   5     0.00000     0.00000     1.25520  0.0
    181    182    183    184   5     4.74884    -0.63178     1.67360  0.0
    181    182    183    195   5     0.00000     0.00000     1.25520  0.0
    181    182    183    196   5     0.00000     0.00000     1.25520  0.0
    193    182    183    184   5     0.00000     0.00000     1.25520  0.0
    193    182    183    195   5     0.00000     0.00000     1.25520  0.0
    193    182    183    196   5     0.00000     0.00000     1.25520  0.0
    194    182    183    184   5     0.00000     0.00000     1.25520  0.0
    194    182    183    195   5     0.00000     0.00000     1.25520  0.0
    194    182    183    196   5     0.00000     0.00000     1.25520  0.0
    182    183    184    185   5     4.74884    -0.63178     1.67360  0.0
    182    183    184    197   5     0.00000     0.00000     1.25520  0.0
    182    183    184    198   5     0.00000     0.00000     1.25520  0.0
    195    183    184    185   5     0.00000     0.00000     1.25520  0.0
    195    183    184    197   5     0.00000     0.00000     1.25520  0.0
    195    183    184    198   5     0.00000     0.00000     1.25520  0.0
    196    183    184    185   5     0.00000     0.00000     1.25520  0.0
    196    183    184    197   5     0.00000     0.00000     1.25520  0.0
    196    183    184    198   5     0.00000     0.00000     1.25520  0.0
    183    184    185    199   5     0.00000     0.00000     1.25520  0.0
    183    184    185    200   5     0.00000     0.00000     1.25520  0.0
    183    184    185    201   5     0.00000     0.00000     1.25520  0.0
    197    184    185    199   5     0.00000     0.00000     1.25520  0.0
    197    184    185    200   5     0.00000     0.00000     1.25520  0.0
    197    184    185    201   5     0.00000     0.00000     1.25520  0.0
    198    184    185    199   5     0.00000     0.00000     1.25520  0.0
    198    184    185    200   5     0.00000     0.00000     1.25520  0.0
    198    184    185    201   5     0.00000     0.00000     1.25520  0.0
    178    202    203    204   5     5.25092    -2.58990     2.28446  0.0
    178    202    203    213   5     0.00000     0.00000     1.25520  0.0
    178    202    203    227   5     4.74884    -0.63178     1.67360  0.0
    211    202    203    204   5     0.00000     0.00000     1.95811  0.0
    211    202    203    213   5     0.00000     0.00000     1.25520  0.0
    211    202    203    227   5     0.00000     0.00000     1.25520  0.0
    212    202    203    204   5     0.00000     0.00000     1.95811  0.0
    212    202    203    213   5     0.00000     0.00000     1.25520  0.0
    212    202    203    227   5     0.00000     0.00000     1.25520  0.0
    202    203    204    205   5     0.52300    -0.09205     2.34722  0.0
    213    203    204    205   5     0.00000     0.00000     3.10034  0.0
    227    203    204    205   5     0.52300    -0.09205     2.34722  0.0
    202    203    227    228   5     4.74884    -0.63178     1.67360  0.0
    202    203    227    236   5     0.00000     0.00000     1.25520  0.0
    202    203    227    237   5     0.00000     0.00000     1.25520  0.0
    204    203    227    228   5     5.25092    -2.58990     2.28446  0.0
    204    203    227    236   5     0.00000     0.00000     1.95811  0.0
    204    203    227    237   5     0.00000     0.00000     1.95811  0.0
    213    203    227    228   5     0.00000     0.00000     1.25520  0.0
    213    203    227    236   5     0.00000     0.00000     1.25520  0.0
    213    203    227    237   5     0.00000     0.00000     1.25520  0.0
    203    204    205    206   5     0.52300    -0.09205     2.34722  0.0
    203    204    205    214   5     0.00000     0.00000     3.10034  0.0
    203    204    205    215   5     0.00000     0.00000     3.10034  0.0
    204    205    206    207   5     5.25092    -2.58990     2.28446  0.0
    204    205    206    216   5     0.00000     0.00000     1.95811  0.0
    204    205    206    217   5     0.00000     0.00000     1.95811  0.0
    214    205    206    207   5     0.00000     0.00000     1.25520  0.0
    214    205    206    216   5     0.00000     0.00000     1.25520  0.0
    214    205    206    217   5     0.00000     0.00000     1.25520  0.0
    215    205    206    207   5     0.00000     0.00000     1.25520  0.0
    215    205    206    216   5     0.00000     0.00000     1.25520  0.0
    215    205    206    217   5     0.00000     0.00000     1.25520  0.0
    205    206    207    208   5     4.74884    -0.63178     1.67360  0.0
    205    206    207    218   5     0.00000     0.00000     1.25520  0.0
    205    206    207    219   5     0.00000     0.00000     1.25520  0.0
    216    206    207    208   5     0.00000     0.00000     1.25520  0.0
    216    206    207    218   5     0.00000     0.00000     1.25520  0.0
    216    206    207    219   5     0.00000     0.00000     1.25520  0.0
    217    206    207    208   5     0.00000     0.00000     1.25520  0.0
    217    206    207    218   5     0.00000     0.00000     1.25520  0.0
    217    206    207    219   5     0.00000     0.00000     1.25520  0.0
    206    207    208    209   5     4.74884    -0.63178     1.67360  0.0
    206    207    208    220   5     0.00000     0.00000     1.25520  0.0
    206    207    208    221   5     0.00000     0.00000     1.25520  0.0
    218    207    208    209   5     0.00000     0.00000     1.25520  0.0
    218    207    208    220   5     0.00000     0.00000     1.25520  0.0
    218    207    208    221   5     0.00000     0.00000     1.25520  0.0
    219    207    208    209   5     0.00000     0.00000     1.25520  0.0
    219    207    208    220   5     0.00000     0.00000     1.25520  0.0
    219    207    208    221   5     0.00000     0.00000     1.25520  0.0
    207    208    209    210   5     4.74884    -0.63178     1.67360  0.0
    207    208    209    222   5     0.00000     0.00000     1.25520  0.0
    207    208    209    223   5     0.00000     0.00000     1.25520  0.0
    220    208    209    210   5     0.00000     0.00000     1.25520  0.0
    220    208    209    222   5     0.00000     0.00000     1.25520  0.0
    220    208    209    223   5     0.00000     0.00000     1.25520  0.0
    221    208    209    210   5     0.00000     0.00000     1.25520  0.0
    221    208    209    222   5     0.00000     0.00000     1.25520  0.0
    221    208    209    223   5     0.00000     0.00000     1.25520  0.0
    208    209    210    224   5     0.00000     0.00000     1.25520  0.0
    208    209    210    225   5     0.00000     0.00000     1.25520  0.0
    208    209    210    226   5     0.00000     0.00000     1.25520  0.0
    222    209    210    224   5     0.00000     0.00000     1.25520  0.0
    222    209    210    225   5     0.00000     0.00000     1.25520  0.0
    222    209    210    226   5     0.00000     0.00000     1.25520  0.0
    223    209    210    224   5     0.00000     0.00000     1.25520  0.0
    223    209    210    225   5     0.00000     0.00000     1.25520  0.0
    223    209    210    226   5     0.00000     0.00000     1.25520  0.0
    203    227    228    229   5     5.25092    -2.58990     2.28446  0.0
    203    227    228    238   5     0.00000     0.00000     1.25520  0.0
    203    227    228    252   5     4.74884    -0.63178     1.67360  0.0
    236    227    228    229   5     0.00000     0.00000     1.95811  0.0
    236    227    228    238   5     0.00000     0.00000     1.25520  0.0
    236    227    228    252   5     0.00000     0.00000     1.25520  0.0
    237    227    228    229   5     0.00000     0.00000     1.95811  0.0
    237    227    228    238   5     0.00000     0.00000     1.25520  0.0
    237    227    228    252   5     0.00000     0.00000     1.25520  0.0
    227    228    229    230   5     0.52300    -0.09205     2.34722  0.0
    238    228    229    230   5     0.00000     0.00000     3.10034  0.0
    252    228    229    230   5     0.52300    -0.09205     2.34722  0.0
    227    228    252    253   5     4.74884    -0.63178     1.67360  0.0
    227    228    252    261   5     0.00000     0.00000     1.25520  0.0
    227    228    252    262   5     0.00000     0.00000     1.25520  0.0
    229    228    252    253   5     5.25092    -2.58990     2.28446  0.0
    229    228    252    261   5     0.00000     0.00000     1.95811  0.0
    229    228    252    262   5     0.00000     0.00000     1.95811  0.0
    238    228    252    253   5     0.00000     0.00000     1.25520  0.0
    238    228    252    261   5     0.00000     0.00000     1.25520  0.0
    238    228    252    262   5     0.00000     0.00000     1.25520  0.0
    228    229    230    231   5     0.52300    -0.09205     2.34722  0.0
    228    229    230    239   5     0.00000     0.00000     3.10034  0.0
    228    229    230    240   5     0.00000     0.00000     3.10034  0.0
    229    230    231    232   5     5.25092    -2.58990     2.28446  0.0
    229    230    231    241   5     0.00000     0.00000     1.95811  0.0
    229    230    231    242   5     0.00000     0.00000     1.95811  0.0
    239    230    231    232   5     0.00000     0.00000     1.25520  0.0
    239    230    231    241   5     0.00000     0.00000     1.25520  0.0
    239    230    231    242   5     0.00000     0.00000     1.25520  0.0
    240    230    231    232   5     0.00000     0.00000     1.25520  0.0
    240    230    231    241   5     0.00000     0.00000     1.25520  0.0
    240    230    231    242   5     0.00000     0.00000     1.25520  0.0
    230    231    232    233   5     4.74884    -0.63178     1.67360  0.0
    230    231    232    243   5     0.00000     0.00000     1.25520  0.0
    230    231    232    244   5     0.00000     0.00000     1.25520  0.0
    241    231    232    233   5     0.00000     0.00000     1.25520  0.0
    241    231    232    243   5     0.00000     0.00000     1.25520  0.0
    241    231    232    244   5     0.00000     0.00000     1.25520  0.0
    242    231    232    233   5     0.00000     0.00000     1.25520  0.0
    242    231    232    243   5     0.00000     0.00000     1.25520  0.0
    242    231    232    244   5     0.00000     0.00000     1.25520  0.0
    231    232    233    234   5     4.74884    -0.63178     1.67360  0.0
    231    232    233    245   5     0.00000     0.00000     1.25520  0.0
    231    232    233    246   5     0.00000     0.00000     1.25520  0.0
    243    232    233    234   5     0.00000     0.00000     1.25520  0.0
    243    232    233    245   5     0.00000     0.00000     1.25520  0.0
    243    232    233    246   5     0.00000     0.00000     1.25520  0.0
    244    232    233    234   5     0.00000     0.00000     1.25520  0.0
    244    232    233    245   5     0.00000     0.00000     1.25520  0.0
    244    232    233    246   5     0.00000     0.00000     1.25520  0.0
    232    233    234    235   5     4.74884    -0.63178     1.67360  0.0
    232    233    234    247   5     0.00000     0.00000     1.25520  0.0
    232    233    234    248   5     0.00000     0.00000     1.25520  0.0
    245    233    234    235   5     0.00000     0.00000     1.25520  0.0
    245    233    234    247   5     0.00000     0.00000     1.25520  0.0
    245    233    234    248   5     0.00000     0.00000     1.25520  0.0
    246    233    234    235   5     0.00000     0.00000     1.25520  0.0
    246    233    234    247   5     0.00000     0.00000     1.25520  0.0
    246    233    234    248   5     0.00000     0.00000     1.25520  0.0
    233    234    235    249   5     0.00000     0.00000     1.25520  0.0
    233    234    235    250   5     0.00000     0.00000     1.25520  0.0
    233    234    235    251   5     0.00000     0.00000     1.25520  0.0
    247    234    235    249   5     0.00000     0.00000     1.25520  0.0
    247    234    235    250   5     0.00000     0.00000     1.25520  0.0
    247    234    235    251   5     0.00000     0.00000     1.25520  0.0
    248    234    235    249   5     0.00000     0.00000     1.25520  0.0
    248    234    235    250   5     0.00000     0.00000     1.25520  0.0
    248    234    235    251   5     0.00000     0.00000     1.25520  0.0
    228    252    253    254   5     5.25092    -2.58990     2.28446  0.0
    228    252    253    263   5     0.00000     0.00000     1.25520  0.0
    228    252    253    277   5     4.74884    -0.63178     1.67360  0.0
    261    252    253    254   5     0.00000     0.00000     1.95811  0.0
    261    252    253    263   5     0.00000     0.00000     1.25520  0.0
    261    252    253    277   5     0.00000     0.00000     1.25520  0.0
    262    252    253    254   5     0.00000     0.00000     1.95811  0.0
    262    252    253    263   5     0.00000     0.00000     1.25520  0.0
    262    252    253    277   5     0.00000     0.00000     1.25520  0.0
    252    253    254    255   5     0.52300    -0.09205     2.34722  0.0
    263    253    254    255   5     0.00000     0.00000     3.10034  0.0
    277    253    254    255   5     0.52300    -0.09205     2.34722  0.0
    252    253    277    278   5     4.74884    -0.63178     1.67360  0.0
    252    253    277    286   5     0.00000     0.00000     1.25520  0.0
    252    253    277    287   5     0.00000     0.00000     1.25520  0.0
    254    253    277    278   5     5.25092    -2.58990     2.28446  0.0
    254    253    277    286   5     0.00000     0.00000     1.95811  0.0
    254    253    277    287   5     0.00000     0.00000     1.95811  0.0
    263    253    277    278   5     0.00000     0.00000     1.25520  0.0
    263    253    277    286   5     0.00000     0.00000     1.25520  0.0
    263    253    277    287   5     0.00000     0.00000     1.25520  0.0
    253    254    255    256   5     0.52300    -0.09205     2.34722  0.0
    253    254    255    264   5     0.00000     0.00000     3.10034  0.0
    253    254    255    265   5     0.00000     0.00000     3.10034  0.0
    254    255    256    257   5     5.25092    -2.58990     2.28446  0.0
    254    255    256    266   5     0.00000     0.00000     1.95811  0.0
    254    255    256    267   5     0.00000     0.00000     1.95811  0.0
    264    255    256    257   5     0.00000     0.00000     1.25520  0.0
    264    255    256    266   5     0.00000     0.00000     1.25520  0.0
    264    255    256    267   5     0.00000     0.00000     1.25520  0.0
    265    255    256    257   5     0.00000     0.00000     1.25520  0.0
    265    255    256    266   5     0.00000     0.00000     1.25520  0.0
    265    255    256    267   5     0.00000     0.00000     1.25520  0.0
    255    256    257    258   5     4.74884    -0.63178     1.67360  0.0
    255    256    257    268   5     0.00000     0.00000     1.25520  0.0
    255    256    257    269   5     0.00000     0.00000     1.25520  0.0
    266    256    257    258   5     0.00000     0.00000     1.25520  0.0
    266    256    257    268   5     0.00000     0.00000     1.25520  0.0
    266    256    257    269   5     0.00000     0.00000     1.25520  0.0
    267    256    257    258   5     0.00000     0.00000     1.25520  0.0
    267    256    257    268   5     0.00000     0.00000     1.25520  0.0
    267    256    257    269   5     0.00000     0.00000     1.25520  0.0
    256    257    258    259   5     4.74884    -0.63178     1.67360  0.0
    256    257    258    270   5     0.00000     0.00000     1.25520  0.0
    256    257    258    271   5     0.00000     0.00000     1.25520  0.0
    268    257    258    259   5     0.00000     0.00000     1.25520  0.0
    268    257    258    270   5     0.00000     0.00000     1.25520  0.0
    268    257    258    271   5     0.00000     0.00000     1.25520  0.0
    269    257    258    259   5     0.00000     0.00000     1.25520  0.0
    269    257    258    270   5     0.00000     0.00000     1.25520  0.0
    269    257    258    271   5     0.00000     0.00000     1.25520  0.0
    257    258    259    260   5     4.74884    -0.63178     1.67360  0.0
    257    258    259    272   5     0.00000     0.00000     1.25520  0.0
    257    258    259    273   5     0.00000     0.00000     1.25520  0.0
    270    258    259    260   5     0.00000     0.00000     1.25520  0.0
    270    258    259    272   5     0.00000     0.00000     1.25520  0.0
    270    258    259    273   5     0.00000     0.00000     1.25520  0.0
    271    258    259    260   5     0.00000     0.00000     1.25520  0.0
    271    258    259    272   5     0.00000     0.00000     1.25520  0.0
    271    258    259    273   5     0.00000     0.00000     1.25520  0.0
    258    259    260    274   5     0.00000     0.00000     1.25520  0.0
    258    259    260    275   5     0.00000     0.00000     1.25520  0.0
    258    259    260    276   5     0.00000     0.00000     1.25520  0.0
    272    259    260    274   5     0.00000     0.00000     1.25520  0.0
    272    259    260    275   5     0.00000     0.00000     1.25520  0.0
    272    259    260    276   5     0.00000     0.00000     1.25520  0.0
    273    259    260    274   5     0.00000     0.00000     1.25520  0.0
    273    259    260    275   5     0.00000     0.00000     1.25520  0.0
    273    259    260    276   5     0.00000     0.00000     1.25520  0.0
    253    277    278    279   5     5.25092    -2.58990     2.28446  0.0
    253    277    278    288   5     0.00000     0.00000     1.25520  0.0
    253    277    278    302   5     4.74884    -0.63178     1.67360  0.0
    286    277    278    279   5     0.00000     0.00000     1.95811  0.0
    286    277    278    288   5     0.00000     0.00000     1.25520  0.0
    286    277    278    302   5     0.00000     0.00000     1.25520  0.0
    287    277    278    279   5     0.00000     0.00000     1.95811  0.0
    287    277    278    288   5     0.00000     0.00000     1.25520  0.0
    287    277    278    302   5     0.00000     0.00000     1.25520  0.0
    277    278    279    280   5     0.52300    -0.09205     2.34722  0.0
    288    278    279    280   5     0.00000     0.00000     3.10034  0.0
    302    278    279    280   5     0.52300    -0.09205     2.34722  0.0
    277    278    302    303   5     4.74884    -0.63178     1.67360  0.0
    277    278    302    311   5     0.00000     0.00000     1.25520  0.0
    277    278    302    312   5     0.00000     0.00000     1.25520  0.0
    279    278    302    303   5     5.25092    -2.58990     2.28446  0.0
    279    278    302    311   5     0.00000     0.00000     1.95811  0.0
    279    278    302    312   5     0.00000     0.00000     1.95811  0.0
    288    278    302    303   5     0.00000     0.00000     1.25520  0.0
    288    278    302    311   5     0.00000     0.00000     1.25520  0.0
    288    278    302    312   5     0.00000     0.00000     1.25520  0.0
    278    279    280    281   5     0.52300    -0.09205     2.34722  0.0
    278    279    280    289   5     0.00000     0.00000     3.10034  0.0
    278    279    280    290   5     0.00000     0.00000     3.10034  0.0
    279    280    281    282   5     5.25092    -2.58990     2.28446  0.0
    279    280    281    291   5     0.00000     0.00000     1.95811  0.0
    279    280    281    292   5     0.00000     0.00000     1.95811  0.0
    289    280    281    282   5     0.00000     0.00000     1.25520  0.0
    289    280    281    291   5     0.00000     0.00000     1.25520  0.0
    289    280    281    292   5     0.00000     0.00000     1.25520  0.0
    290    280    281    282   5     0.00000     0.00000     1.25520  0.0
    290    280    281    291   5     0.00000     0.00000     1.25520  0.0
    290    280    281    292   5     0.00000     0.00000     1.25520  0.0
    280    281    282    283   5     4.74884    -0.63178     1.67360  0.0
    280    281    282    293   5     0.00000     0.00000     1.25520  0.0
    280    281    282    294   5     0.00000     0.00000     1.25520  0.0
    291    281    282    283   5     0.00000     0.00000     1.25520  0.0
    291    281    282    293   5     0.00000     0.00000     1.25520  0.0
    291    281    282    294   5     0.00000     0.00000     1.25520  0.0
    292    281    282    283   5     0.00000     0.00000     1.25520  0.0
    292    281    282    293   5     0.00000     0.00000     1.25520  0.0
    292    281    282    294   5     0.00000     0.00000     1.25520  0.0
    281    282    283    284   5     4.74884    -0.63178     1.67360  0.0
    281    282    283    295   5     0.00000     0.00000     1.25520  0.0
    281    282    283    296   5     0.00000     0.00000     1.25520  0.0
    293    282    283    284   5     0.00000     0.00000     1.25520  0.0
    293    282    283    295   5     0.00000     0.00000     1.25520  0.0
    293    282    283    296   5     0.00000     0.00000     1.25520  0.0
    294    282    283    284   5     0.00000     0.00000     1.25520  0.0
    294    282    283    295   5     0.00000     0.00000     1.25520  0.0
    294    282    283    296   5     0.00000     0.00000     1.25520  0.0
    282    283    284    285   5     4.74884    -0.63178     1.67360  0.0
    282    283    284    297   5     0.00000     0.00000     1.25520  0.0
    282    283    284    298   5     0.00000     0.00000     1.25520  0.0
    295    283    284    285   5     0.00000     0.00000     1.25520  0.0
    295    283    284    297   5     0.00000     0.00000     1.25520  0.0
    295    283    284    298   5     0.00000     0.00000     1.25520  0.0
    296    283    284    285   5     0.00000     0.00000     1.25520  0.0
    296    283    284    297   5     0.00000     0.00000     1.25520  0.0
    296    283    284    298   5     0.00000     0.00000     1.25520  0.0
    283    284    285    299   5     0.00000     0.00000     1.25520  0.0
    283    284    285    300   5     0.00000     0.00000     1.25520  0.0
    283    284    285    301   5     0.00000     0.00000     1.25520  0.0
    297    284    285    299   5     0.00000     0.00000     1.25520  0.0
    297    284    285    300   5     0.00000     0.00000     1.25520  0.0
    297    284    285    301   5     0.00000     0.00000     1.25520  0.0
    298    284    285    299   5     0.00000     0.00000     1.25520  0.0
    298    284    285    300   5     0.00000     0.00000     1.25520  0.0
    298    284    285    301   5     0.00000     0.00000     1.25520  0.0
    278    302    303    304   5     5.25092    -2.58990     2.28446  0.0
    278    302    303    313   5     0.00000     0.00000     1.25520  0.0
    278    302    303    327   5     4.74884    -0.63178     1.67360  0.0
    311    302    303    304   5     0.00000     0.00000     1.95811  0.0
    311    302    303    313   5     0.00000     0.00000     1.25520  0.0
    311    302    303    327   5     0.00000     0.00000     1.25520  0.0
    312    302    303    304   5     0.00000     0.00000     1.95811  0.0
    312    302    303    313   5     0.00000     0.00000     1.25520  0.0
    312    302    303    327   5     0.00000     0.00000     1.25520  0.0
    302    303    304    305   5     0.52300    -0.09205     2.34722  0.0
    313    303    304    305   5     0.00000     0.00000     3.10034  0.0
    327    303    304    305   5     0.52300    -0.09205     2.34722  0.0
    302    303    327    328   5     4.74884    -0.63178     1.67360  0.0
    302    303    327    336   5     0.00000     0.00000     1.25520  0.0
    302    303    327    337   5     0.00000     0.00000     1.25520  0.0
    304    303    327    328   5     5.25092    -2.58990     2.28446  0.0
    304    303    327    336   5     0.00000     0.00000     1.95811  0.0
    304    303    327    337   5     0.00000     0.00000     1.95811  0.0
    313    303    327    328   5     0.00000     0.00000     1.25520  0.0
    313    303    327    336   5     0.00000     0.00000     1.25520  0.0
    313    303    327    337   5     0.00000     0.00000     1.25520  0.0
    303    304    305    306   5     0.52300    -0.09205     2.34722  0.0
    303    304    305    314   5     0.00000     0.00000     3.10034  0.0
    303    304    305    315   5     0.00000     0.00000     3.10034  0.0
    304    305    306    307   5     5.25092    -2.58990     2.28446  0.0
    304    305    306    316   5     0.00000     0.00000     1.95811  0.0
    304    305    306    317   5     0.00000     0.00000     1.95811  0.0
    314    305    306    307   5     0.00000     0.00000     1.25520  0.0
    314    305    306    316   5     0.00000     0.00000     1.25520  0.0
    314    305    306    317   5     0.00000     0.00000     1.25520  0.0
    315    305    306    307   5     0.00000     0.00000     1.25520  0.0
    315    305    306    316   5     0.00000     0.00000     1.25520  0.0
    315    305    306    317   5     0.00000     0.00000     1.25520  0.0
    305    306    307    308   5     4.74884    -0.63178     1.67360  0.0
    305    306    307    318   5     0.00000     0.00000     1.25520  0.0
    305    306    307    319   5     0.00000     0.00000     1.25520  0.0
    316    306    307    308   5     0.00000     0.00000     1.25520  0.0
    316    306    307    318   5     0.00000     0.00000     1.25520  0.0
    316    306    307    319   5     0.00000     0.00000     1.25520  0.0
    317    306    307    308   5     0.00000     0.00000     1.25520  0.0
    317    306    307    318   5     0.00000     0.00000     1.25520  0.0
    317    306    307    319   5     0.00000     0.00000     1.25520  0.0
    306    307    308    309   5     4.74884    -0.63178     1.67360  0.0
    306    307    308    320   5     0.00000     0.00000     1.25520  0.0
    306    307    308    321   5     0.00000     0.00000     1.25520  0.0
    318    307    308    309   5     0.00000     0.00000     1.25520  0.0
    318    307    308    320   5     0.00000     0.00000     1.25520  0.0
    318    307    308    321   5     0.00000     0.00000     1.25520  0.0
    319    307    308    309   5     0.00000     0.00000     1.25520  0.0
    319    307    308    320   5     0.00000     0.00000     1.25520  0.0
    319    307    308    321   5     0.00000     0.00000     1.25520  0.0
    307    308    309    310   5     4.74884    -0.63178     1.67360  0.0
    307    308    309    322   5     0.00000     0.00000     1.25520  0.0
    307    308    309    323   5     0.00000     0.00000     1.25520  0.0
    320    308    309    310   5     0.00000     0.00000     1.25520  0.0
    320    308    309    322   5     0.00000     0.00000     1.25520  0.0
    320    308    309    323   5     0.00000     0.00000     1.25520  0.0
    321    308    309    310   5     0.00000     0.00000     1.25520  0.0
    321    308    309    322   5     0.00000     0.00000     1.25520  0.0
    321    308    309    323   5     0.00000     0.00000     1.25520  0.0
    308    309    310    324   5     0.00000     0.00000     1.25520  0.0
    308    309    310    325   5     0.00000     0.00000     1.25520  0.0
    308    309    310    326   5     0.00000     0.00000     1.25520  0.0
    322    309    310    324   5     0.00000     0.00000     1.25520  0.0
    322    309    310    325   5     0.00000     0.00000     1.25520  0.0
    322    309    310    326   5     0.00000     0.00000     1.25520  0.0
    323    309    310    324   5     0.00000     0.00000     1.25520  0.0
    323    309    310    325   5     0.00000     0.00000     1.25520  0.0
    323    309    310    326   5     0.00000     0.00000     1.25520  0.0
    303    327    328    329   5     5.25092    -2.58990     2.28446  0.0
    303    327    328    338   5     0.00000     0.00000     1.25520  0.0
    303    327    328    352   5     4.74884    -0.63178     1.67360  0.0
    336    327    328    329   5     0.00000     0.00000     1.95811  0.0
    336    327    328    338   5     0.00000     0.00000     1.25520  0.0
    336    327    328    352   5     0.00000     0.00000     1.25520  0.0
    337    327    328    329   5     0.00000     0.00000     1.95811  0.0
    337    327    328    338   5     0.00000     0.00000     1.25520  0.0
    337    327    328    352   5     0.00000     0.00000     1.25520  0.0
    327    328    329    330   5     0.52300    -0.09205     2.34722  0.0
    338    328    329    330   5     0.00000     0.00000     3.10034  0.0
    352    328    329    330   5     0.52300    -0.09205     2.34722  0.0
    327    328    352    353   5     4.74884    -0.63178     1.67360  0.0
    327    328    352    361   5     0.00000     0.00000     1.25520  0.0
    327    328    352    362   5     0.00000     0.00000     1.25520  0.0
    329    328    352    353   5     5.25092    -2.58990     2.28446  0.0
    329    328    352    361   5     0.00000     0.00000     1.95811  0.0
    329    328    352    362   5     0.00000     0.00000     1.95811  0.0
    338    328    352    353   5     0.00000     0.00000     1.25520  0.0
    338    328    352    361   5     0.00000     0.00000     1.25520  0.0
    338    328    352    362   5     0.00000     0.00000     1.25520  0.0
    328    329    330    331   5     0.52300    -0.09205     2.34722  0.0
    328    329    330    339   5     0.00000     0.00000     3.10034  0.0
    328    329    330    340   5     0.00000     0.00000     3.10034  0.0
    329    330    331    332   5     5.25092    -2.58990     2.28446  0.0
    329    330    331    341   5     0.00000     0.00000     1.95811  0.0
    329    330    331    342   5     0.00000     0.00000     1.95811  0.0
    339    330    331    332   5     0.00000     0.00000     1.25520  0.0
    339    330    331    341   5     0.00000     0.00000     1.25520  0.0
    339    330    331    342   5     0.00000     0.00000     1.25520  0.0
    340    330    331    332   5     0.00000     0.00000     1.25520  0.0
    340    330    331    341   5     0.00000     0.00000     1.25520  0.0
    340    330    331    342   5     0.00000     0.00000     1.25520  0.0
    330    331    332    333   5     4.74884    -0.63178     1.67360  0.0
    330    331    332    343   5     0.00000     0.00000     1.25520  0.0
    330    331    332    344   5     0.00000     0.00000     1.25520  0.0
    341    331    332    333   5     0.00000     0.00000     1.25520  0.0
    341    331    332    343   5     0.00000     0.00000     1.25520  0.0
    341    331    332    344   5     0.00000     0.00000     1.25520  0.0
    342    331    332    333   5     0.00000     0.00000     1.25520  0.0
    342    331    332    343   5     0.00000     0.00000     1.25520  0.0
    342    331    332    344   5     0.00000     0.00000     1.25520  0.0
    331    332    333    334   5     4.74884    -0.63178     1.67360  0.0
    331    332    333    345   5     0.00000     0.00000     1.25520  0.0
    331    332    333    346   5     0.00000     0.00000     1.25520  0.0
    343    332    333    334   5     0.00000     0.00000     1.25520  0.0
    343    332    333    345   5     0.00000     0.00000     1.25520  0.0
    343    332    333    346   5     0.00000     0.00000     1.25520  0.0
    344    332    333    334   5     0.00000     0.00000     1.25520  0.0
    344    332    333    345   5     0.00000     0.00000     1.25520  0.0
    344    332    333    346   5     0.00000     0.00000     1.25520  0.0
    332    333    334    335   5     4.74884    -0.63178     1.67360  0.0
    332    333    334    347   5     0.00000     0.00000     1.25520  0.0
    332    333    334    348   5     0.00000     0.00000     1.25520  0.0
    345    333    334    335   5     0.00000     0.00000     1.25520  0.0
    345    333    334    347   5     0.00000     0.00000     1.25520  0.0
    345    333    334    348   5     0.00000     0.00000     1.25520  0.0
    346    333    334    335   5     0.00000     0.00000     1.25520  0.0
    346    333    334    347   5     0.00000     0.00000     1.25520  0.0
    346    333    334    348   5     0.00000     0.00000     1.25520  0.0
    333    334    335    349   5     0.00000     0.00000     1.25520  0.0
    333    334    335    350   5     0.00000     0.00000     1.25520  0.0
    333    334    335    351   5     0.00000     0.00000     1.25520  0.0
    347    334    335    349   5     0.00000     0.00000     1.25520  0.0
    347    334    335    350   5     0.00000     0.00000     1.25520  0.0
    347    334    335    351   5     0.00000     0.00000     1.25520  0.0
    348    334    335    349   5     0.00000     0.00000     1.25520  0.0
    348    334    335    350   5     0.00000     0.00000     1.25520  0.0
    348    334    335    351   5     0.00000     0.00000     1.25520  0.0
    328    352    353    354   5     5.25092    -2.58990     2.28446  0.0
    328    352    353    363   5     0.00000     0.00000     1.25520  0.0
    328    352    353    377   5     4.74884    -0.63178     1.67360  0.0
    361    352    353    354   5     0.00000     0.00000     1.95811  0.0
    361    352    353    363   5     0.00000     0.00000     1.25520  0.0
    361    352    353    377   5     0.00000     0.00000     1.25520  0.0
    362    352    353    354   5     0.00000     0.00000     1.95811  0.0
    362    352    353    363   5     0.00000     0.00000     1.25520  0.0
    362    352    353    377   5     0.00000     0.00000     1.25520  0.0
    352    353    354    355   5     0.52300    -0.09205     2.34722  0.0
    363    353    354    355   5     0.00000     0.00000     3.10034  0.0
    377    353    354    355   5     0.52300    -0.09205     2.34722  0.0
    352    353    377    378   5     4.74884    -0.63178     1.67360  0.0
    352    353    377    386   5     0.00000     0.00000     1.25520  0.0
    352    353    377    387   5     0.00000     0.00000     1.25520  0.0
    354    353    377    378   5     5.25092    -2.58990     2.28446  0.0
    354    353    377    386   5     0.00000     0.00000     1.95811  0.0
    354    353    377    387   5     0.00000     0.00000     1.95811  0.0
    363    353    377    378   5     0.00000     0.00000     1.25520  0.0
    363    353    377    386   5     0.00000     0.00000     1.25520  0.0
    363    353    377    387   5     0.00000     0.00000     1.25520  0.0
    353    354    355    356   5     0.52300    -0.09205     2.34722  0.0
    353    354    355    364   5     0.00000     0.00000     3.10034  0.0
    353    354    355    365   5     0.00000     0.00000     3.10034  0.0
    354    355    356    357   5     5.25092    -2.58990     2.28446  0.0
    354    355    356    366   5     0.00000     0.00000     1.95811  0.0
    354    355    356    367   5     0.00000     0.00000     1.95811  0.0
    364    355    356    357   5     0.00000     0.00000     1.25520  0.0
    364    355    356    366   5     0.00000     0.00000     1.25520  0.0
    364    355    356    367   5     0.00000     0.00000     1.25520  0.0
    365    355    356    357   5     0.00000     0.00000     1.25520  0.0
    365    355    356    366   5     0.00000     0.00000     1.25520  0.0
    365    355    356    367   5     0.00000     0.00000     1.25520  0.0
    355    356    357    358   5     4.74884    -0.63178     1.67360  0.0
    355    356    357    368   5     0.00000     0.00000     1.25520  0.0
    355    356    357    369   5     0.00000     0.00000     1.25520  0.0
    366    356    357    358   5     0.00000     0.00000     1.25520  0.0
    366    356    357    368   5     0.00000     0.00000     1.25520  0.0
    366    356    357    369   5     0.00000     0.00000     1.25520  0.0
    367    356    357    358   5     0.00000     0.00000     1.25520  0.0
    367    356    357    368   5     0.00000     0.00000     1.25520  0.0
    367    356    357    369   5     0.00000     0.00000     1.25520  0.0
    356    357    358    359   5     4.74884    -0.63178     1.67360  0.0
    356    357    358    370   5     0.00000     0.00000     1.25520  0.0
    356    357    358    371   5     0.00000     0.00000     1.25520  0.0
    368    357    358    359   5     0.00000     0.00000     1.25520  0.0
    368    357    358    370   5     0.00000     0.00000     1.25520  0.0
    368    357    358    371   5     0.00000     0.00000     1.25520  0.0
    369    357    358    359   5     0.00000     0.00000     1.25520  0.0
    369    357    358    370   5     0.00000     0.00000     1.25520  0.0
    369    357    358    371   5     0.00000     0.00000     1.25520  0.0
    357    358    359    360   5     4.74884    -0.63178     1.67360  0.0
    357    358    359    372   5     0.00000     0.00000     1.25520  0.0
    357    358    359    373   5     0.00000     0.00000     1.25520  0.0
    370    358    359    360   5     0.00000     0.00000     1.25520  0.0
    370    358    359    372   5     0.00000     0.00000     1.25520  0.0
    370    358    359    373   5     0.00000     0.00000     1.25520  0.0
    371    358    359    360   5     0.00000     0.00000     1.25520  0.0
    371    358    359    372   5     0.00000     0.00000     1.25520  0.0
    371    358    359    373   5     0.00000     0.00000     1.25520  0.0
    358    359    360    374   5     0.00000     0.00000     1.25520  0.0
    358    359    360    375   5     0.00000     0.00000     1.25520  0.0
    358    359    360    376   5     0.00000     0.00000     1.25520  0.0
    372    359    360    374   5     0.00000     0.00000     1.25520  0.0
    372    359    360    375   5     0.00000     0.00000     1.25520  0.0
    372    359    360    376   5     0.00000     0.00000     1.25520  0.0
    373    359    360    374   5     0.00000     0.00000     1.25520  0.0
    373    359    360    375   5     0.00000     0.00000     1.25520  0.0
    373    359    360    376   5     0.00000     0.00000     1.25520  0.0
    353    377    378    379   5     5.25092    -2.58990     2.28446  0.0
    353    377    378    388   5     0.00000     0.00000     1.25520  0.0
    353    377    378    402   5     4.74884    -0.63178     1.67360  0.0
    386    377    378    379   5     0.00000     0.00000     1.95811  0.0
    386    377    378    388   5     0.00000     0.00000     1.25520  0.0
    386    377    378    402   5     0.00000     0.00000     1.25520  0.0
    387    377    378    379   5     0.00000     0.00000     1.95811  0.0
    387    377    378    388   5     0.00000     0.00000     1.25520  0.0
    387    377    378    402   5     0.00000     0.00000     1.25520  0.0
    377    378    379    380   5     0.52300    -0.09205     2.34722  0.0
    388    378    379    380   5     0.00000     0.00000     3.10034  0.0
    402    378    379    380   5     0.52300    -0.09205     2.34722  0.0
    377    378    402    403   5     4.74884    -0.63178     1.67360  0.0
    377    378    402    411   5     0.00000     0.00000     1.25520  0.0
    377    378    402    412   5     0.00000     0.00000     1.25520  0.0
    379    378    402    403   5     5.25092    -2.58990     2.28446  0.0
    379    378    402    411   5     0.00000     0.00000     1.95811  0.0
    379    378    402    412   5     0.00000     0.00000     1.95811  0.0
    388    378    402    403   5     0.00000     0.00000     1.25520  0.0
    388    378    402    411   5     0.00000     0.00000     1.25520  0.0
    388    378    402    412   5     0.00000     0.00000     1.25520  0.0
    378    379    380    381   5     0.52300    -0.09205     2.34722  0.0
    378    379    380    389   5     0.00000     0.00000     3.10034  0.0
    378    379    380    390   5     0.00000     0.00000     3.10034  0.0
    379    380    381    382   5     5.25092    -2.58990     2.28446  0.0
    379    380    381    391   5     0.00000     0.00000     1.95811  0.0
    379    380    381    392   5     0.00000     0.00000     1.95811  0.0
    389    380    381    382   5     0.00000     0.00000     1.25520  0.0
    389    380    381    391   5     0.00000     0.00000     1.25520  0.0
    389    380    381    392   5     0.00000     0.00000     1.25520  0.0
    390    380    381    382   5     0.00000     0.00000     1.25520  0.0
    390    380    381    391   5     0.00000     0.00000     1.25520  0.0
    390    380    381    392   5     0.00000     0.00000     1.25520  0.0
    380    381    382    383   5     4.74884    -0.63178     1.67360  0.0
    380    381    382    393   5     0.00000     0.00000     1.25520  0.0
    380    381    382    394   5     0.00000     0.00000     1.25520  0.0
    391    381    382    383   5     0.00000     0.00000     1.25520  0.0
    391    381    382    393   5     0.00000     0.00000     1.25520  0.0
    391    381    382    394   5     0.00000     0.00000     1.25520  0.0
    392    381    382    383   5     0.00000     0.00000     1.25520  0.0
    392    381    382    393   5     0.00000     0.00000     1.25520  0.0
    392    381    382    394   5     0.00000     0.00000     1.25520  0.0
    381    382    383    384   5     4.74884    -0.63178     1.67360  0.0
    381    382    383    395   5     0.00000     0.00000     1.25520  0.0
    381    382    383    396   5     0.00000     0.00000     1.25520  0.0
    393    382    383    384   5     0.00000     0.00000     1.25520  0.0
    393    382    383    395   5     0.00000     0.00000     1.25520  0.0
    393    382    383    396   5     0.00000     0.00000     1.25520  0.0
    394    382    383    384   5     0.00000     0.00000     1.25520  0.0
    394    382    383    395   5     0.00000     0.00000     1.25520  0.0
    394    382    383    396   5     0.00000     0.00000     1.25520  0.0
    382    383    384    385   5     4.74884    -0.63178     1.67360  0.0
    382    383    384    397   5     0.00000     0.00000     1.25520  0.0
    382    383    384    398   5     0.00000     0.00000     1.25520  0.0
    395    383    384    385   5     0.00000     0.00000     1.25520  0.0
    395    383    384    397   5     0.00000     0.00000     1.25520  0.0
    395    383    384    398   5     0.00000     0.00000     1.25520  0.0
    396    383    384    385   5     0.00000     0.00000     1.25520  0.0
    396    383    384    397   5     0.00000     0.00000     1.25520  0.0
    396    383    384    398   5     0.00000     0.00000     1.25520  0.0
    383    384    385    399   5     0.00000     0.00000     1.25520  0.0
    383    384    385    400   5     0.00000     0.00000     1.25520  0.0
    383    384    385    401   5     0.00000     0.00000     1.25520  0.0
    397    384    385    399   5     0.00000     0.00000     1.25520  0.0
    397    384    385    400   5     0.00000     0.00000     1.25520  0.0
    397    384    385    401   5     0.00000     0.00000     1.25520  0.0
    398    384    385    399   5     0.00000     0.00000     1.25520  0.0
    398    384    385    400   5     0.00000     0.00000     1.25520  0.0
    398    384    385    401   5     0.00000     0.00000     1.25520  0.0
    378    402    403    404   5     5.25092    -2.58990     2.28446  0.0
    378    402    403    413   5     0.00000     0.00000     1.25520  0.0
    378    402    403    427   5     4.74884    -0.63178     1.67360  0.0
    411    402    403    404   5     0.00000     0.00000     1.95811  0.0
    411    402    403    413   5     0.00000     0.00000     1.25520  0.0
    411    402    403    427   5     0.00000     0.00000     1.25520  0.0
    412    402    403    404   5     0.00000     0.00000     1.95811  0.0
    412    402    403    413   5     0.00000     0.00000     1.25520  0.0
    412    402    403    427   5     0.00000     0.00000     1.25520  0.0
    402    403    404    405   5     0.52300    -0.09205     2.34722  0.0
    413    403    404    405   5     0.00000     0.00000     3.10034  0.0
    427    403    404    405   5     0.52300    -0.09205     2.34722  0.0
    402    403    427    428   5     4.74884    -0.63178     1.67360  0.0
    402    403    427    436   5     0.00000     0.00000     1.25520  0.0
    402    403    427    437   5     0.00000     0.00000     1.25520  0.0
    404    403    427    428   5     5.25092    -2.58990     2.28446  0.0
    404    403    427    436   5     0.00000     0.00000     1.95811  0.0
    404    403    427    437   5     0.00000     0.00000     1.95811  0.0
    413    403    427    428   5     0.00000     0.00000     1.25520  0.0
    413    403    427    436   5     0.00000     0.00000     1.25520  0.0
    413    403    427    437   5     0.00000     0.00000     1.25520  0.0
    403    404    405    406   5     0.52300    -0.09205     2.34722  0.0
    403    404    405    414   5     0.00000     0.00000     3.10034  0.0
    403    404    405    415   5     0.00000     0.00000     3.10034  0.0
    404    405    406    407   5     5.25092    -2.58990     2.28446  0.0
    404    405    406    416   5     0.00000     0.00000     1.95811  0.0
    404    405    406    417   5     0.00000     0.00000     1.95811  0.0
    414    405    406    407   5     0.00000     0.00000     1.25520  0.0
    414    405    406    416   5     0.00000     0.00000     1.25520  0.0
    414    405    406    417   5     0.00000     0.00000     1.25520  0.0
    415    405    406    407   5     0.00000     0.00000     1.25520  0.0
    415    405    406    416   5     0.00000     0.00000     1.25520  0.0
    415    405    406    417   5     0.00000     0.00000     1.25520  0.0
    405    406    407    408   5     4.74884    -0.63178     1.67360  0.0
    405    406    407    418   5     0.00000     0.00000     1.25520  0.0
    405    406    407    419   5     0.00000     0.00000     1.25520  0.0
    416    406    407    408   5     0.00000     0.00000     1.25520  0.0
    416    406    407    418   5     0.00000     0.00000     1.25520  0.0
    416    406    407    419   5     0.00000     0.00000     1.25520  0.0
    417    406    407    408   5     0.00000     0.00000     1.25520  0.0
    417    406    407    418   5     0.00000     0.00000     1.25520  0.0
    417    406    407    419   5     0.00000     0.00000     1.25520  0.0
    406    407    408    409   5     4.74884    -0.63178     1.67360  0.0
    406    407    408    420   5     0.00000     0.00000     1.25520  0.0
    406    407    408    421   5     0.00000     0.00000     1.25520  0.0
    418    407    408    409   5     0.00000     0.00000     1.25520  0.0
    418    407    408    420   5     0.00000     0.00000     1.25520  0.0
    418    407    408    421   5     0.00000     0.00000     1.25520  0.0
    419    407    408    409   5     0.00000     0.00000     1.25520  0.0
    419    407    408    420   5     0.00000     0.00000     1.25520  0.0
    419    407    408    421   5     0.00000     0.00000     1.25520  0.0
    407    408    409    410   5     4.74884    -0.63178     1.67360  0.0
    407    408    409    422   5     0.00000     0.00000     1.25520  0.0
    407    408    409    423   5     0.00000     0.00000     1.25520  0.0
    420    408    409    410   5     0.00000     0.00000     1.25520  0.0
    420    408    409    422   5     0.00000     0.00000     1.25520  0.0
    420    408    409    423   5     0.00000     0.00000     1.25520  0.0
    421    408    409    410   5     0.00000     0.00000     1.25520  0.0
    421    408    409    422   5     0.00000     0.00000     1.25520  0.0
    421    408    409    423   5     0.00000     0.00000     1.25520  0.0
    408    409    410    424   5     0.00000     0.00000     1.25520  0.0
    408    409    410    425   5     0.00000     0.00000     1.25520  0.0
    408    409    410    426   5     0.00000     0.00000     1.25520  0.0
    422    409    410    424   5     0.00000     0.00000     1.25520  0.0
    422    409    410    425   5     0.00000     0.00000     1.25520  0.0
    422    409    410    426   5     0.00000     0.00000     1.25520  0.0
    423    409    410    424   5     0.00000     0.00000     1.25520  0.0
    423    409    410    425   5     0.00000     0.00000     1.25520  0.0
    423    409    410    426   5     0.00000     0.00000     1.25520  0.0
    403    427    428    429   5     5.25092    -2.58990     2.28446  0.0
    403    427    428    438   5     0.00000     0.00000     1.25520  0.0
    403    427    428    452   5     4.74884    -0.63178     1.67360  0.0
    436    427    428    429   5     0.00000     0.00000     1.95811  0.0
    436    427    428    438   5     0.00000     0.00000     1.25520  0.0
    436    427    428    452   5     0.00000     0.00000     1.25520  0.0
    437    427    428    429   5     0.00000     0.00000     1.95811  0.0
    437    427    428    438   5     0.00000     0.00000     1.25520  0.0
    437    427    428    452   5     0.00000     0.00000     1.25520  0.0
    427    428    429    430   5     0.52300    -0.09205     2.34722  0.0
    438    428    429    430   5     0.00000     0.00000     3.10034  0.0
    452    428    429    430   5     0.52300    -0.09205     2.34722  0.0
    427    428    452    453   5     4.74884    -0.63178     1.67360  0.0
    427    428    452    461   5     0.00000     0.00000     1.25520  0.0
    427    428    452    462   5     0.00000     0.00000     1.25520  0.0
    429    428    452    453   5     5.25092    -2.58990     2.28446  0.0
    429    428    452    461   5     0.00000     0.00000     1.95811  0.0
    429    428    452    462   5     0.00000     0.00000     1.95811  0.0
    438    428    452    453   5     0.00000     0.00000     1.25520  0.0
    438    428    452    461   5     0.00000     0.00000     1.25520  0.0
    438    428    452    462   5     0.00000     0.00000     1.25520  0.0
    428    429    430    431   5     0.52300    -0.09205     2.34722  0.0
    428    429    430    439   5     0.00000     0.00000     3.10034  0.0
    428    429    430    440   5     0.00000     0.00000     3.10034  0.0
    429    430    431    432   5     5.25092    -2.58990     2.28446  0.0
    429    430    431    441   5     0.00000     0.00000     1.95811  0.0
    429    430    431    442   5     0.00000     0.00000     1.95811  0.0
    439    430    431    432   5     0.00000     0.00000     1.25520  0.0
    439    430    431    441   5     0.00000     0.00000     1.25520  0.0
    439    430    431    442   5     0.00000     0.00000     1.25520  0.0
    440    430    431    432   5     0.00000     0.00000     1.25520  0.0
    440    430    431    441   5     0.00000     0.00000     1.25520  0.0
    440    430    431    442   5     0.00000     0.00000     1.25520  0.0
    430    431    432    433   5     4.74884    -0.63178     1.67360  0.0
    430    431    432    443   5     0.00000     0.00000     1.25520  0.0
    430    431    432    444   5     0.00000     0.00000     1.25520  0.0
    441    431    432    433   5     0.00000     0.00000     1.25520  0.0
    441    431    432    443   5     0.00000     0.00000     1.25520  0.0
    441    431    432    444   5     0.00000     0.00000     1.25520  0.0
    442    431    432    433   5     0.00000     0.00000     1.25520  0.0
    442    431    432    443   5     0.00000     0.00000     1.25520  0.0
    442    431    432    444   5     0.00000     0.00000     1.25520  0.0
    431    432    433    434   5     4.74884    -0.63178     1.67360  0.0
    431    432    433    445   5     0.00000     0.00000     1.25520  0.0
    431    432    433    446   5     0.00000     0.00000     1.25520  0.0
    443    432    433    434   5     0.00000     0.00000     1.25520  0.0
    443    432    433    445   5     0.00000     0.00000     1.25520  0.0
    443    432    433    446   5     0.00000     0.00000     1.25520  0.0
    444    432    433    434   5     0.00000     0.00000     1.25520  0.0
    444    432    433    445   5     0.00000     0.00000     1.25520  0.0
    444    432    433    446   5     0.00000     0.00000     1.25520  0.0
    432    433    434    435   5     4.74884    -0.63178     1.67360  0.0
    432    433    434    447   5     0.00000     0.00000     1.25520  0.0
    432    433    434    448   5     0.00000     0.00000     1.25520  0.0
    445    433    434    435   5     0.00000     0.00000     1.25520  0.0
    445    433    434    447   5     0.00000     0.00000     1.25520  0.0
    445    433    434    448   5     0.00000     0.00000     1.25520  0.0
    446    433    434    435   5     0.00000     0.00000     1.25520  0.0
    446    433    434    447   5     0.00000     0.00000     1.25520  0.0
    446    433    434    448   5     0.00000     0.00000     1.25520  0.0
    433    434    435    449   5     0.00000     0.00000     1.25520  0.0
    433    434    435    450   5     0.00000     0.00000     1.25520  0.0
    433    434    435    451   5     0.00000     0.00000     1.25520  0.0
    447    434    435    449   5     0.00000     0.00000     1.25520  0.0
    447    434    435    450   5     0.00000     0.00000     1.25520  0.0
    447    434    435    451   5     0.00000     0.00000     1.25520  0.0
    448    434    435    449   5     0.00000     0.00000     1.25520  0.0
    448    434    435    450   5     0.00000     0.00000     1.25520  0.0
    448    434    435    451   5     0.00000     0.00000     1.25520  0.0
    428    452    453    454   5     5.25092    -2.58990     2.28446  0.0
    428    452    453    463   5     0.00000     0.00000     1.25520  0.0
    428    452    453    477   5     4.74884    -0.63178     1.67360  0.0
    461    452    453    454   5     0.00000     0.00000     1.95811  0.0
    461    452    453    463   5     0.00000     0.00000     1.25520  0.0
    461    452    453    477   5     0.00000     0.00000     1.25520  0.0
    462    452    453    454   5     0.00000     0.00000     1.95811  0.0
    462    452    453    463   5     0.00000     0.00000     1.25520  0.0
    462    452    453    477   5     0.00000     0.00000     1.25520  0.0
    452    453    454    455   5     0.52300    -0.09205     2.34722  0.0
    463    453    454    455   5     0.00000     0.00000     3.10034  0.0
    477    453    454    455   5     0.52300    -0.09205     2.34722  0.0
    452    453    477    478   5     4.74884    -0.63178     1.67360  0.0
    452    453    477    486   5     0.00000     0.00000     1.25520  0.0
    452    453    477    487   5     0.00000     0.00000     1.25520  0.0
    454    453    477    478   5     5.25092    -2.58990     2.28446  0.0
    454    453    477    486   5     0.00000     0.00000     1.95811  0.0
    454    453    477    487   5     0.00000     0.00000     1.95811  0.0
    463    453    477    478   5     0.00000     0.00000     1.25520  0.0
    463    453    477    486   5     0.00000     0.00000     1.25520  0.0
    463    453    477    487   5     0.00000     0.00000     1.25520  0.0
    453    454    455    456   5     0.52300    -0.09205     2.34722  0.0
    453    454    455    464   5     0.00000     0.00000     3.10034  0.0
    453    454    455    465   5     0.00000     0.00000     3.10034  0.0
    454    455    456    457   5     5.25092    -2.58990     2.28446  0.0
    454    455    456    466   5     0.00000     0.00000     1.95811  0.0
    454    455    456    467   5     0.00000     0.00000     1.95811  0.0
    464    455    456    457   5     0.00000     0.00000     1.25520  0.0
    464    455    456    466   5     0.00000     0.00000     1.25520  0.0
    464    455    456    467   5     0.00000     0.00000     1.25520  0.0
    465    455    456    457   5     0.00000     0.00000     1.25520  0.0
    465    455    456    466   5     0.00000     0.00000     1.25520  0.0
    465    455    456    467   5     0.00000     0.00000     1.25520  0.0
    455    456    457    458   5     4.74884    -0.63178     1.67360  0.0
    455    456    457    468   5     0.00000     0.00000     1.25520  0.0
    455    456    457    469   5     0.00000     0.00000     1.25520  0.0
    466    456    457    458   5     0.00000     0.00000     1.25520  0.0
    466    456    457    468   5     0.00000     0.00000     1.25520  0.0
    466    456    457    469   5     0.00000     0.00000     1.25520  0.0
    467    456    457    458   5     0.00000     0.00000     1.25520  0.0
    467    456    457    468   5     0.00000     0.00000     1.25520  0.0
    467    456    457    469   5     0.00000     0.00000     1.25520  0.0
    456    457    458    459   5     4.74884    -0.63178     1.67360  0.0
    456    457    458    470   5     0.00000     0.00000     1.25520  0.0
    456    457    458    471   5     0.00000     0.00000     1.25520  0.0
    468    457    458    459   5     0.00000     0.00000     1.25520  0.0
    468    457    458    470   5     0.00000     0.00000     1.25520  0.0
    468    457    458    471   5     0.00000     0.00000     1.25520  0.0
    469    457    458    459   5     0.00000     0.00000     1.25520  0.0
    469    457    458    470   5     0.00000     0.00000     1.25520  0.0
    469    457    458    471   5     0.00000     0.00000     1.25520  0.0
    457    458    459    460   5     4.74884    -0.63178     1.67360  0.0
    457    458    459    472   5     0.00000     0.00000     1.25520  0.0
    457    458    459    473   5     0.00000     0.00000     1.25520  0.0
    470    458    459    460   5     0.00000     0.00000     1.25520  0.0
    470    458    459    472   5     0.00000     0.00000     1.25520  0.0
    470    458    459    473   5     0.00000     0.00000     1.25520  0.0
    471    458    459    460   5     0.00000     0.00000     1.25520  0.0
    471    458    459    472   5     0.00000     0.00000     1.25520  0.0
    471    458    459    473   5     0.00000     0.00000     1.25520  0.0
    458    459    460    474   5     0.00000     0.00000     1.25520  0.0
    458    459    460    475   5     0.00000     0.00000     1.25520  0.0
    458    459    460    476   5     0.00000     0.00000     1.25520  0.0
    472    459    460    474   5     0.00000     0.00000     1.25520  0.0
    472    459    460    475   5     0.00000     0.00000     1.25520  0.0
    472    459    460    476   5     0.00000     0.00000     1.25520  0.0
    473    459    460    474   5     0.00000     0.00000     1.25520  0.0
    473    459    460    475   5     0.00000     0.00000     1.25520  0.0
    473    459    460    476   5     0.00000     0.00000     1.25520  0.0
    453    477    478    479   5     5.25092    -2.58990     2.28446  0.0
    453    477    478    488   5     0.00000     0.00000     1.25520  0.0
    453    477    478    502   5     0.00000     0.00000     1.25520  0.0
    486    477    478    479   5     0.00000     0.00000     1.95811  0.0
    486    477    478    488   5     0.00000     0.00000     1.25520  0.0
    486    477    478    502   5     0.00000     0.00000     1.25520  0.0
    487    477    478    479   5     0.00000     0.00000     1.95811  0.0
    487    477    478    488   5     0.00000     0.00000     1.25520  0.0
    487    477    478    502   5     0.00000     0.00000     1.25520  0.0
    477    478    479    480   5     0.52300    -0.09205     2.34722  0.0
    488    478    479    480   5     0.00000     0.00000     3.10034  0.0
    502    478    479    480   5     0.00000     0.00000     3.10034  0.0
    478    479    480    481   5     0.52300    -0.09205     2.34722  0.0
    478    479    480    489   5     0.00000     0.00000     3.10034  0.0
    478    479    480    490   5     0.00000     0.00000     3.10034  0.0
    479    480    481    482   5     5.25092    -2.58990     2.28446  0.0
    479    480    481    491   5     0.00000     0.00000     1.95811  0.0
    479    480    481    492   5     0.00000     0.00000     1.95811  0.0
    489    480    481    482   5     0.00000     0.00000     1.25520  0.0
    489    480    481    491   5     0.00000     0.00000     1.25520  0.0
    489    480    481    492   5     0.00000     0.00000     1.25520  0.0
    490    480    481    482   5     0.00000     0.00000     1.25520  0.0
    490    480    481    491   5     0.00000     0.00000     1.25520  0.0
    490    480    481    492   5     0.00000     0.00000     1.25520  0.0
    480    481    482    483   5     4.74884    -0.63178     1.67360  0.0
    480    481    482    493   5     0.00000     0.00000     1.25520  0.0
    480    481    482    494   5     0.00000     0.00000     1.25520  0.0
    491    481    482    483   5     0.00000     0.00000     1.25520  0.0
    491    481    482    493   5     0.00000     0.00000     1.25520  0.0
    491    481    482    494   5     0.00000     0.00000     1.25520  0.0
    492    481    482    483   5     0.00000     0.00000     1.25520  0.0
    492    481    482    493   5     0.00000     0.00000     1.25520  0.0
    492    481    482    494   5     0.00000     0.00000     1.25520  0.0
    481    482    483    484   5     4.74884    -0.63178     1.67360  0.0
    481    482    483    495   5     0.00000     0.00000     1.25520  0.0
    481    482    483    496   5     0.00000     0.00000     1.25520  0.0
    493    482    483    484   5     0.00000     0.00000     1.25520  0.0
    493    482    483    495   5     0.00000     0.00000     1.25520  0.0
    493    482    483    496   5     0.00000     0.00000     1.25520  0.0
    494    482    483    484   5     0.00000     0.00000     1.25520  0.0
    494    482    483    495   5     0.00000     0.00000     1.25520  0.0
    494    482    483    496   5     0.00000     0.00000     1.25520  0.0
    482    483    484    485   5     4.74884    -0.63178     1.67360  0.0
    482    483    484    497   5     0.00000     0.00000     1.25520  0.0
    482    483    484    498   5     0.00000     0.00000     1.25520  0.0
    495    483    484    485   5     0.00000     0.00000     1.25520  0.0
    495    483    484    497   5     0.00000     0.00000     1.25520  0.0
    495    483    484    498   5     0.00000     0.00000     1.25520  0.0
    496    483    484    485   5     0.00000     0.00000     1.25520  0.0
    496    483    484    497   5     0.00000     0.00000     1.25520  0.0
    496    483    484    498   5     0.00000     0.00000     1.25520  0.0
    483    484    485    499   5     0.00000     0.00000     1.25520  0.0
    483    484    485    500   5     0.00000     0.00000     1.25520  0.0
    483    484    485    501   5     0.00000     0.00000     1.25520  0.0
    497    484    485    499   5     0.00000     0.00000     1.25520  0.0
    497    484    485    500   5     0.00000     0.00000     1.25520  0.0
    497    484    485    501   5     0.00000     0.00000     1.25520  0.0
    498    484    485    499   5     0.00000     0.00000     1.25520  0.0
    498    484    485    500   5     0.00000     0.00000     1.25520  0.0
    498    484    485    501   5     0.00000     0.00000     1.25520  0.0
